Control file title. For DL_FIELD 4.10
49470
    1MOL     C1    1   5.910   6.313   2.629 -0.1386 -0.5967  0.7240
    1MOL     C2    2   5.913   6.361   2.771  0.4278  0.2139 -0.5436
    1MOL     O3    3   5.955   6.256   2.852  0.0261  0.2200  0.3751
    1MOL     C4    4   5.994   6.493   2.793 -0.9114  0.1541 -0.3283
    1MOL     O5    5   6.128   6.479   2.738  0.2924 -0.4992 -0.1482
    1MOL     C6    6   6.215   6.588   2.758 -0.2875  0.4707 -0.6216
    1MOL     C7    7   6.359   6.572   2.702 -0.2052 -0.0799 -0.0205
    1MOL     C8    8   6.458   6.689   2.748  1.9183 -0.3899  0.4528
    1MOL     O9    9   6.564   6.693   2.657 -0.1736 -0.2024  0.1575
    1MOL    C10   10   6.683   6.657   2.708  0.3962 -0.4108 -0.7773
    1MOL    O11   11   6.734   6.738   2.816 -0.3459  0.4670 -0.0576
    1MOL    C12   12   6.789   6.648   2.597  0.4480 -0.3585 -0.4155
    1MOL    O13   13   6.773   6.532   2.511  0.2435  0.3188  0.0881
    1MOL    H14   14   6.013   6.296   2.600 -0.1714  0.1787  0.1402
    1MOL    H15   15   5.858   6.383   2.563  1.6762  1.7683  1.7285
    1MOL    H16   16   5.807   6.375   2.795  0.3872  0.6401 -0.9651
    1MOL    H17   17   6.046   6.242   2.834 -0.2414  0.3699 -1.1870
    1MOL    H18   18   5.948   6.578   2.742  0.3280  1.6712  1.0030
    1MOL    H19   19   6.016   6.519   2.896  0.6731  0.7448 -0.7948
    1MOL    H20   20   6.220   6.608   2.866  1.0669 -0.1240 -0.5634
    1MOL    H21   21   6.181   6.684   2.719  1.3182  0.8709 -1.0724
    1MOL    H22   22   6.359   6.580   2.593  1.8189  1.5701  0.0725
    1MOL    H23   23   6.406   6.477   2.727  0.5407  0.0792 -0.7969
    1MOL    H24   24   6.405   6.784   2.754 -0.6750 -1.6888 -1.0156
    1MOL    H25   25   6.491   6.672   2.850  2.3256  1.0943  0.5828
    1MOL    H26   26   6.671   6.553   2.736 -1.3154  0.1205  0.5918
    1MOL    H27   27   6.683   6.726   2.895 -0.9916  2.6219 -0.1033
    1MOL    H28   28   6.799   6.740   2.539 -1.0195  1.6630  2.4017
    1MOL    H29   29   6.885   6.622   2.641  0.4493 -0.5353 -0.5244
    1MOL    H30   30   5.843   6.228   2.616 -0.1029 -0.1894 -2.2578
    1MOL    C31   31   6.694   6.561   2.396 -0.5791 -0.3072  0.3828
    1MOL    C32   32   6.734   6.449   2.292 -0.5747  0.2399  0.5221
    1MOL    O33   33   6.868   6.475   2.268  0.1989  0.6590 -0.7195
    1MOL    C34   34   6.660   6.448   2.158 -1.0210  0.1639  0.5997
    1MOL    O35   35   6.643   6.322   2.095 -0.1795  0.2061 -0.3957
    1MOL    C36   36   6.756   6.252   2.047  0.1486 -0.4673  0.3281
    1MOL    C37   37   6.706   6.143   1.958 -0.6055  0.6286  0.4008
    1MOL    C38   38   6.811   6.038   1.912 -0.0482  0.3127 -0.7685
    1MOL    O39   39   6.728   5.941   1.849  0.2141  0.3068 -0.3922
    1MOL    C40   40   6.791   5.823   1.822  0.2756 -0.7628 -0.4741
    1MOL    O41   41   6.847   5.827   1.692 -0.5889 -0.1968  0.2551
    1MOL    C42   42   6.704   5.705   1.838  0.3420  0.3130 -0.1284
    1MOL    O43   43   6.720   5.641   1.961 -0.2509  0.2254  0.4679
    1MOL    H44   44   6.589   6.560   2.426 -0.1750 -1.8787  1.7791
    1MOL    H45   45   6.726   6.657   2.355  2.8491 -2.0444 -1.1790
    1MOL    H46   46   6.737   6.351   2.340 -0.8823 -0.3792 -0.7026
    1MOL    H47   47   6.912   6.490   2.351 -0.1586  0.5111 -0.5014
    1MOL    H48   48   6.556   6.481   2.163 -1.2038 -0.5896  2.3335
    1MOL    H49   49   6.715   6.500   2.081 -0.7696  2.0524  2.0232
    1MOL    H50   50   6.813   6.223   2.135  0.2072  0.2660  0.5302
    1MOL    H51   51   6.819   6.309   1.978  0.7190 -1.5390 -0.0496
    1MOL    H52   52   6.652   6.179   1.870  1.9992 -0.3292 -1.6920
    1MOL    H53   53   6.625   6.095   2.013  0.1672  0.1423  1.1181
    1MOL    H54   54   6.873   6.089   1.839  1.3209 -1.3027 -0.7620
    1MOL    H55   55   6.868   6.007   1.999 -0.9186 -1.1014 -0.6738
    1MOL    H56   56   6.878   5.802   1.885 -0.2923  0.9296  0.9037
    1MOL    H57   57   6.940   5.839   1.700 -0.4733 -0.9665  0.0576
    1MOL    H58   58   6.601   5.724   1.809  0.1433  0.7549  0.8350
    1MOL    H59   59   6.732   5.634   1.760 -0.7830 -1.1918  0.7976
    1MOL    C60   60   6.646   5.709   2.064  0.5136 -0.6168  0.4133
    1MOL    C61   61   6.660   5.632   2.194 -0.1215  0.0016  0.3174
    1MOL    O62   62   6.558   5.536   2.206  0.4290  0.1166  0.2288
    1MOL    C63   63   6.647   5.726   2.314  0.3015  0.0728 -0.0916
    1MOL    O64   64   6.703   5.854   2.292 -0.1660  0.0994  0.1295
    1MOL    C65   65   6.738   5.928   2.410 -0.1624  0.2253 -0.2560
    1MOL    C66   66   6.610   6.008   2.461 -0.0402  1.0847  0.0907
    1MOL    C67   67   6.543   6.099   2.359  0.0375 -0.0076  0.1579
    1MOL    O68   68   6.439   6.180   2.415 -0.1398  0.1563 -0.7663
    1MOL    C69   69   6.369   6.260   2.327  0.5291  0.2116 -0.3164
    1MOL    O70   70   6.266   6.188   2.268  0.0407 -0.3777 -0.0155
    1MOL    C71   71   6.315   6.387   2.397 -0.7324 -0.3751  1.2697
    1MOL    O72   72   6.342   6.499   2.317 -0.0444 -0.0554  0.4729
    1MOL    H73   73   6.546   5.707   2.021  1.4967 -0.3204 -1.9508
    1MOL    H74   74   6.692   5.807   2.067  1.8315 -1.2389  1.2190
    1MOL    H75   75   6.756   5.580   2.191  1.6583  3.2438 -2.8928
    1MOL    H76   76   6.589   5.463   2.257 -1.4044 -0.6778  0.2636
    1MOL    H77   77   6.545   5.745   2.349  1.0478  1.1742  1.5691
    1MOL    H78   78   6.699   5.685   2.401 -0.6301  1.6621  1.2427
    1MOL    H79   79   6.829   5.984   2.385  0.5236 -1.8501 -2.6792
    1MOL    H80   80   6.778   5.869   2.492  0.3840  1.6109  0.4914
    1MOL    H81   81   6.642   6.072   2.544 -1.8247  0.6105  1.1695
    1MOL    H82   82   6.544   5.935   2.507 -0.9602  0.9157 -1.4945
    1MOL    H83   83   6.483   6.051   2.281 -2.7860  1.9595  1.0102
    1MOL    H84   84   6.620   6.163   2.317 -1.6624  0.9415 -1.6520
    1MOL    H85   85   6.428   6.293   2.242 -0.4602  3.3717  0.1783
    1MOL    H86   86   6.301   6.106   2.236  2.0382  1.1867 -2.0160
    1MOL    H87   87   6.210   6.378   2.427 -1.4041  0.3557 -0.7723
    1MOL    H88   88   6.375   6.398   2.488 -1.3302  1.8746  1.4270
    1MOL    C89   89   6.231   6.531   2.237  0.2907  1.0797 -0.2168
    1MOL    C90   90   6.148   6.647   2.294 -0.2218  0.3901 -0.0396
    1MOL    O91   91   6.212   6.769   2.278 -0.2786  0.2337 -0.1941
    1MOL    C92   92   6.002   6.653   2.237  0.0388 -0.1935  0.4507
    1MOL    O93   93   5.906   6.651   2.338  0.3034 -0.2055  0.7411
    1MOL    C94   94   5.770   6.666   2.293 -0.0694  0.5190 -0.0396
    1MOL    C95   95   5.673   6.645   2.412  0.7600 -0.7074 -0.3818
    1MOL    C96   96   5.537   6.698   2.358  0.1107  0.0208  0.3023
    1MOL    O97   97   5.493   6.609   2.258 -0.4878 -0.8480 -0.2294
    1MOL    C98   98   5.355   6.610   2.230  0.9789  0.1699 -0.4004
    1MOL    O99   99   5.307   6.726   2.172 -0.4315 -0.0418  0.0705
    1MOL   C100  100   5.347   6.506   2.115  0.3171  0.2811 -0.1030
    1MOL   O101  101   5.395   6.573   1.999  0.0626 -0.1487 -0.0491
    1MOL   H102  102   6.169   6.443   2.218  0.7464  0.6820  0.1148
    1MOL   H103  103   6.280   6.557   2.144  3.1643 -1.7538  0.4050
    1MOL   H104  104   6.134   6.627   2.400 -0.4620 -0.2366 -0.1908
    1MOL   H105  105   6.292   6.760   2.327 -0.6896 -2.2733  0.0573
    1MOL   H106  106   5.995   6.746   2.182  1.2521  0.1263  0.8086
    1MOL   H107  107   5.984   6.573   2.166  0.9900 -0.6128  0.6751
    1MOL   H108  108   5.748   6.589   2.220  1.4267  1.0213 -1.0518
    1MOL   H109  109   5.759   6.768   2.256  2.0921  0.8463  0.1406
    1MOL   H110  110   5.706   6.700   2.500 -1.9752 -1.5176  1.1798
    1MOL   H111  111   5.658   6.542   2.446 -2.2500 -0.1787  0.0145
    1MOL   H112  112   5.469   6.703   2.443  1.5100 -0.3188  1.4713
    1MOL   H113  113   5.544   6.795   2.309  1.7350 -0.1950  0.0631
    1MOL   H114  114   5.295   6.582   2.317 -2.2324  1.6021 -2.0447
    1MOL   H115  115   5.336   6.708   2.084  1.1656 -2.2779  1.0312
    1MOL   H116  116   5.398   6.411   2.133  0.2763  0.3490  0.3849
    1MOL   H117  117   5.240   6.486   2.108 -0.0013  1.4147  1.3739
    1MOL   C118  118   5.532   6.557   1.963  0.3303 -0.4271 -0.6254
    1MOL   C119  119   5.587   6.663   1.872  0.1393 -0.5201 -0.0592
    1MOL   O120  120   5.723   6.643   1.846 -0.4855  0.4042  0.0806
    1MOL   C121  121   5.601   6.797   1.944  0.1229 -0.4842 -0.1253
    1MOL   O122  122   5.673   6.892   1.862 -0.2282 -0.1755 -0.5857
    1MOL   C123  123   5.704   7.006   1.940 -0.7149 -0.1286  0.1167
    1MOL   C124  124   5.790   7.111   1.856  0.2171 -0.3507 -0.1477
    1MOL   C125  125   5.737   7.140   1.720  0.6435  0.1372  0.2156
    1MOL   O126  126   5.806   7.246   1.650 -0.2546 -0.9702 -0.5176
    1MOL   C127  127   5.724   7.321   1.570  0.0062 -0.8511 -0.1137
    1MOL   O128  128   5.671   7.249   1.462  0.0482  0.2906 -0.2587
    1MOL   C129  129   5.804   7.444   1.511  0.1238 -0.7277  0.6366
    1MOL   O130  130   5.810   7.544   1.608  0.1625  0.1442  0.3818
    1MOL   H131  131   5.603   6.551   2.045  1.4810  1.3516 -1.4577
    1MOL   H132  132   5.540   6.466   1.902  2.0417 -0.7870  0.1253
    1MOL   H133  133   5.532   6.665   1.778 -0.1156 -0.9387  0.0782
    1MOL   H134  134   5.754   6.719   1.800 -0.3184 -0.9422 -2.0625
    1MOL   H135  135   5.506   6.837   1.977 -0.5987 -2.7683  0.6381
    1MOL   H136  136   5.646   6.788   2.043 -1.1200  2.3118  0.7312
    1MOL   H137  137   5.755   6.996   2.036  0.5047  0.7953 -0.4224
    1MOL   H138  138   5.607   7.049   1.964  0.9564  2.3108  2.8119
    1MOL   H139  139   5.891   7.072   1.847  0.6013  0.5983 -0.0293
    1MOL   H140  140   5.787   7.205   1.911  1.2069  0.0642 -0.7946
    1MOL   H141  141   5.740   7.052   1.656  2.2639 -0.2127  0.7307
    1MOL   H142  142   5.630   7.158   1.733  0.7832  0.5264  0.8969
    1MOL   H143  143   5.638   7.364   1.621 -1.1115 -1.4383 -1.4740
    1MOL   H144  144   5.594   7.209   1.498  0.5469  0.2765  0.8240
    1MOL   H145  145   5.907   7.413   1.493  0.1755 -0.1946 -0.0086
    1MOL   H146  146   5.759   7.474   1.416  0.8156 -0.5933  0.3419
    1MOL   C147  147   5.840   7.675   1.558  0.7001  0.0480 -0.0632
    1MOL   C148  148   5.912   0.063   1.661  0.0515 -0.2947 -0.5492
    1MOL   O149  149   5.814   0.083   1.768  0.5684 -0.5243 -0.2870
    1MOL   C150  150   5.959   0.200   1.596 -0.2386  0.0780  0.1602
    1MOL   O151  151   6.025   0.179   1.464 -0.4402 -0.8055  0.3755
    1MOL   C152  152   6.171   0.183   1.472  0.5943  1.0315 -0.7620
    1MOL   C153  153   6.220   0.163   1.327  0.1513  0.0625  0.5965
    1MOL   C154  154   6.191   0.287   1.238 -0.2261 -0.0219 -0.3035
    1MOL   O155  155   6.242   0.265   1.110 -0.1168 -0.0353 -0.3331
    1MOL   C156  156   6.254   0.368   1.020 -0.0362  0.3723  0.2723
    1MOL   O157  157   6.119   0.404   0.982  0.2118  0.4797  0.0967
    1MOL   C158  158   6.329   0.314   0.900 -0.3453  0.1204 -0.4127
    1MOL   O159  159   6.462   0.358   0.888 -0.9213  0.0916  0.0012
    1MOL   H160  160   5.759   0.028   1.504  0.9286 -0.0677 -0.5120
    1MOL   H161  161   5.909   7.658   1.476 -2.0904 -0.4627 -2.3688
    1MOL   H162  162   5.994   0.013   1.713 -0.9616  1.0626  2.4599
    1MOL   H163  163   5.768   0.001   1.765 -1.4997  0.6310 -1.2528
    1MOL   H164  164   5.876   0.271   1.598  0.5559  1.1112 -1.7986
    1MOL   H165  165   6.036   0.237   1.665  2.0486 -0.2637 -2.1135
    1MOL   H166  166   6.214   0.110   1.540  3.4885  2.5821 -0.8774
    1MOL   H167  167   6.210   0.278   1.508  2.0476  0.1742 -0.0494
    1MOL   H168  168   6.177   0.076   1.278  2.7808  1.1577 -3.8902
    1MOL   H169  169   6.328   0.147   1.335  0.0979 -0.0151  1.1677
    1MOL   H170  170   6.084   0.305   1.250 -1.1139 -3.7263 -2.0358
    1MOL   H171  171   6.238   0.368   1.294 -2.3373  0.5833  0.6249
    1MOL   H172  172   6.284   0.468   1.053  1.8473 -0.0335 -0.1730
    1MOL   H173  173   6.097   0.345   0.911  1.1260  0.9325 -0.5819
    1MOL   H174  174   6.335   0.205   0.896 -1.0396 -0.0255  1.9586
    1MOL   H175  175   6.267   0.337   0.814  0.1386 -0.3899 -0.9067
    1MOL   C176  176   6.551   0.288   0.976 -0.3396 -0.4454 -0.0551
    1MOL   C177  177   6.650   0.202   0.889 -0.2808  0.0216 -0.4379
    1MOL   O178  178   6.682   0.282   0.773  0.4394 -0.0086  0.1102
    1MOL   C179  179   6.585   0.080   0.827  0.1583 -0.0320  0.2751
    1MOL   O180  180   6.556   7.692   0.940  0.8757 -0.2678 -0.0127
    1MOL   C181  181   6.464   7.585   0.902 -0.1136  0.6923  0.9649
    1MOL   C182  182   6.347   7.595   0.998 -0.1432  0.3047 -0.7254
    1MOL   C183  183   6.381   7.587   1.150  0.4250 -0.6170 -0.1986
    1MOL   O184  184   6.273   7.525   1.224 -0.6159 -0.1788  0.8764
    1MOL   C185  185   6.315   7.417   1.305 -0.6216  0.0884  0.1574
    1MOL   O186  186   6.345   7.296   1.237  0.2821  0.4592  0.3395
    1MOL   C187  187   6.204   7.400   1.406 -0.2249  0.3923 -0.2380
    1MOL   O188  188   6.250   7.383   1.540 -0.2144  0.1889 -0.7491
    1MOL   H189  189   6.499   0.226   1.049 -1.2090 -0.2013 -0.4575
    1MOL   H190  190   6.593   0.370   1.035  0.9873  0.1996 -1.8423
    1MOL   H191  191   6.745   0.182   0.939 -0.7312  0.3740  0.5719
    1MOL   H192  192   6.608   0.340   0.763 -0.3191 -1.2526 -1.6274
    1MOL   H193  193   6.498   0.086   0.762  0.1518 -3.6365 -0.1903
    1MOL   H194  194   6.659   0.036   0.759  0.1501  1.8785 -1.0130
    1MOL   H195  195   6.501   7.483   0.920 -0.8699  0.0796 -0.8639
    1MOL   H196  196   6.426   7.586   0.800  1.1148 -0.2299  0.4794
    1MOL   H197  197   6.272   7.522   0.967  0.2895 -0.1850 -0.6395
    1MOL   H198  198   6.300   7.692   0.983  0.3896  0.6869  0.0786
    1MOL   H199  199   6.482   7.551   1.169  0.2331 -0.0477  2.0939
    1MOL   H200  200   6.390   7.687   1.193 -1.2308 -0.7617  0.5454
    1MOL   H201  201   6.409   7.452   1.347 -0.6483 -1.0597  1.2277
    1MOL   H202  202   6.414   7.253   1.285  1.1673  0.9717 -0.4676
    1MOL   H203  203   6.129   7.479   1.403  1.8948  2.5039  0.8747
    1MOL   H204  204   6.154   7.309   1.373 -1.3426  0.1728  1.9430
    1MOL   C205  205   6.147   7.374   1.640 -0.1378  0.2736 -0.4953
    1MOL   C206  206   6.212   7.364   1.782 -0.4987  0.8837 -0.0222
    1MOL   O207  207   6.186   7.476   1.872 -0.0130  0.1523  0.3143
    1MOL   C208  208   6.179   7.238   1.867  0.1289 -0.1376 -0.5949
    1MOL   O209  209   6.282   7.214   1.963 -0.2790  0.7848 -1.0270
    1MOL   C210  210   6.257   7.275   2.093 -0.3458 -0.0434  0.1110
    1MOL   C211  211   6.389   7.298   2.162 -0.1278 -0.1274 -0.2824
    1MOL   C212  212   6.384   7.384   2.290 -0.1334 -0.5780  0.1507
    1MOL   O213  213   6.517   7.400   2.346  0.2466  0.3624  0.8962
    1MOL   C214  214   6.526   7.489   2.453  0.0466  0.0006 -0.5173
    1MOL   O215  215   6.663   7.482   2.489 -0.7345  0.2047  0.0202
    1MOL   C216  216   6.435   7.439   2.562  0.1649  0.6135  0.1606
    1MOL   O217  217   6.311   7.502   2.540 -0.0424 -0.4945 -0.5720
    1MOL   H218  218   6.095   7.280   1.620  0.0433 -0.0446  0.5167
    1MOL   H219  219   6.076   7.457   1.644  0.2601  0.5418  1.2398
    1MOL   H220  220   6.319   7.362   1.762 -0.7012 -1.6781 -1.1184
    1MOL   H221  221   6.103   7.468   1.918 -0.6671  1.6094 -0.5615
    1MOL   H222  222   6.078   7.250   1.906  0.5132  0.5790  0.1881
    1MOL   H223  223   6.191   7.149   1.804 -2.5178 -0.3062 -0.9243
    1MOL   H224  224   6.194   7.205   2.148  0.2427  0.2024  1.0937
    1MOL   H225  225   6.213   7.374   2.085 -2.1832 -0.9696 -2.2121
    1MOL   H226  226   6.455   7.353   2.096 -0.6962 -1.4185 -1.9609
    1MOL   H227  227   6.430   7.200   2.189 -0.2455 -0.3611 -0.9519
    1MOL   H228  228   6.346   7.483   2.265  0.1832 -0.4796  0.0539
    1MOL   H229  229   6.319   7.334   2.362  0.3931 -1.0052  0.3304
    1MOL   H230  230   6.509   7.586   2.406  0.1751  0.1968 -0.1578
    1MOL   H231  231   6.672   7.402   2.538  1.6711 -0.6732 -1.7746
    1MOL   H232  232   6.422   7.331   2.570 -0.3289  0.6509 -0.1312
    1MOL   H233  233   6.475   7.479   2.655 -1.4593 -0.1755  1.2106
    1MOL   C234  234   6.210   7.470   2.629 -0.4714  0.3808  0.0174
    1MOL   C235  235   6.137   7.595   2.684 -1.1356  0.2128  0.1895
    1MOL   O236  236   6.083   7.661   2.578  0.4273 -0.0042  0.3174
    1MOL   C237  237   6.223   7.691   2.771 -0.0802 -0.2606 -0.8592
    1MOL   O238  238   6.142   0.075   2.857  0.4617 -0.0505  0.0689
    1MOL   C239  239   6.199   0.190   2.910  0.6193  1.1348 -0.1901
    1MOL   C240  240   6.104   0.267   3.011 -0.0401  0.5103  0.2624
    1MOL   C241  241   6.154   0.391   3.072  0.1218 -0.1858 -0.6001
    1MOL   O242  242   6.283   0.377   3.128 -0.4415  0.6951  0.3343
    1MOL   C243  243   6.287   0.347   3.263  0.0012  0.3863 -0.7749
    1MOL   O244  244   6.251   0.448   3.352 -0.0391 -0.2706 -0.3352
    1MOL   C245  245   6.430   0.289   3.297  0.3690  0.8116  0.6520
    1MOL   O246  246   6.406   0.155   3.335 -0.1696 -0.1456  0.0329
    1MOL   H247  247   6.138   7.406   2.580 -0.8055  0.0714  0.9106
    1MOL   H248  248   6.247   7.412   2.713  2.3214  0.5571 -1.0359
    1MOL   H249  249   6.061   7.560   2.754 -0.8243  2.6941  1.8263
    1MOL   H250  250   6.150   7.669   2.512  1.3713  0.4453  1.3092
    1MOL   H251  251   6.277   7.635   2.846 -0.6485  1.2694  0.7111
    1MOL   H252  252   6.291   0.061   2.715  0.4265  0.4805  0.5903
    1MOL   H253  253   6.208   0.257   2.824  1.4295 -0.3204 -1.2598
    1MOL   H254  254   6.295   0.171   2.957  0.7161 -3.7985 -2.0738
    1MOL   H255  255   6.077   0.196   3.089  0.5062  0.1410  0.1175
    1MOL   H256  256   6.009   0.295   2.966 -1.0826 -1.5615  1.1038
    1MOL   H257  257   6.166   0.465   2.992 -1.0433  1.0092  0.3089
    1MOL   H258  258   6.083   0.421   3.149  0.6935  0.8079 -0.4477
    1MOL   H259  259   6.217   0.265   3.279  1.4296 -0.1974  2.9760
    1MOL   H260  260   6.204   0.401   3.419 -0.7721 -0.5616 -1.0520
    1MOL   H261  261   6.496   0.298   3.211  0.8605  0.7822  1.0245
    1MOL   H262  262   6.470   0.344   3.382  1.1516 -0.2153  0.9536
    1MOL   C263  263   6.526   0.088   3.348 -0.5544  0.3132 -0.3710
    1MOL   C264  264   6.510   7.642   3.403 -0.0515  0.7807 -0.3689
    1MOL   O265  265   6.449   7.553   3.302 -1.2243  0.3316  0.3153
    1MOL   C266  266   6.643   7.572   3.424  0.5861 -0.1810  0.3056
    1MOL   O267  267   6.641   7.479   3.531  0.4291  0.0508 -0.5067
    1MOL   C268  268   6.778   7.444   3.564 -0.4202 -0.3249 -0.0064
    1MOL   C269  269   6.769   7.362   3.691  0.5362 -0.2226 -0.8873
    1MOL   C270  270   6.900   7.284   3.711  0.8165  0.2036 -0.6677
    1MOL   O271  271   6.902   7.210   3.838 -0.2281  0.5943 -0.3387
    1MOL   C272  272   6.862   7.078   3.819 -0.6028 -0.1492 -0.1473
    1MOL   O273  273   6.960   7.005   3.745 -0.5691 -0.1169 -0.4631
    1MOL   C274  274   6.840   7.009   3.954 -0.5777  0.5375 -0.5286
    1MOL   O275  275   6.960   6.999   4.031  0.2546  0.4813 -0.3325
    1MOL   H276  276   6.586   0.146   3.417  0.8095 -1.1283 -0.3072
    1MOL   H277  277   6.583   0.084   3.255  2.0599 -0.4855  1.2091
    1MOL   H278  278   6.450   7.649   3.494  0.9851  0.8482  0.3225
    1MOL   H279  279   6.443   7.469   3.346 -0.1324  0.2386  0.3038
    1MOL   H280  280   6.700   7.524   3.345  1.2151  2.0479 -0.6218
    1MOL   H281  281   6.709   7.653   3.454  1.0335  0.4473 -2.2742
    1MOL   H282  282   6.833   7.533   3.596 -1.2196  0.3920 -0.6134
    1MOL   H283  283   6.826   7.392   3.482 -0.4374  0.1975 -0.3523
    1MOL   H284  284   6.680   7.302   3.673 -0.9009  2.0953 -1.8122
    1MOL   H285  285   6.751   7.419   3.782  0.6848  1.1033 -1.6735
    1MOL   H286  286   6.913   7.221   3.623  0.2335 -0.1558 -0.4997
    1MOL   H287  287   6.970   7.367   3.721 -0.2567  1.4108 -2.7653
    1MOL   H288  288   6.773   7.065   3.758 -0.6719 -0.6758  0.0636
    1MOL   H289  289   7.028   6.978   3.804  1.3907  2.8926 -1.2108
    1MOL   H290  290   6.762   7.064   4.006 -0.1215 -1.1943  2.0825
    1MOL   H291  291   6.791   6.915   3.927 -2.0592  1.0918  0.2045
    1MOL   C292  292   6.938   6.960   4.163  0.1520 -0.0456 -0.6283
    1MOL   C293  293   7.058   6.919   4.248  0.2303  0.0206 -0.4852
    1MOL   O294  294   7.008   6.879   4.376  0.2344 -0.1596 -0.2265
    1MOL   C295  295   7.133   6.803   4.185  0.0209 -0.4416  0.8153
    1MOL   O296  296   7.250   6.775   4.252 -0.5427  0.8579 -0.2767
    1MOL   C297  297   7.336   6.674   4.189  0.1064 -0.3078  0.1553
    1MOL   C298  298   7.447   6.627   4.282  0.2481  0.0238  0.2384
    1MOL   C299  299   7.522   6.504   4.221  0.3078  0.0576 -0.0796
    1MOL   O300  300   7.625   6.530   4.122  0.1906  0.5711 -0.5788
    1MOL   C301  301   7.651   6.412   4.048 -0.4899 -0.1408  0.2981
    1MOL   O302  302   7.569   6.408   3.934 -0.4808  0.6522  0.1209
    1MOL   C303  303   0.099   6.423   3.991 -0.2895 -0.1581  0.0164
    1MOL   O304  304   0.107   6.533   3.892 -0.1422  0.0182  0.0817
    1MOL   H305  305   6.879   7.033   4.219 -1.0819  0.5069 -2.5858
    1MOL   H306  306   6.874   6.873   4.155  1.6954 -1.1233 -1.4429
    1MOL   H307  307   7.114   7.009   4.276  2.0292 -0.9407 -0.9109
    1MOL   H308  308   7.083   6.851   4.427  0.1980  0.4340  0.1554
    1MOL   H309  309   7.080   6.709   4.165  0.2935 -0.4250 -0.0080
    1MOL   H310  310   7.153   6.838   4.084 -2.5591 -1.7307 -0.2012
    1MOL   H311  311   7.373   6.707   4.092  1.7048  0.3426  0.9634
    1MOL   H312  312   7.276   6.585   4.168 -0.7224  0.7809 -2.2080
    1MOL   H313  313   7.396   6.597   4.373 -3.0271 -0.3021 -1.6072
    1MOL   H314  314   7.509   6.710   4.314 -1.4029  1.3978 -0.0579
    1MOL   H315  315   7.584   6.457   4.297 -0.2728  0.2492  0.5092
    1MOL   H316  316   7.447   6.432   4.187  1.5978  0.1368 -3.3351
    1MOL   H317  317   7.631   6.317   4.099 -1.9452  0.6263  1.1862
    1MOL   H318  318   7.605   6.477   3.880 -0.0269 -0.0865 -0.5302
    1MOL   H319  319   0.129   6.327   3.947  0.9722  1.1478 -2.0441
    1MOL   H320  320   0.167   6.421   4.077  0.1386 -3.3006 -0.3175
    1MOL   C321  321   0.157   6.651   3.952  0.1416 -0.2830 -0.2072
    1MOL   C322  322   0.205   6.736   3.839 -0.7202  0.0562 -0.1134
    1MOL   O323  323   0.096   6.775   3.765  0.3099 -0.1230 -0.1142
    1MOL   C324  324   0.285   6.851   3.891 -0.2415  0.0104 -0.4097
    1MOL   O325  325   0.340   6.912   3.771 -0.2876  0.8861 -0.5215
    1MOL   C326  326   0.422   7.019   3.810  0.1237 -0.3204  0.8784
    1MOL   C327  327   0.456   7.094   3.678  0.3271 -0.0010 -0.6231
    1MOL   C328  328   0.324   7.150   3.617 -0.1263 -0.9979 -0.0969
    1MOL   O329  329   0.370   7.227   3.501  0.3848 -0.4828 -0.2021
    1MOL   C330  330   0.269   7.282   3.426  0.6713  0.6454  0.3818
    1MOL   O331  331   0.209   7.392   3.484  0.2485 -0.1786 -0.5989
    1MOL   C332  332   0.317   7.314   3.285  0.9039  0.4900  0.2972
    1MOL   O333  333   0.236   7.262   3.178  0.3617  0.2287 -0.8075
    1MOL   H334  334   0.236   6.624   4.022 -1.2884  0.0658  1.5918
    1MOL   H335  335   0.087   6.708   4.014 -0.2880  0.8893 -1.7458
    1MOL   H336  336   0.260   6.681   3.763  0.6635  1.7318 -0.3447
    1MOL   H337  337   0.035   6.709   3.795 -0.4273  1.9584  3.3834
    1MOL   H338  338   0.359   6.816   3.963  1.3893  1.8339 -1.1437
    1MOL   H339  339   0.225   6.925   3.944  0.2212 -0.3580  0.6429
    1MOL   H340  340   0.516   6.984   3.854  1.8982  3.2225  0.1270
    1MOL   H341  341   0.380   7.087   3.884 -0.2118  1.0013 -0.5130
    1MOL   H342  342   0.530   7.174   3.683 -0.7489  0.9531  0.5526
    1MOL   H343  343   0.500   7.026   3.606 -1.8090 -1.0500 -0.9939
    1MOL   H344  344   0.263   7.067   3.581 -1.6357  0.1936 -0.3584
    1MOL   H345  345   0.252   7.215   3.669 -1.5330 -0.6569 -2.3995
    1MOL   H346  346   0.187   7.212   3.410 -1.1587  2.8636 -0.2712
    1MOL   H347  347   0.141   7.423   3.425  1.1920 -2.6313 -3.0307
    1MOL   H348  348   0.310   7.421   3.267  0.6657  0.3558 -0.4125
    1MOL   H349  349   0.420   7.284   3.268  1.1937  2.2915 -1.3038
    1MOL   C350  350   0.262   7.129   3.154  0.3024  0.5483  0.6135
    1MOL   C351  351   0.181   7.076   3.034 -0.1219  0.3176 -0.4066
    1MOL   O352  352   0.269   7.080   2.930 -0.3246 -0.5087 -0.1963
    1MOL   C353  353   0.139   6.931   3.055  0.2520 -0.2889 -0.2108
    1MOL   O354  354   0.076   6.901   2.932 -0.9019 -0.4149  0.1980
    1MOL   C355  355   0.021   6.775   2.927  0.3562  0.1559 -0.3481
    1MOL   C356  356   0.086   6.722   2.798  0.1414 -0.0146 -0.0280
    1MOL   C357  357   0.231   6.679   2.823 -0.2615 -0.6310 -0.1186
    1MOL   O358  358   0.241   6.591   2.929  0.5790 -0.0608  0.1123
    1MOL   C359  359   0.367   6.569   2.983 -0.8876 -0.3675 -0.3111
    1MOL   O360  360   0.402   6.661   3.087 -0.2392 -0.1652 -0.0935
    1MOL   C361  361   0.365   6.423   3.046 -0.1453 -0.5372  0.6300
    1MOL   O362  362   0.249   6.413   3.125 -0.5852 -0.3100  0.5605
    1MOL   H363  363   0.246   7.072   3.246 -0.3466 -1.0466 -0.4661
    1MOL   H364  364   0.367   7.118   3.129 -0.3195 -0.3085 -1.7548
    1MOL   H365  365   0.099   7.146   3.016  1.5139  1.5458 -3.4593
    1MOL   H366  366   0.311   6.996   2.942 -1.2490 -0.9210  0.2285
    1MOL   H367  367   0.216   6.860   3.087 -0.6684 -1.4340 -0.4691
    1MOL   H368  368   0.065   6.927   3.134 -0.5454 -0.9228 -0.9720
    1MOL   H369  369   7.609   6.791   2.912  0.8700  2.6858 -1.5871
    1MOL   H370  370   0.045   6.719   3.018 -0.4113  1.6469  0.8032
    1MOL   H371  371   0.086   6.783   2.708  1.4836  2.7367  1.7324
    1MOL   H372  372   0.030   6.630   2.785  0.4934 -0.1721 -0.4296
    1MOL   H373  373   0.264   6.625   2.735 -0.6806 -0.1310 -0.5885
    1MOL   H374  374   0.292   6.767   2.845  1.6399 -1.6666 -1.0711
    1MOL   H375  375   0.444   6.562   2.906 -0.9637  0.0320 -0.4223
    1MOL   H376  376   0.336   6.659   3.155  1.8463 -1.0655  2.0102
    1MOL   H377  377   0.354   6.363   2.956  1.4464 -0.2150  0.2036
    1MOL   H378  378   0.456   6.394   3.098  2.0811  2.9496 -1.1334
    1MOL   C379  379   0.178   6.287   3.114  0.2510  0.2758  0.1451
    1MOL   C380  380   0.051   6.316   3.035  0.1870  0.3096 -0.4560
    1MOL   O381  381   0.087   6.351   2.903  0.2074 -0.3548  0.1038
    1MOL   C382  382   7.643   6.195   3.026 -0.1260  0.1869 -0.2135
    1MOL   O383  383   7.576   6.182   3.147  0.1752 -0.2638 -0.0289
    1MOL   C384  384   7.476   6.081   3.150 -0.0588  0.3187 -0.8965
    1MOL   C385  385   7.498   5.975   3.262 -0.0383 -0.6524 -0.1952
    1MOL   C386  386   7.391   5.870   3.254  0.0503 -0.6719 -0.4420
    1MOL   O387  387   7.413   5.783   3.366  0.3525 -0.6313 -0.4265
    1MOL   C388  388   7.354   5.652   3.351 -0.7880 -1.0813  0.3215
    1MOL   O389  389   7.414   5.580   3.243  0.0989  0.0681  0.2267
    1MOL   C390  390   7.362   5.565   3.478 -0.1840  0.0838  0.3897
    1MOL   O391  391   7.497   5.533   3.498  0.4904 -0.3984  0.0325
    1MOL   H392  392   0.133   6.261   3.210 -2.9146 -0.0198 -1.3331
    1MOL   H393  393   0.241   6.209   3.070 -0.5313  0.1252 -0.7368
    1MOL   H394  394   0.002   6.402   3.080 -2.7474 -0.5703 -1.8414
    1MOL   H395  395   0.109   6.442   2.894 -0.0713 -0.4091 -1.2035
    1MOL   H396  396   7.580   6.196   2.937  2.7192  1.5016 -2.3107
    1MOL   H397  397   7.690   6.100   3.001 -0.8451  0.3429 -2.2787
    1MOL   H398  398   7.471   6.022   3.059 -0.4149  2.5825 -2.3754
    1MOL   H399  399   7.381   6.134   3.163  0.1933  0.3417  1.0829
    1MOL   H400  400   7.490   6.026   3.358 -2.3529 -2.7634  0.7880
    1MOL   H401  401   7.593   5.922   3.259 -0.2837 -1.2094  1.3574
    1MOL   H402  402   7.289   5.909   3.261  0.1389 -0.4324 -0.4820
    1MOL   H403  403   7.395   5.816   3.160  0.2917  0.2001 -0.9395
    1MOL   H404  404   7.248   5.664   3.329 -0.5434 -1.2331 -0.9686
    1MOL   H405  405   7.488   5.531   3.276  0.8365  2.8726  2.9143
    1MOL   H406  406   7.311   5.619   3.559 -0.9162 -1.3939  0.9304
    1MOL   H407  407   7.303   5.475   3.463  1.8172 -1.5414  2.0931
    1MOL   C408  408   7.516   5.455   3.608 -0.3334 -0.3713 -0.3703
    1MOL   C409  409   7.524   5.311   3.579  0.8156  0.1923 -0.6184
    1MOL   O410  410   7.390   5.265   3.559 -0.4627 -0.0651 -0.3316
    1MOL   C411  411   7.577   5.223   3.697  0.7893 -0.3918  0.5041
    1MOL   O412  412   7.568   5.083   3.661  0.0224  0.3499  0.4082
    1MOL   C413  413   7.601   4.994   3.774 -0.1278 -0.4886 -0.2472
    1MOL   C414  414   7.643   4.860   3.708 -0.5772 -0.0006 -0.0860
    1MOL   C415  415   0.081   4.853   3.627 -0.3407  0.1655 -0.8711
    1MOL   O416  416   0.069   4.938   3.517  0.0434  0.2687  0.4145
    1MOL   C417  417   0.180   4.950   3.434  0.0877  0.6642  0.0854
    1MOL   O418  418   0.284   5.025   3.498 -0.4602 -0.3694  0.2930
    1MOL   C419  419   0.141   5.010   3.298  0.0407 -0.0748  0.0701
    1MOL   O420  420   0.109   5.149   3.316 -0.2990  0.1724 -0.2842
    1MOL   H421  421   7.447   5.483   3.688  0.4925  1.8212 -0.3747
    1MOL   H422  422   7.611   5.481   3.655 -0.6894 -1.7436  1.1685
    1MOL   H423  423   7.578   5.290   3.487  1.6267 -1.5291  0.2331
    1MOL   H424  424   7.387   5.170   3.562 -0.2506 -0.1335 -1.7649
    1MOL   H425  425   7.680   5.243   3.726  0.5935 -1.2822  1.9181
    1MOL   H426  426   7.508   5.237   3.781 -0.7781  1.0122 -0.9823
    1MOL   H427  427   7.689   5.018   3.833  0.2241 -0.3609 -0.8113
    1MOL   H428  428   7.518   4.974   3.841  0.2242  0.3471  0.4399
    1MOL   H429  429   7.558   4.812   3.660  1.7225 -1.7469 -2.5792
    1MOL   H430  430   7.649   4.795   3.796 -1.2597  0.4113  0.2641
    1MOL   H431  431   0.165   4.880   3.691  0.9690  0.3530 -2.6171
    1MOL   H432  432   0.096   4.748   3.603  0.5991  0.1040 -0.0598
    1MOL   H433  433   0.218   4.849   3.419  0.4496  0.7190  0.6116
    1MOL   H434  434   0.266   5.116   3.480 -3.8971 -1.7159 -4.0395
    1MOL   H435  435   0.223   4.988   3.230  0.1283  1.6121 -0.3960
    1MOL   H436  436   0.049   4.965   3.261  0.8929 -1.3502 -0.5383
    1MOL   C437  437   0.093   5.203   3.191 -0.3855  0.5654 -0.0153
    1MOL   C438  438   0.019   5.343   3.203  0.0761 -0.0852  0.1968
    1MOL   O439  439   7.585   5.324   3.252  0.3446 -0.9920 -0.2429
    1MOL   C440  440   0.032   5.422   3.071 -0.0874 -0.5800 -0.0859
    1MOL   O441  441   7.672   5.547   3.075 -0.1542 -0.1732  0.3467
    1MOL   C442  442   7.637   5.586   2.944 -0.2809  0.2824 -0.1400
    1MOL   C443  443   7.598   5.733   2.926  0.7945  0.6696 -0.6137
    1MOL   C444  444   7.573   5.771   2.773  0.6608  0.3052  0.6436
    1MOL   O445  445   7.537   5.911   2.759 -0.7401  0.1699  0.2450
    1MOL   C446  446   7.530   5.961   2.630  0.7979 -0.6368 -0.3889
    1MOL   O447  447   7.654   5.974   2.571 -0.6067  0.3785 -0.1685
    1MOL   C448  448   7.460   6.097   2.621  0.6178  0.1260  0.3814
    1MOL   O449  449   7.514   6.195   2.708 -0.1042 -0.6060 -0.5307
    1MOL   H450  450   0.196   5.217   3.160 -0.2872  1.5660  0.7404
    1MOL   H451  451   0.043   5.128   3.130 -0.0525 -0.1510  0.6002
    1MOL   H452  452   0.070   5.396   3.284  2.5175  0.6194 -1.7476
    1MOL   H453  453   7.535   5.267   3.196 -2.9228 -0.3027  1.8588
    1MOL   H454  454   0.138   5.428   3.048  0.0373  0.5373  0.7588
    1MOL   H455  455   7.679   5.357   2.996  0.6125  0.5096 -1.4853
    1MOL   H456  456   7.569   5.517   2.896 -0.1106 -0.5702  0.8284
    1MOL   H457  457   0.036   5.577   2.888  0.3702  0.0423  0.9706
    1MOL   H458  458   7.664   5.800   2.982  0.2999  0.9433 -0.3552
    1MOL   H459  459   7.497   5.740   2.967  1.1709 -1.5651  0.7566
    1MOL   H460  460   7.664   5.758   2.714  0.0564  1.5576 -0.6248
    1MOL   H461  461   7.499   5.702   2.732  2.2850 -1.7165  1.0096
    1MOL   H462  462   7.469   5.894   2.569 -0.1305  1.2620 -1.6408
    1MOL   H463  463   0.002   6.050   2.607  0.3800  0.8897 -2.2877
    1MOL   H464  464   7.475   6.130   2.518  3.7682  0.6179  0.9517
    1MOL   H465  465   7.351   6.086   2.625  0.4824  1.3857  0.1263
    1MOL   C466  466   7.442   6.322   2.709  0.3243 -0.1567 -0.7214
    1MOL   C467  467   7.483   6.410   2.595  0.2615 -0.0118 -0.0474
    1MOL   O468  468   7.397   6.381   2.482 -0.0596  0.3640  0.0582
    1MOL   C469  469   7.470   6.562   2.616 -0.0299  0.6164  0.1046
    1MOL   O470  470   7.538   6.630   2.509  0.1000  0.1196  0.4095
    1MOL   C471  471   7.528   6.774   2.512 -0.5346  0.0340  0.2428
    1MOL   C472  472   7.646   6.835   2.426  0.1169 -0.2772  0.0196
    1MOL   C473  473   7.619   6.851   2.279 -0.5087  0.2115  0.5505
    1MOL   O474  474   7.510   6.945   2.264 -0.2906  0.3316  0.4307
    1MOL   C475  475   7.488   6.988   2.133  0.4951 -0.0015 -0.0594
    1MOL   O476  476   7.398   7.106   2.136 -0.5395 -0.0446  1.1028
    1MOL   C477  477   7.431   6.878   2.040 -0.3845  0.3504  0.3204
    1MOL   O478  478   7.309   6.819   2.091  0.3186 -0.3338  0.3519
    1MOL   H479  479   7.477   6.360   2.805 -0.5808  1.4114 -0.9894
    1MOL   H480  480   7.335   6.302   2.718  0.6372 -0.5920  2.9915
    1MOL   H481  481   7.585   6.389   2.562 -0.1614 -0.3609 -1.1552
    1MOL   H482  482   7.443   6.426   2.414 -0.4156 -2.0395 -1.8165
    1MOL   H483  483   7.366   6.592   2.627 -0.3358 -0.6275  0.7200
    1MOL   H484  484   7.511   6.584   2.714 -2.2091 -2.5006  1.8168
    1MOL   H485  485   7.537   6.803   2.617  0.3102  0.7493 -0.0222
    1MOL   H486  486   7.433   6.806   2.470  1.0453 -0.3494 -3.7490
    1MOL   H487  487   0.044   6.780   2.441  2.1535  3.0863  0.0679
    1MOL   H488  488   7.669   6.935   2.462  2.6420 -0.8891  0.1631
    1MOL   H489  489   0.015   6.888   2.230 -0.8526 -0.5912 -0.7099
    1MOL   H490  490   7.589   6.752   2.245 -1.6243  0.1714  1.6074
    1MOL   H491  491   7.580   7.029   2.090 -0.0047 -1.3232 -2.5189
    1MOL   H492  492   7.357   7.112   2.051  0.4272  1.8799  0.7437
    1MOL   H493  493   7.411   6.931   1.947  1.1669  1.7675  0.7543
    1MOL   H494  494   7.509   6.808   2.010 -0.6234 -0.3076  1.2303
    1MOL   C495  495   7.265   6.701   2.032 -1.0711 -0.5540  0.1015
    1MOL   C496  496   7.149   6.665   2.117 -0.3999 -0.2345 -0.6927
    1MOL   O497  497   7.083   6.554   2.074 -0.1534  0.1026  0.3633
    1MOL   C498  498   7.180   6.643   2.270  0.2875 -0.0122 -0.1213
    1MOL   O499  499   7.095   6.718   2.356 -0.0595 -0.4300 -0.1758
    1MOL   C500  500   7.119   6.858   2.360 -0.3588 -0.5363 -0.2594
    1MOL   C501  501   6.977   6.930   2.373  0.6323  0.6125  0.1073
    1MOL   C502  502   6.989   7.081   2.338  0.3115 -0.5256 -0.4579
    1MOL   O503  503   6.869   7.130   2.277 -0.1689  0.8455 -0.8722
    1MOL   C504  504   6.876   7.258   2.221  0.9498 -0.3579  0.0819
    1MOL   O505  505   6.884   7.356   2.320 -0.4198 -0.5121  0.8166
    1MOL   C506  506   6.747   7.291   2.143  0.0630 -0.4735 -0.0889
    1MOL   O507  507   6.759   7.234   2.015  0.2711  0.2068  0.1505
    1MOL   H508  508   7.339   6.620   2.029 -0.0460  0.3951 -0.4297
    1MOL   H509  509   7.232   6.722   1.930 -0.3653  1.7507  0.3354
    1MOL   H510  510   7.079   6.749   2.113  0.9787  0.9132 -1.4488
    1MOL   H511  511   7.000   6.547   2.118  0.6516 -2.1881  1.5986
    1MOL   H512  512   7.175   6.536   2.290 -4.5018  0.3017  1.0620
    1MOL   H513  513   7.282   6.674   2.291  0.1631 -0.1808  0.7796
    1MOL   H514  514   7.173   6.898   2.274 -2.0918  1.1756 -0.5839
    1MOL   H515  515   7.187   6.876   2.443  1.2191  0.4009 -1.7118
    1MOL   H516  516   6.958   6.929   2.481  0.7684 -0.5799  0.1281
    1MOL   H517  517   6.902   6.880   2.312 -0.2374  1.4246  0.4925
    1MOL   H518  518   6.997   7.144   2.427 -0.4180 -1.4651  0.2851
    1MOL   H519  519   7.072   7.104   2.271  0.4123 -0.4826 -0.3172
    1MOL   H520  520   6.961   7.268   2.153  0.5267  1.8338 -0.1556
    1MOL   H521  521   6.798   7.368   2.359 -1.5663 -0.2450 -1.6948
    1MOL   H522  522   6.674   7.234   2.201 -0.3847 -1.2491 -1.3880
    1MOL   H523  523   6.713   7.394   2.132  3.3110  0.5674 -0.9421
    1MOL   C524  524   6.637   7.236   1.952  0.5226 -1.3836 -0.2648
    1MOL   C525  525   6.680   7.159   1.827 -0.4890  0.1216 -1.0826
    1MOL   O526  526   6.734   7.265   1.751 -0.0644  0.0677  0.0832
    1MOL   C527  527   6.543   7.122   1.756 -0.1615  0.0415 -0.1740
    1MOL   O528  528   6.579   7.007   1.692  0.4317 -0.6487  0.3056
    1MOL   C529  529   6.482   6.942   1.612 -0.6664  0.5521 -0.1707
    1MOL   C530  530   6.558   6.822   1.548 -0.0720 -1.0230  0.0133
    1MOL   C531  531   6.480   6.754   1.424 -0.3234  0.1169 -0.0492
    1MOL   O532  532   6.546   6.629   1.386 -0.2678 -0.1857  0.0575
    1MOL   C533  533   6.484   6.579   1.267 -0.2624  0.0638 -0.0485
    1MOL   O534  534   6.535   6.641   1.154 -0.0721 -0.4845 -0.5117
    1MOL   C535  535   6.514   6.427   1.255 -0.4164  0.2100 -0.0845
    1MOL   O536  536   6.421   6.347   1.321 -0.1154 -0.0205 -0.2834
    1MOL   H537  537   6.613   7.341   1.939  3.1352 -0.7283 -0.1369
    1MOL   H538  538   6.559   7.177   1.999  1.1994 -2.0061  0.0940
    1MOL   H539  539   6.753   7.080   1.842 -0.3020  0.9184  2.5859
    1MOL   H540  540   6.785   7.314   1.813  0.3521  1.2084 -1.1429
    1MOL   H541  541   6.457   7.094   1.817  0.1865  0.8727  0.7066
    1MOL   H542  542   6.499   7.196   1.688 -1.5721 -0.7379 -0.1291
    1MOL   H543  543   6.440   7.011   1.538 -0.6737  1.5353  0.7321
    1MOL   H544  544   6.393   6.905   1.663 -1.0743 -1.0290 -1.9685
    1MOL   H545  545   6.562   6.742   1.622 -0.3612 -0.0564  1.0815
    1MOL   H546  546   6.659   6.850   1.518 -0.7451  2.4242  0.8207
    1MOL   H547  547   6.374   6.741   1.449 -0.8258  1.7765 -1.2155
    1MOL   H548  548   6.482   6.829   1.345 -0.9191  0.8000  0.5844
    1MOL   H549  549   6.376   6.588   1.269 -0.4430 -1.5054 -1.6207
    1MOL   H550  550   6.495   6.604   1.076  0.9445  1.6947 -2.1097
    1MOL   H551  551   6.499   6.407   1.149 -0.7202 -0.1604  0.0247
    1MOL   H552  552   6.618   6.409   1.285 -0.6976 -0.1604  0.7042
    1MOL   C553  553   6.410   6.360   1.463  0.1553  0.4969 -0.0856
    1MOL   C554  554   6.347   6.222   1.514  0.4913  0.1781  0.2238
    1MOL   O555  555   6.268   6.249   1.625  0.0661  0.0271  0.5116
    1MOL   C556  556   6.442   6.101   1.550 -0.2587 -0.1139  0.4966
    1MOL   O557  557   6.373   5.977   1.536 -0.0681 -0.3468 -0.3606
    1MOL   C558  558   6.453   5.871   1.580 -0.3796 -0.1526 -0.4363
    1MOL   C559  559   6.366   5.753   1.527  0.6572 -0.1294  0.7260
    1MOL   C560  560   6.415   5.613   1.563  0.1524  0.3732 -0.3231
    1MOL   O561  561   6.496   5.575   1.455  0.0475 -0.3568  0.0615
    1MOL   C562  562   6.634   5.589   1.494  0.0060 -0.4979 -0.0284
    1MOL   O563  563   6.677   5.466   1.545 -0.1882  0.8963 -0.0123
    1MOL   C564  564   6.724   5.604   1.361  0.6789  0.4861 -0.0396
    1MOL   O565  565   6.685   5.513   1.266 -0.1517 -0.6972  0.1881
    1MOL   H566  566   6.333   6.432   1.490  0.7665  0.8344  0.7863
    1MOL   H567  567   6.504   6.394   1.507 -0.3316 -0.7891  2.0165
    1MOL   H568  568   6.279   6.196   1.433  1.2371  1.7355 -0.9250
    1MOL   H569  569   6.324   6.248   1.701  2.0794  2.2786 -0.8922
    1MOL   H570  570   6.530   6.097   1.487 -2.0508 -0.0935 -2.0955
    1MOL   H571  571   6.482   6.120   1.650 -0.3199  0.0037  0.4988
    1MOL   H572  572   6.552   5.873   1.534 -0.2060 -0.3244 -0.0675
    1MOL   H573  573   6.479   5.862   1.685 -2.1873 -3.0294 -0.2039
    1MOL   H574  574   6.350   5.771   1.421  0.1856 -0.2633  0.7733
    1MOL   H575  575   6.275   5.750   1.587  1.3894  1.4645  1.9272
    1MOL   H576  576   6.462   5.603   1.660 -0.7767 -0.1481  0.0771
    1MOL   H577  577   6.337   5.539   1.547 -1.1285  1.3992  1.1138
    1MOL   H578  578   6.653   5.667   1.569 -1.2084  0.2485 -0.4831
    1MOL   H579  579   6.680   5.409   1.470 -0.1863 -0.2476  0.8472
    1MOL   H580  580   6.718   5.706   1.323 -2.8080  0.8745  1.3581
    1MOL   H581  581   6.827   5.580   1.388 -0.2396 -1.5295  1.7785
    1MOL   H582  582   6.595   5.492   1.285 -0.8968  2.0083 -0.1495
    2MOL     C1  583   4.451   4.225   1.595 -0.4612  0.3977 -0.1962
    2MOL     C2  584   4.469   4.261   1.447 -0.6064  1.4206  0.3712
    2MOL     O3  585   4.424   4.391   1.408  0.2020 -0.2031 -0.1874
    2MOL     C4  586   4.617   4.242   1.402  0.0782  0.4218 -0.1067
    2MOL     O5  587   4.608   4.222   1.260 -0.2970 -0.2695  0.7906
    2MOL     C6  588   4.733   4.171   1.203 -0.6345  0.4782  0.3884
    2MOL     C7  589   4.719   4.173   1.047 -0.3229 -0.2273 -0.2068
    2MOL     C8  590   4.844   4.106   0.987  0.3910 -0.0375 -0.6363
    2MOL     O9  591   4.829   4.105   0.848 -0.2068 -0.3027  0.0362
    2MOL    C10  592   4.942   4.091   0.771 -0.3699  0.0572  0.4276
    2MOL    O11  593   5.036   4.201   0.786  0.2886  0.2257 -0.5359
    2MOL    C12  594   4.914   4.073   0.622  0.3063 -0.1716 -0.1611
    2MOL    O13  595   4.833   4.183   0.579  0.5163  0.6417 -0.0516
    2MOL    H14  596   4.506   4.291   1.662 -1.7134 -0.7860  2.0781
    2MOL    H15  597   4.476   4.120   1.606 -1.6799 -0.0253 -1.3435
    2MOL    H16  598   4.420   4.181   1.392 -0.9908  0.2219  2.3949
    2MOL    H17  599   4.428   4.388   1.314  0.2502 -0.3360 -0.1807
    2MOL    H18  600   4.681   4.320   1.441  1.3586 -1.6046  1.9761
    2MOL    H19  601   4.664   4.148   1.433  1.6233  1.7759  1.6981
    2MOL    H20  602   4.748   4.069   1.237  0.0722  0.4587  0.0125
    2MOL    H21  603   4.810   4.233   1.249  0.8144 -1.9844  1.3479
    2MOL    H22  604   4.706   4.278   1.024  2.2719  0.8699  2.9176
    2MOL    H23  605   4.630   4.119   1.016 -0.2042  0.3475 -1.5815
    2MOL    H24  606   4.930   4.160   1.026 -0.6559 -0.2832  2.1194
    2MOL    H25  607   4.857   4.000   1.010 -1.0787 -0.4360 -1.5645
    2MOL    H26  608   4.996   4.011   0.821  1.4548  0.9559 -0.0738
    2MOL    H27  609   4.987   4.280   0.773 -0.8561 -0.3011  0.4480
    2MOL    H28  610   5.007   4.055   0.567  1.1459  0.6599  0.9564
    2MOL    H29  611   4.861   3.979   0.608 -2.0951  1.1070  0.1797
    2MOL    H30  612   4.349   4.246   1.628 -0.2171 -0.0314  0.8623
    2MOL    C31  613   4.758   4.160   0.463  0.1488 -0.0087  0.1714
    2MOL    C32  614   4.669   4.282   0.441  0.2939 -0.0808  0.0821
    2MOL    O33  615   4.582   4.297   0.550 -0.4892 -0.1782  0.2240
    2MOL    C34  616   4.581   4.275   0.313 -0.5289 -0.1782 -0.2069
    2MOL    O35  617   4.618   4.383   0.231 -0.7659  0.3261  0.4559
    2MOL    C36  618   4.545   4.374   0.109 -0.2011 -1.3043 -0.2490
    2MOL    C37  619   4.539   4.517   0.046  0.2578  0.0459 -0.3835
    2MOL    C38  620   4.514   4.517   7.591  0.7818  0.0035 -0.2545
    2MOL    O39  621   4.452   4.640   7.554  0.4052 -0.6015 -0.3779
    2MOL    C40  622   4.392   4.638   7.430  0.3608 -0.1802  0.3682
    2MOL    O41  623   4.278   4.558   7.432 -0.1748  0.2335  0.1183
    2MOL    C42  624   4.491   4.580   7.327  0.7123 -0.6729 -0.5353
    2MOL    O43  625   4.460   4.646   7.207  0.5158  0.5825 -0.6455
    2MOL    H44  626   4.835   4.160   0.385 -1.1760 -0.2520 -1.1464
    2MOL    H45  627   4.709   4.063   0.467 -0.5572  0.3443  0.0629
    2MOL    H46  628   4.737   4.367   0.449  0.8841 -0.7462  2.8561
    2MOL    H47  629   4.647   4.294   0.618 -0.3223  3.5091  0.3042
    2MOL    H48  630   4.604   4.179   0.267 -0.1237 -0.1521 -0.0647
    2MOL    H49  631   4.475   4.285   0.334 -0.5506 -2.1678  0.6987
    2MOL    H50  632   4.442   4.342   0.119 -1.0411  1.3837  0.0700
    2MOL    H51  633   4.588   4.301   0.041  0.3003 -1.2344 -0.0145
    2MOL    H52  634   4.631   4.574   0.062  0.6449 -0.7551  0.2801
    2MOL    H53  635   4.450   4.564   0.088  1.3446  2.2092 -0.4142
    2MOL    H54  636   4.601   4.485   7.534  0.8571 -2.2869  1.0645
    2MOL    H55  637   4.443   4.436   7.576  2.2701 -1.2761 -0.4948
    2MOL    H56  638   4.367   4.740   7.400  2.3208 -0.3717 -2.1455
    2MOL    H57  639   4.202   4.601   7.468 -1.3051 -0.3609 -1.4609
    2MOL    H58  640   4.598   4.598   7.338  0.3927  0.1675  1.4781
    2MOL    H59  641   4.485   4.471   7.328 -0.0649 -0.6450 -1.6300
    2MOL    C60  642   4.440   4.573   7.088 -0.5421 -0.4599 -0.1245
    2MOL    C61  643   4.294   4.532   7.076  0.7416  0.7876 -0.5027
    2MOL    O62  644   4.265   4.441   6.967 -0.3528 -0.3902  0.4074
    2MOL    C63  645   4.194   4.645   7.071  0.7622 -0.0053 -0.1993
    2MOL    O64  646   4.234   4.709   6.955 -0.2618 -0.1200  0.4250
    2MOL    C65  647   4.168   4.831   6.944 -0.0830 -0.4830 -0.4670
    2MOL    C66  648   4.211   4.886   6.805 -0.0236  0.3336 -0.6576
    2MOL    C67  649   4.162   5.031   6.799 -0.0629  0.3409 -0.0944
    2MOL    O68  650   4.164   5.071   6.658 -0.1173 -0.0830  0.0958
    2MOL    C69  651   4.108   5.184   6.626  0.2423 -0.0604 -0.4396
    2MOL    O70  652   4.178   5.291   6.678  0.1427 -0.1402 -0.1420
    2MOL    C71  653   4.125   5.200   6.469 -0.2437 -0.6205  0.5717
    2MOL    O72  654   4.013   5.135   6.415  0.5638  0.3711  0.2294
    2MOL    H73  655   4.507   4.487   7.078  0.8372  0.5341  0.3677
    2MOL    H74  656   4.479   4.638   7.009 -0.0409  2.3726  2.3680
    2MOL    H75  657   4.277   4.475   7.168  0.9326 -2.1706 -2.2420
    2MOL    H76  658   4.283   4.492   6.890 -1.2619 -2.3211 -1.1321
    2MOL    H77  659   4.096   4.599   7.058  1.0407 -0.7399  0.3048
    2MOL    H78  660   4.187   4.712   7.157  0.8226 -0.2870  0.0234
    2MOL    H79  661   4.204   4.898   7.022  2.5895 -0.0659 -1.9653
    2MOL    H80  662   4.062   4.807   6.947  0.0127 -1.1752 -1.9389
    2MOL    H81  663   4.169   4.831   6.721 -0.7092  0.9244 -0.7023
    2MOL    H82  664   4.317   4.893   6.782 -0.2794  1.5587 -1.5278
    2MOL    H83  665   4.232   5.095   6.854  1.7596  0.7648 -2.8264
    2MOL    H84  666   4.062   5.042   6.842 -1.2509  1.2438 -2.9700
    2MOL    H85  667   4.008   5.196   6.666  0.7475  1.2719  0.4625
    2MOL    H86  668   4.264   5.291   6.639  0.4170 -0.2985  0.4682
    2MOL    H87  669   4.116   5.305   6.443 -1.8568 -0.4350  1.8006
    2MOL    H88  670   4.219   5.152   6.442  0.1504  0.7037 -0.4694
    2MOL    C89  671   4.020   4.994   6.416  0.1541  0.7581  0.3189
    2MOL    C90  672   3.892   4.942   6.346  0.1132  0.7026 -0.3777
    2MOL    O91  673   3.899   4.985   6.214 -1.0066 -0.1825  0.4094
    2MOL    C92  674   3.881   4.788   6.369  0.2193 -0.7175  0.3288
    2MOL    O93  675   3.749   4.737   6.362  0.1181  0.4294  0.8125
    2MOL    C94  676   3.732   4.625   6.275 -0.4590 -0.3773 -0.3069
    2MOL    C95  677   3.731   4.490   6.346 -0.3342  0.1295 -0.6907
    2MOL    C96  678   3.749   4.364   6.258 -0.0905  0.2625  0.1322
    2MOL    O97  679   3.746   4.247   6.336  0.4023 -0.0869 -0.0484
    2MOL    C98  680   3.793   4.140   6.263 -0.5174 -0.1112  0.6891
    2MOL    O99  681   3.933   4.120   6.277  0.0271  0.6095 -0.1774
    2MOL   C100  682   3.711   4.016   6.304 -0.5789 -0.1376  0.9199
    2MOL   O101  683   3.701   3.998   6.444 -0.8206 -0.0228 -0.4338
    2MOL   H102  684   4.018   4.950   6.516 -3.4630 -1.0801 -0.5025
    2MOL   H103  685   4.111   4.958   6.367  0.2217  0.2905  0.7818
    2MOL   H104  686   3.807   4.986   6.399  0.3911 -2.4295  2.8177
    2MOL   H105  687   3.924   5.075   6.222 -2.5794  0.4943 -1.8202
    2MOL   H106  688   3.945   4.739   6.295 -3.1451 -2.2914 -1.6252
    2MOL   H107  689   3.909   4.764   6.471 -2.7491 -1.2644  1.0324
    2MOL   H108  690   3.814   4.615   6.204 -0.0085  1.5101 -0.0893
    2MOL   H109  691   3.634   4.627   6.229 -1.8756  1.9743  2.6042
    2MOL   H110  692   3.644   4.474   6.410  0.6026 -1.4851  0.2147
    2MOL   H111  693   3.819   4.478   6.409  0.2708  0.5114 -1.4466
    2MOL   H112  694   3.675   4.357   6.179 -1.0088 -0.8220  1.0758
    2MOL   H113  695   3.846   4.370   6.208  0.2972 -0.0994  0.8308
    2MOL   H114  696   3.793   4.157   6.155  2.0788  1.0524  0.8479
    2MOL   H115  697   3.946   4.062   6.351  1.0674 -1.5571 -1.9723
    2MOL   H116  698   3.611   4.025   6.260 -1.1897  1.2216  2.5124
    2MOL   H117  699   3.739   3.931   6.242 -1.1954  0.9836 -0.9664
    2MOL   C118  700   3.599   3.898   6.477  0.1222 -0.0405 -0.1775
    2MOL   C119  701   3.670   3.758   6.465  0.3943 -0.8672  0.1507
    2MOL   O120  702   3.692   3.698   6.339  0.0978 -0.5351 -0.2724
    2MOL   C121  703   3.616   3.645   6.556  0.5766  1.0789 -1.0248
    2MOL   O122  704   3.688   3.524   6.547  0.0370  1.2910  0.6554
    2MOL   C123  705   3.677   3.441   6.661 -0.3214 -0.2704 -0.4437
    2MOL   C124  706   3.727   3.295   6.627 -0.3679 -0.3103 -0.2658
    2MOL   C125  707   3.678   3.193   6.730  0.2535 -0.2529  0.0246
    2MOL   O126  708   3.731   3.068   6.692 -0.1797  0.4472  0.2782
    2MOL   C127  709   3.681   2.962   6.760  0.3377  0.4716 -0.0924
    2MOL   O128  710   3.725   2.965   6.891 -0.1705  0.4471  0.0270
    2MOL   C129  711   3.723   2.825   6.693 -0.0715 -0.8091  0.1941
    2MOL   O130  712   3.637   2.789   6.593 -0.0681 -0.1149 -0.1752
    2MOL   H131  713   3.584   3.922   6.582 -1.1916 -1.5853  0.0001
    2MOL   H132  714   3.501   3.900   6.430 -0.3767  2.6224  0.8825
    2MOL   H133  715   3.767   3.778   6.511 -0.4985 -0.6202  1.9964
    2MOL   H134  716   3.696   3.608   6.366  0.6193 -0.3230  0.3611
    2MOL   H135  717   3.613   3.676   6.660  1.3892 -0.4762 -0.5211
    2MOL   H136  718   3.511   3.622   6.540  0.7328 -0.2309 -0.2222
    2MOL   H137  719   3.573   3.440   6.692  0.4194  1.3559  2.2737
    2MOL   H138  720   3.738   3.468   6.747 -2.3869  1.1048  0.6062
    2MOL   H139  721   3.835   3.289   6.624 -0.1613  1.1778  2.5914
    2MOL   H140  722   3.699   3.260   6.528  1.3842 -1.0288 -0.5129
    2MOL   H141  723   3.707   3.221   6.831  0.7256  0.6930 -0.3574
    2MOL   H142  724   3.570   3.187   6.721  0.4931 -1.2994 -2.7240
    2MOL   H143  725   3.572   2.961   6.759  0.3481  0.2525 -0.9723
    2MOL   H144  726   3.647   2.959   6.943 -0.0375 -1.0400  0.0762
    2MOL   H145  727   3.830   2.817   6.675  0.0418 -0.2696  0.6050
    2MOL   H146  728   3.709   2.751   6.771  2.1091 -1.5171 -0.0698
    2MOL   C147  729   3.678   2.816   6.456 -0.1069 -0.5253 -0.1032
    2MOL   C148  730   3.636   2.963   6.422 -0.0143 -0.0724 -0.3813
    2MOL   O149  731   3.493   2.971   6.446  0.2317  0.1927 -0.0642
    2MOL   C150  732   3.667   3.007   6.276  0.4862  0.5635  0.1646
    2MOL   O151  733   3.798   3.040   6.246 -0.2726 -0.2313 -0.6959
    2MOL   C152  734   3.827   3.042   6.109 -0.0771 -0.1437  0.6066
    2MOL   C153  735   3.934   3.147   6.074  0.0907  0.3091  0.0744
    2MOL   C154  736   3.874   3.290   6.102  0.5655 -0.6474  0.4732
    2MOL   O155  737   3.816   3.344   5.979 -0.3605 -0.0022 -0.3347
    2MOL   C156  738   3.817   3.485   5.981 -0.1068 -0.0899  0.5170
    2MOL   O157  739   3.728   3.542   6.070 -0.5312  0.1456  0.2596
    2MOL   C158  740   3.777   3.538   5.839 -0.3500 -0.3697 -0.4708
    2MOL   O159  741   3.892   3.512   5.752 -0.0668  0.5947 -0.2626
    2MOL   H160  742   3.643   2.738   6.390  1.8004 -1.0859 -0.5013
    2MOL   H161  743   3.787   2.809   6.453 -0.0338  1.0350 -1.6772
    2MOL   H162  744   3.694   3.035   6.480  0.4734  0.5151 -1.5716
    2MOL   H163  745   3.480   2.933   6.531  1.0324  0.6723  0.2836
    2MOL   H164  746   3.630   2.932   6.207 -1.4925  1.0972  0.5830
    2MOL   H165  747   3.621   3.101   6.245  0.0454 -0.1400 -1.3390
    2MOL   H166  748   3.746   3.076   6.046 -0.5471  0.2465  1.4131
    2MOL   H167  749   3.866   2.941   6.096 -0.7104 -0.6111  2.2209
    2MOL   H168  750   3.953   3.134   5.968  2.2980  1.6224  0.2761
    2MOL   H169  751   4.028   3.122   6.123 -0.0059  0.8259  0.5340
    2MOL   H170  752   3.799   3.288   6.181 -1.4910 -0.1231 -1.4220
    2MOL   H171  753   3.965   3.337   6.138  1.8220 -2.5048 -0.2227
    2MOL   H172  754   3.917   3.519   6.005  0.5742 -0.9760 -1.0074
    2MOL   H173  755   3.642   3.538   6.031  0.3721  0.4442 -1.8312
    2MOL   H174  756   3.687   3.486   5.808 -0.1843 -1.9146  1.5827
    2MOL   H175  757   3.759   3.645   5.848  0.7867 -0.3552  1.8961
    2MOL   C176  758   3.878   3.561   5.616  0.4042 -0.2414  0.0433
    2MOL   C177  759   4.018   3.571   5.552  0.3844 -0.5439 -0.1302
    2MOL   O178  760   4.004   3.643   5.431  0.5436 -0.3450  0.4366
    2MOL   C179  761   4.094   3.440   5.530  0.1014  0.9824 -0.2269
    2MOL   O180  762   4.222   3.463   5.475  0.6478  0.0603  0.3920
    2MOL   C181  763   4.312   3.349   5.469 -0.0365 -0.1664  0.4066
    2MOL   C182  764   4.444   3.397   5.422 -0.5909 -1.1235 -0.7204
    2MOL   C183  765   4.517   3.487   5.523  0.4565  0.7942 -0.8978
    2MOL   O184  766   4.601   3.581   5.453  0.1266 -0.0130 -0.4657
    2MOL   C185  767   4.646   3.686   5.530 -0.1392  0.0500 -0.7814
    2MOL   O186  768   4.562   3.796   5.508  0.2383 -0.6478  0.0022
    2MOL   C187  769   4.791   3.728   5.491 -0.5102 -0.1627 -0.6645
    2MOL   O188  770   4.885   3.662   5.570 -0.2376 -0.2036 -0.0008
    2MOL   H189  771   3.838   3.663   5.623 -0.4970 -0.5222 -0.8755
    2MOL   H190  772   3.813   3.494   5.559  0.1837  0.1378 -0.1592
    2MOL   H191  773   4.077   3.627   5.624 -0.6112  0.4093 -0.0400
    2MOL   H192  774   4.000   3.732   5.461  0.5403 -1.4810  4.1255
    2MOL   H193  775   4.113   3.392   5.626 -3.0087  1.4262  0.6667
    2MOL   H194  776   4.030   3.363   5.488  0.9202  0.9629 -1.4701
    2MOL   H195  777   4.271   3.275   5.400 -2.6083  0.7515  0.9100
    2MOL   H196  778   4.324   3.303   5.567  1.3464 -1.9308 -0.5467
    2MOL   H197  779   4.445   3.457   5.331  1.3146  0.1513  0.0996
    2MOL   H198  780   4.516   3.317   5.408  0.0738 -0.7804  0.6118
    2MOL   H199  781   4.445   3.542   5.585  0.0475 -0.0744 -0.5879
    2MOL   H200  782   4.572   3.424   5.592 -2.6609 -0.9431  0.1085
    2MOL   H201  783   4.629   3.663   5.635  0.1710 -0.0042 -0.7430
    2MOL   H202  784   4.567   3.829   5.419  0.5699 -1.3531 -0.2498
    2MOL   H203  785   4.821   3.711   5.388  0.2200 -0.6442 -0.3761
    2MOL   H204  786   4.822   3.829   5.515  0.5060  0.1312 -3.1067
    2MOL   C205  787   4.912   3.530   5.532 -0.2843  0.4359 -0.2863
    2MOL   C206  788   4.993   3.470   5.646 -0.0360  0.0449 -0.2240
    2MOL   O207  789   5.117   3.538   5.659  0.2184 -0.2393  0.3237
    2MOL   C208  790   4.928   3.489   5.779  0.9297 -0.3567 -0.0410
    2MOL   O209  791   4.798   3.417   5.778  0.4190 -0.2219 -0.4448
    2MOL   C210  792   4.820   3.284   5.830 -0.3479 -0.0165  0.3121
    2MOL   C211  793   4.698   3.203   5.796  0.7107 -0.4392 -0.2782
    2MOL   C212  794   4.668   3.152   5.651 -0.5079  0.5419 -0.4037
    2MOL   O213  795   4.603   3.022   5.644 -0.5355  0.5657  0.2567
    2MOL   C214  796   4.673   2.928   5.559  0.9971  0.1067 -0.2829
    2MOL   O215  797   4.653   2.969   5.425  0.1738  0.1462  0.3864
    2MOL   C216  798   4.612   2.785   5.579  0.5072 -0.3918  0.1813
    2MOL   O217  799   4.715   2.701   5.626 -1.0539 -0.6342 -0.1324
    2MOL   H218  800   4.972   3.508   5.443  0.6877 -1.0763  0.7301
    2MOL   H219  801   4.822   3.479   5.497 -1.7368  2.3818  0.4940
    2MOL   H220  802   5.017   3.368   5.618 -0.5572 -0.1948  0.1828
    2MOL   H221  803   5.103   3.630   5.675  1.3241 -0.2502  1.4016
    2MOL   H222  804   4.993   3.432   5.846  0.5613 -0.2069  0.4459
    2MOL   H223  805   4.913   3.593   5.810 -1.2081 -0.7905  0.4479
    2MOL   H224  806   4.848   3.293   5.935  0.1943 -0.7573  0.2313
    2MOL   H225  807   4.903   3.244   5.773 -2.2406 -1.3340 -1.6014
    2MOL   H226  808   4.621   3.263   5.845 -1.1864 -0.7143 -2.8430
    2MOL   H227  809   4.704   3.107   5.849  0.1625 -1.0646 -1.3423
    2MOL   H228  810   4.605   3.216   5.591 -1.8474  0.3078  0.7216
    2MOL   H229  811   4.766   3.150   5.604 -1.0347  0.6260 -1.5263
    2MOL   H230  812   4.781   2.920   5.576  1.1483  0.6948 -0.9211
    2MOL   H231  813   4.662   2.890   5.375 -0.8278  1.4495 -1.9410
    2MOL   H232  814   4.528   2.786   5.649  0.8633 -0.3662  0.6095
    2MOL   H233  815   4.578   2.759   5.479 -0.4182 -0.3732  0.4915
    2MOL   C234  816   4.656   2.577   5.669 -0.7831  0.9291  0.4720
    2MOL   C235  817   4.758   2.481   5.732 -0.7464  0.6268  0.4228
    2MOL   O236  818   4.838   2.397   5.650  0.1393 -0.0730  0.5765
    2MOL   C237  819   4.679   2.376   5.825 -0.0168 -1.2764 -0.0556
    2MOL   O238  820   4.588   2.314   5.745 -0.1413 -0.1977  0.1829
    2MOL   C239  821   4.504   2.232   5.815  0.0965  0.7221 -0.0160
    2MOL   C240  822   4.415   2.180   5.705  0.7348  0.7027 -0.6828
    2MOL   C241  823   4.288   2.105   5.761 -0.2265 -0.2041 -0.5570
    2MOL   O242  824   4.204   2.203   5.829  0.3310  0.2581 -0.0694
    2MOL   C243  825   4.088   2.147   5.878  0.8412 -0.1755  0.0427
    2MOL   O244  826   3.983   2.127   5.778 -0.4338 -0.2816  0.7070
    2MOL   C245  827   4.016   2.241   5.971 -0.3267 -0.3419 -0.3130
    2MOL   O246  828   3.875   2.199   5.985  0.2107  0.2109 -0.1033
    2MOL   H247  829   4.577   2.609   5.736 -0.6201  1.2341  0.5205
    2MOL   H248  830   4.613   2.525   5.583 -0.8362 -1.2176  1.7450
    2MOL   H249  831   4.829   2.539   5.791 -1.6306  2.2764 -0.0922
    2MOL   H250  832   4.792   2.354   5.580  0.6380  1.3924 -0.6850
    2MOL   H251  833   4.749   2.304   5.868  1.4399  0.5825  0.7367
    2MOL   H252  834   4.632   2.429   5.908 -0.2850  0.4917 -1.3204
    2MOL   H253  835   4.454   2.289   5.892 -1.6271 -1.7945  0.7974
    2MOL   H254  836   4.560   2.147   5.855  0.4998  1.1007  0.2339
    2MOL   H255  837   4.485   2.123   5.644  1.4101  1.1543 -0.3339
    2MOL   H256  838   4.377   2.263   5.645 -0.1740 -0.3791 -1.6281
    2MOL   H257  839   4.222   2.054   5.690 -2.2795  0.6844  0.6736
    2MOL   H258  840   4.319   2.023   5.826 -3.0802  0.0579  1.2337
    2MOL   H259  841   4.117   2.058   5.933  1.2106  0.2468  0.5376
    2MOL   H260  842   3.902   2.167   5.805 -1.0379  0.0932 -1.5973
    2MOL   H261  843   4.062   2.247   6.069 -0.4605 -0.8918 -0.2164
    2MOL   H262  844   4.020   2.341   5.929  0.0947 -0.3995 -0.4139
    2MOL   C263  845   3.784   2.302   6.035 -0.5984 -0.4468 -0.4519
    2MOL   C264  846   3.725   2.363   5.910  0.2757  0.5411 -0.6934
    2MOL   O265  847   3.638   2.269   5.848 -0.0642 -0.7826  0.2905
    2MOL   C266  848   3.651   2.489   5.937 -0.0324  0.0889 -0.0738
    2MOL   O267  849   3.655   2.577   5.827  1.3689 -1.0015  0.0807
    2MOL   C268  850   3.648   2.714   5.871  0.1017 -0.1751 -0.6300
    2MOL   C269  851   3.503   2.772   5.850 -0.0176  0.1744  0.0724
    2MOL   C270  852   3.501   2.922   5.885 -0.7532 -1.1084  0.0175
    2MOL   O271  853   3.618   2.994   5.839 -0.3623  0.1666 -0.2384
    2MOL   C272  854   3.594   3.126   5.798 -0.2324  0.2816  0.1622
    2MOL   O273  855   3.583   3.220   5.903 -0.0856 -0.4769  0.1469
    2MOL   C274  856   3.693   3.159   5.692 -0.3885  0.1764  0.5179
    2MOL   O275  857   3.823   3.125   5.746 -0.1842  0.4493  0.1551
    2MOL   H276  858   3.847   2.377   6.083 -0.6708  0.7591 -2.1832
    2MOL   H277  859   3.706   2.271   6.104  0.0318 -0.3426  0.3162
    2MOL   H278  860   3.805   2.397   5.844 -0.0639  1.3904 -0.6714
    2MOL   H279  861   3.605   2.325   5.779 -2.0032 -0.0241  1.7851
    2MOL   H280  862   3.547   2.475   5.963 -0.6372  0.6804 -2.0659
    2MOL   H281  863   3.698   2.544   6.019 -0.8186 -0.2105  0.5745
    2MOL   H282  864   3.698   2.771   5.792 -0.8087  1.7262  0.1302
    2MOL   H283  865   3.698   2.738   5.965 -1.1854 -0.2580  0.0939
    2MOL   H284  866   3.425   2.724   5.909 -0.6360  0.2253 -0.6937
    2MOL   H285  867   3.473   2.768   5.746 -0.2357 -2.7080  0.2067
    2MOL   H286  868   3.409   2.975   5.859  0.6157  1.6188  0.5906
    2MOL   H287  869   3.494   2.930   5.993 -0.6567 -1.1590  0.0281
    2MOL   H288  870   3.498   3.122   5.747  0.1579 -3.7301 -0.4372
    2MOL   H289  871   3.670   3.252   5.921  0.1636 -1.4838  0.7687
    2MOL   H290  872   3.665   3.107   5.600  0.9966 -0.4777  0.4546
    2MOL   H291  873   3.691   3.266   5.670 -0.7163 -0.0009 -0.3422
    2MOL   C292  874   3.906   3.075   5.640 -0.2538 -0.9350  0.0504
    2MOL   C293  875   4.017   2.980   5.705  0.1488  0.6868  0.3949
    2MOL   O294  876   3.963   2.870   5.777  0.2195 -0.2063 -0.3953
    2MOL   C295  877   4.121   2.928   5.606  0.1027 -0.4312  0.4272
    2MOL   O296  878   4.207   3.028   5.546 -0.0656  0.5710 -0.1458
    2MOL   C297  879   4.317   2.980   5.470 -0.0605 -0.6717  0.8364
    2MOL   C298  880   4.261   2.966   5.326  0.2871  0.8721  0.8873
    2MOL   C299  881   4.367   2.936   5.219  0.2861 -0.2331  0.0050
    2MOL   O300  882   4.316   2.976   5.095 -0.1609  0.5625 -0.6763
    2MOL   C301  883   4.268   2.871   5.004 -0.1972  0.0527  0.4814
    2MOL   O302  884   4.159   2.797   5.056 -0.7805 -0.3020  0.2326
    2MOL   C303  885   4.216   2.934   4.874 -0.3674 -0.1885 -0.1436
    2MOL   O304  886   4.328   2.979   4.795  0.7295 -0.5432 -0.4040
    2MOL   H305  887   3.847   3.017   5.569  0.0159 -0.2205 -0.7763
    2MOL   H306  888   3.936   3.163   5.584 -3.5122 -0.1052 -0.4787
    2MOL   H307  889   4.075   3.032   5.781  2.9971  0.0495 -1.2814
    2MOL   H308  890   3.869   2.881   5.780  0.3131  0.2285  1.4657
    2MOL   H309  891   4.190   2.858   5.654  2.2370  1.9160  0.8598
    2MOL   H310  892   4.072   2.859   5.538  2.3301 -0.5710 -1.0884
    2MOL   H311  893   4.348   2.884   5.512  0.1832 -0.9480  0.0417
    2MOL   H312  894   4.400   3.051   5.473 -1.9719  1.7910 -1.8755
    2MOL   H313  895   4.221   3.064   5.301 -0.2606 -0.2891 -2.9824
    2MOL   H314  896   4.176   2.900   5.315  0.3640  0.5982  1.8922
    2MOL   H315  897   4.455   2.997   5.239 -0.5696  1.3474 -0.9055
    2MOL   H316  898   4.400   2.832   5.224 -0.7329 -0.5635  0.0073
    2MOL   H317  899   4.353   2.808   4.976  0.1140  1.1097 -1.0453
    2MOL   H318  900   4.202   2.745   5.122 -0.0427  0.9026  0.7240
    2MOL   H319  901   4.154   3.017   4.906 -1.2033 -0.9104  0.1493
    2MOL   H320  902   4.150   2.859   4.829 -1.0849  0.1195  0.4026
    2MOL   C321  903   4.294   3.105   4.738 -0.1859 -0.2957  0.3399
    2MOL   C322  904   4.416   3.160   4.660  0.8814 -0.6218 -0.2681
    2MOL   O323  905   4.409   3.118   4.526 -0.1199 -0.5269  0.2571
    2MOL   C324  906   4.411   3.315   4.657 -0.2982 -0.1720 -0.5552
    2MOL   O325  907   4.378   3.367   4.787 -0.1797  0.3341  0.3319
    2MOL   C326  908   4.382   3.506   4.805 -0.2761  0.5773 -0.0786
    2MOL   C327  909   4.366   3.534   4.953 -0.6338  0.0379  0.0833
    2MOL   C328  910   4.330   3.685   4.970 -0.0424 -0.0121  0.0558
    2MOL   O329  911   4.353   3.722   5.102  0.0668 -0.5593  0.1635
    2MOL   C330  912   4.242   3.729   5.189 -0.9479  0.1661  0.4236
    2MOL   O331  913   4.171   3.608   5.192  0.2347 -0.0830 -0.8363
    2MOL   C332  914   4.305   3.755   5.332 -0.5069  0.5458  0.0933
    2MOL   O333  915   4.208   3.817   5.414  0.5836  0.2567  1.1583
    2MOL   H334  916   4.271   3.168   4.824 -1.1929  0.7617 -0.6917
    2MOL   H335  917   4.203   3.107   4.678  2.1992  1.0851 -3.3737
    2MOL   H336  918   4.507   3.124   4.709 -0.1048 -1.5290  0.9429
    2MOL   H337  919   4.400   3.024   4.525  0.5334 -0.6027  1.4866
    2MOL   H338  920   4.333   3.362   4.597  1.1542  1.4830 -1.1851
    2MOL   H339  921   4.508   3.351   4.626  0.0282 -1.6040 -1.2668
    2MOL   H340  922   4.297   3.543   4.748 -3.2110 -1.6838  2.6350
    2MOL   H341  923   4.474   3.555   4.773  0.6778 -1.2612 -0.2235
    2MOL   H342  924   4.283   3.471   4.985  0.6516 -0.6193  2.1552
    2MOL   H343  925   4.444   3.492   5.015 -0.1595 -1.7895 -1.6870
    2MOL   H344  926   4.383   3.754   4.905  0.2776  0.2676  0.6108
    2MOL   H345  927   4.226   3.700   4.940  0.1012  1.2056  0.1836
    2MOL   H346  928   4.170   3.806   5.161 -1.7818 -0.9092 -0.4312
    2MOL   H347  929   4.136   3.599   5.279  3.0208  2.4733  0.6126
    2MOL   H348  930   4.343   3.664   5.377 -2.4214  1.1626  3.1493
    2MOL   H349  931   4.386   3.823   5.307  0.5595 -0.0055  2.0052
    2MOL   C350  932   4.259   3.873   5.538  0.5208  0.9811  0.5919
    2MOL   C351  933   4.140   3.942   5.624 -0.1059 -0.1727 -0.3643
    2MOL   O352  934   4.049   3.856   5.677 -0.0153 -0.1225  0.6254
    2MOL   C353  935   4.200   4.011   5.748  0.8460 -0.6701 -0.3884
    2MOL   O354  936   4.112   4.109   5.791 -0.1722 -0.5739 -0.4118
    2MOL   C355  937   4.108   4.116   5.935 -0.0350  0.5238  0.4738
    2MOL   C356  938   4.037   4.250   5.959 -0.7304 -0.0419  0.0327
    2MOL   C357  939   3.894   4.258   5.904  0.1059  0.5579 -0.3696
    2MOL   O358  940   3.845   4.389   5.933  0.0328 -0.7937  0.5289
    2MOL   C359  941   3.717   4.413   5.877 -0.0051  0.8475 -0.1858
    2MOL   O360  942   3.616   4.353   5.954 -0.2616 -0.5075  0.1900
    2MOL   C361  943   3.695   4.565   5.884 -0.3702  0.6695 -0.3841
    2MOL   O362  944   3.674   4.617   5.753  0.3057  0.8082 -0.0008
    2MOL   H363  945   4.325   3.957   5.516 -1.2076  2.3110  0.2720
    2MOL   H364  946   4.302   3.786   5.586 -0.5179 -0.7661 -1.5693
    2MOL   H365  947   4.094   4.016   5.558 -0.6458 -0.1300  0.0589
    2MOL   H366  948   4.007   3.913   5.739 -0.1082  1.4145 -0.8274
    2MOL   H367  949   4.222   3.933   5.822 -0.6745  1.9024  2.9023
    2MOL   H368  950   4.293   4.066   5.731  0.5265 -0.2673 -0.8261
    2MOL   H369  951   4.206   4.111   5.982 -0.1214  3.0182  1.0167
    2MOL   H370  952   4.037   4.042   5.972 -0.9090  1.8242  1.4252
    2MOL   H371  953   4.085   4.334   5.910 -0.6118 -1.2856 -2.0500
    2MOL   H372  954   4.025   4.257   6.067 -0.8069 -1.6453  0.1482
    2MOL   H373  955   3.902   4.250   5.796 -0.3618 -1.1907 -0.2815
    2MOL   H374  956   3.822   4.184   5.939 -1.7041  0.8896 -3.3035
    2MOL   H375  957   3.709   4.377   5.774 -2.4572 -1.1363  0.6398
    2MOL   H376  958   3.530   4.388   5.934 -1.0805 -3.6227 -2.2363
    2MOL   H377  959   3.609   4.599   5.942  0.0450 -0.3653  0.8663
    2MOL   H378  960   3.776   4.611   5.941  0.0037  0.1078 -0.4687
    2MOL   C379  961   3.653   4.758   5.755 -0.4659  0.5063 -0.1088
    2MOL   C380  962   3.674   4.809   5.616  0.2244 -0.6470  0.3609
    2MOL   O381  963   3.569   4.739   5.542 -0.4695 -0.3977  0.5305
    2MOL   C382  964   3.655   4.963   5.622  1.2350 -0.5093  0.9768
    2MOL   O383  965   3.770   5.036   5.592 -0.0017  0.3096 -0.6775
    2MOL   C384  966   3.856   5.053   5.702 -0.4323  0.0814 -0.2822
    2MOL   C385  967   3.970   5.144   5.665 -0.7205  0.6728 -0.4604
    2MOL   C386  968   4.026   5.201   5.793 -0.0716 -0.2954 -0.8539
    2MOL   O387  969   4.093   5.108   5.876  0.2004  0.1889 -0.6139
    2MOL   C388  970   4.158   5.168   5.988 -0.3074  0.5527  0.3403
    2MOL   O389  971   4.056   5.221   6.071  0.2427  0.1262 -0.2836
    2MOL   C390  972   4.221   5.056   6.064  0.1521 -0.5504  0.2952
    2MOL   O391  973   4.357   5.042   6.039 -0.0418 -0.0148 -0.1124
    2MOL   H392  974   3.721   4.808   5.824 -1.8982 -0.9378  2.4293
    2MOL   H393  975   3.553   4.779   5.792 -1.1477  1.5887 -2.4740
    2MOL   H394  976   3.774   4.790   5.576  0.5291  0.0141  0.7947
    2MOL   H395  977   3.565   4.649   5.572  0.8691 -1.4458 -2.3190
    2MOL   H396  978   3.596   4.991   5.534 -0.7307  0.1064  2.4663
    2MOL   H397  979   3.593   5.000   5.703  0.3856  2.0574 -0.7689
    2MOL   H398  980   3.894   4.957   5.738 -0.8003  0.7126  1.8330
    2MOL   H399  981   3.792   5.088   5.783  1.7477  0.5936  1.2680
    2MOL   H400  982   3.938   5.234   5.611 -1.5734  0.0189 -1.0640
    2MOL   H401  983   4.053   5.098   5.612 -0.8405  1.5430 -1.4449
    2MOL   H402  984   4.093   5.285   5.774 -1.8043  1.2701 -0.2095
    2MOL   H403  985   3.952   5.256   5.852 -0.4225 -2.3767  0.7152
    2MOL   H404  986   4.230   5.241   5.951  0.7435 -1.3705 -1.4853
    2MOL   H405  987   4.044   5.310   6.040 -2.7281 -0.2046 -0.1917
    2MOL   H406  988   4.214   5.070   6.172  0.6582 -0.8091  0.3615
    2MOL   H407  989   4.170   4.962   6.046 -2.7585  1.0022  0.1438
    2MOL   C408  990   4.396   4.983   5.927 -0.0884 -0.0217 -0.1843
    2MOL   C409  991   4.538   5.017   5.896  0.2453  0.0980 -0.0655
    2MOL   O410  992   4.542   5.144   5.840  0.3210  0.1036  0.8365
    2MOL   C411  993   4.593   4.917   5.788 -0.0147  0.6088 -0.3120
    2MOL   O412  994   4.735   4.925   5.797 -0.2462 -0.5920  0.0010
    2MOL   C413  995   4.810   4.836   5.714 -0.8272 -0.6358 -0.0284
    2MOL   C414  996   4.798   4.693   5.756 -0.2094  0.1169 -0.4537
    2MOL   C415  997   4.884   4.605   5.663 -0.4256  0.3441 -0.1664
    2MOL   O416  998   4.852   4.469   5.694  1.0330 -0.2773  0.1199
    2MOL   C417  999   4.851   4.386   5.586 -0.2869  0.1892 -0.0495
    2MOL   O418 1000   4.737   4.402   5.502  0.1924 -0.0124  0.1838
    2MOL   C419 1001   4.848   4.243   5.634 -0.1564  0.1221  0.7489
    2MOL   O420 1002   4.967   4.183   5.570 -0.3097 -0.2058  0.1886
    2MOL   H421 1003   4.330   4.997   5.841 -2.9431  1.1288  2.0896
    2MOL   H422 1004   4.391   4.877   5.949 -2.2575  0.8384  3.8822
    2MOL   H423 1005   4.599   4.999   5.985 -0.5102  1.8654  0.8323
    2MOL   H424 1006   4.617   5.154   5.783  0.5541  1.0834  1.3032
    2MOL   H425 1007   4.568   4.815   5.816  1.7012  0.5657  1.0801
    2MOL   H426 1008   4.564   4.937   5.684  0.3761  0.5435 -0.4349
    2MOL   H427 1009   4.790   4.854   5.608  1.4234 -0.8281 -0.5106
    2MOL   H428 1010   4.912   4.870   5.728 -1.3052  1.0977 -0.6012
    2MOL   H429 1011   4.692   4.670   5.747 -0.2301  1.0429 -2.8321
    2MOL   H430 1012   4.820   4.690   5.863  0.8397  1.1273 -0.6357
    2MOL   H431 1013   4.872   4.635   5.559 -1.1772  0.6165 -0.0054
    2MOL   H432 1014   4.989   4.620   5.687  0.0586 -2.9213 -0.0621
    2MOL   H433 1015   4.933   4.412   5.518 -1.8716  2.3823 -1.1594
    2MOL   H434 1016   4.769   4.376   5.417  0.9503 -0.8741  0.7277
    2MOL   H435 1017   4.879   4.242   5.738 -0.9149 -1.4514  0.9595
    2MOL   H436 1018   4.749   4.198   5.623 -0.1279  0.3056 -0.3112
    2MOL   C437 1019   4.972   4.050   5.602 -0.7472  0.0232  0.0405
    2MOL   C438 1020   5.121   4.012   5.585  0.2823  0.4105 -0.2066
    2MOL   O439 1021   5.160   4.031   5.452  0.0785  0.2889 -0.0976
    2MOL   C440 1022   5.135   3.865   5.629 -0.6186  0.2797 -0.4743
    2MOL   O441 1023   5.058   3.821   5.744  0.1848 -0.2073  0.0222
    2MOL   C442 1024   5.118   3.857   5.870 -0.4635  0.5197 -0.2572
    2MOL   C443 1025   5.228   3.763   5.906 -0.0267  0.6146  0.2322
    2MOL   C444 1026   5.310   3.827   6.023  0.2480  0.7245 -0.0715
    2MOL   O445 1027   5.396   3.909   5.947  0.3219  0.8332  0.0717
    2MOL   C446 1028   5.510   3.950   6.020 -0.2405  0.1448 -0.3181
    2MOL   O447 1029   5.463   4.040   6.115  0.1007 -0.1629 -0.1238
    2MOL   C448 1030   5.613   4.013   5.923  0.2494 -0.6119 -1.2183
    2MOL   O449 1031   5.654   3.915   5.834 -0.6616  0.2838 -0.3818
    2MOL   H450 1032   4.950   4.020   5.704  1.5613  0.9502  0.8318
    2MOL   H451 1033   4.903   4.002   5.531 -2.2795 -0.3177  1.7264
    2MOL   H452 1034   5.188   4.065   5.652  0.1976  2.6205 -1.8240
    2MOL   H453 1035   5.118   4.109   5.419 -1.1634 -0.5722 -0.5832
    2MOL   H454 1036   5.111   3.797   5.548  0.4492  0.4302 -0.9356
    2MOL   H455 1037   5.240   3.837   5.639 -1.0513 -1.3109 -0.3056
    2MOL   H456 1038   5.042   3.844   5.947 -1.5195 -0.5229 -1.4624
    2MOL   H457 1039   5.144   3.963   5.860 -0.8244  0.8563  2.0715
    2MOL   H458 1040   5.296   3.751   5.821 -0.0444 -0.9319  0.4266
    2MOL   H459 1041   5.189   3.670   5.947 -0.4696  0.3000 -0.9020
    2MOL   H460 1042   5.242   3.894   6.075 -1.2562 -2.1296  1.7100
    2MOL   H461 1043   5.352   3.757   6.095 -2.9284 -0.8613  0.3213
    2MOL   H462 1044   5.557   3.870   6.076 -1.4671 -0.6400 -0.3915
    2MOL   H463 1045   5.421   4.105   6.061  0.9279 -1.4261 -2.3183
    2MOL   H464 1046   5.580   4.107   5.879 -1.0713 -0.7522 -0.5357
    2MOL   H465 1047   5.692   4.050   5.989  0.1595  1.0673 -2.0403
    2MOL   C466 1048   5.768   3.948   5.758  0.2560  0.5110 -0.9563
    2MOL   C467 1049   5.780   3.859   5.631  1.2649  0.5421  0.8517
    2MOL   O468 1050   5.842   3.732   5.664  0.2726 -0.0315  0.5321
    2MOL   C469 1051   5.645   3.839   5.562  0.2679 -0.6896 -0.3109
    2MOL   O470 1052   5.613   3.957   5.487 -0.5761  0.0071  0.1869
    2MOL   C471 1053   5.496   3.944   5.420 -0.5722  0.0970 -0.5028
    2MOL   C472 1054   5.450   4.077   5.358  0.3892  0.3718  0.2556
    2MOL   C473 1055   5.426   4.189   5.462 -0.0673 -0.3064  0.0164
    2MOL   O474 1056   5.370   4.292   5.390 -0.0126 -0.0444  0.1653
    2MOL   C475 1057   5.350   4.420   5.457  0.5393 -0.6882  0.4511
    2MOL   O476 1058   5.474   4.467   5.501  0.2975  0.1858 -0.3660
    2MOL   C477 1059   5.251   4.418   5.576 -0.3713  0.0986 -0.8147
    2MOL   O478 1060   5.302   4.335   5.682 -0.1702  0.4197 -0.0448
    2MOL   H479 1061   5.848   3.935   5.832 -1.6978  2.5156  1.6066
    2MOL   H480 1062   5.773   4.054   5.733  0.2991  0.4435 -1.2402
    2MOL   H481 1063   5.855   3.911   5.572  0.5795  0.6096  0.0181
    2MOL   H482 1064   5.772   3.677   5.695  1.1397 -0.7940  1.1631
    2MOL   H483 1065   5.653   3.748   5.503 -0.7505 -0.7550 -0.3666
    2MOL   H484 1066   5.564   3.817   5.632  1.6587  2.0781  2.2843
    2MOL   H485 1067   5.408   3.910   5.475 -1.5175  1.7918 -0.9072
    2MOL   H486 1068   5.516   3.868   5.345 -0.0731  0.9784 -1.2787
    2MOL   H487 1069   5.357   4.069   5.301  0.2810 -0.9103  0.6099
    2MOL   H488 1070   5.523   4.108   5.282  1.1213 -1.6436  0.0932
    2MOL   H489 1071   5.358   4.162   5.543  1.1195  0.2242  1.2012
    2MOL   H490 1072   5.520   4.223   5.506 -0.1783  2.1384 -1.5220
    2MOL   H491 1073   5.306   4.493   5.390  0.6975 -0.1458  0.9274
    2MOL   H492 1074   5.484   4.431   5.588 -0.5055  1.9533  0.5085
    2MOL   H493 1075   5.233   4.520   5.610 -2.7242 -0.2708 -0.9307
    2MOL   H494 1076   5.154   4.379   5.548  0.0225 -2.8580  1.7594
    2MOL   C495 1077   5.205   4.334   5.788 -0.0500  0.3138  0.7489
    2MOL   C496 1078   5.259   4.259   5.914  0.3028 -0.0080 -0.1310
    2MOL   O497 1079   5.356   4.343   5.980  0.3255 -0.0142 -0.0843
    2MOL   C498 1080   5.141   4.239   6.008  1.0850  0.1673 -0.4221
    2MOL   O499 1081   5.036   4.152   5.975  0.5104 -0.0711 -0.2072
    2MOL   C500 1082   4.927   4.171   6.061 -0.2037 -0.1430 -0.0554
    2MOL   C501 1083   4.875   4.038   6.108  0.2596 -0.4541  0.3188
    2MOL   C502 1084   4.789   3.976   5.990  0.2076  0.0223 -0.4731
    2MOL   O503 1085   4.758   3.851   6.035 -0.4896 -0.9672  0.1054
    2MOL   C504 1086   4.708   3.765   5.933 -0.0152  0.1060 -0.0943
    2MOL   O505 1087   4.581   3.810   5.887 -0.1444  0.5085  1.0550
    2MOL   C506 1088   4.686   3.628   5.996 -0.1708  0.4226 -0.2925
    2MOL   O507 1089   4.581   3.630   6.096  0.1272 -0.1381  0.2356
    2MOL   H508 1090   5.113   4.290   5.749  0.0015  1.2337 -0.4536
    2MOL   H509 1091   5.177   4.438   5.805 -1.0857  0.4630 -1.5797
    2MOL   H510 1092   5.307   4.166   5.882 -0.8934 -0.5402 -0.4226
    2MOL   H511 1093   5.303   4.414   6.014 -0.1600  0.7094 -2.2634
    2MOL   H512 1094   5.178   4.212   6.107  0.5194  0.8043 -0.0337
    2MOL   H513 1095   5.084   4.332   6.005  1.5430  0.4184 -1.5289
    2MOL   H514 1096   4.849   4.229   6.010 -0.8397 -0.9992 -0.0728
    2MOL   H515 1097   4.961   4.225   6.149 -0.1983  0.1417 -0.2289
    2MOL   H516 1098   4.807   4.049   6.193 -1.1248 -0.7431 -0.7447
    2MOL   H517 1099   4.951   3.966   6.137  1.8422  1.0852  0.0905
    2MOL   H518 1100   4.706   4.044   5.971  0.2297  0.2241  0.1394
    2MOL   H519 1101   4.850   3.979   5.900 -1.9604  4.6325 -1.9535
    2MOL   H520 1102   4.772   3.750   5.846  0.8814 -0.3580  0.6303
    2MOL   H521 1103   4.521   3.776   5.953 -0.2348 -1.1128  0.1616
    2MOL   H522 1104   4.669   3.561   5.911  0.6455 -0.9026  0.5782
    2MOL   H523 1105   4.780   3.591   6.036 -1.3601 -2.3302  0.1480
    2MOL   C524 1106   4.576   3.504   6.165  0.8044  0.1115  0.4554
    2MOL   C525 1107   4.451   3.497   6.253 -0.3208 -0.3837  0.1300
    2MOL   O526 1108   4.474   3.559   6.377 -0.2435 -0.6576  0.5509
    2MOL   C527 1109   4.408   3.349   6.281  0.0555  0.0680  0.4802
    2MOL   O528 1110   4.277   3.355   6.334  0.3544  0.3384  0.1910
    2MOL   C529 1111   4.231   3.219   6.367 -0.0012  0.3938  0.3383
    2MOL   C530 1112   4.093   3.225   6.439  0.4365  0.5009 -0.3830
    2MOL   C531 1113   4.050   3.096   6.508  0.1056  0.2980  0.3908
    2MOL   O532 1114   4.139   3.090   6.616 -0.6388 -0.5050  0.0671
    2MOL   C533 1115   4.116   2.989   6.706  0.2247  0.4716  0.7717
    2MOL   O534 1116   4.145   2.860   6.661 -0.3375  0.3238  0.2030
    2MOL   C535 1117   4.192   3.016   6.838  0.0548  0.0744  0.1988
    2MOL   O536 1118   4.335   3.015   6.817 -0.3051  0.2291 -0.2081
    2MOL   H537 1119   4.663   3.486   6.228  1.2526  4.0848  1.1572
    2MOL   H538 1120   4.570   3.422   6.094  1.7326  0.5653 -0.1536
    2MOL   H539 1121   4.368   3.549   6.206  0.9910  0.6239 -1.1056
    2MOL   H540 1122   4.405   3.517   6.426 -1.6085 -0.8411 -1.4354
    2MOL   H541 1123   4.416   3.277   6.200 -2.5568 -0.7952  0.9424
    2MOL   H542 1124   4.468   3.313   6.364  0.8169  0.4792  0.1132
    2MOL   H543 1125   4.299   3.175   6.440  1.1775  2.5577  0.5610
    2MOL   H544 1126   4.236   3.155   6.278 -0.9106  0.6487  0.0910
    2MOL   H545 1127   4.018   3.234   6.361 -1.3903 -1.4620  1.1001
    2MOL   H546 1128   4.093   3.307   6.510 -0.6495 -1.0072  1.4090
    2MOL   H547 1129   3.946   3.098   6.540 -0.0110  1.1247 -0.0212
    2MOL   H548 1130   4.054   3.006   6.446  1.9514  0.2073  0.6277
    2MOL   H549 1131   4.010   2.984   6.731  0.0935  0.4005  0.2130
    2MOL   H550 1132   4.239   2.868   6.662 -0.1026 -1.9816 -0.2594
    2MOL   H551 1133   4.158   3.113   6.876  2.3790  0.6679  0.8570
    2MOL   H552 1134   4.171   2.943   6.916 -0.5961  1.8286  1.7074
    2MOL   C553 1135   4.425   3.020   6.934  0.2478 -0.0040  0.0867
    2MOL   C554 1136   4.568   3.040   6.878 -0.9646  0.4486  0.3961
    2MOL   O555 1137   4.610   2.913   6.838 -0.0111  0.6164 -0.1456
    2MOL   C556 1138   4.674   3.073   6.971 -0.2947 -0.2769 -0.5343
    2MOL   O557 1139   4.669   2.980   7.079  0.4446  0.3798  0.8441
    2MOL   C558 1140   4.769   3.016   7.174 -0.0084  0.0513  0.4597
    2MOL   C559 1141   4.776   2.909   7.290  0.2433 -0.0440  0.2579
    2MOL   C560 1142   4.879   2.949   7.394  0.3745  0.1607 -0.5525
    2MOL   O561 1143   4.875   2.851   7.503 -0.1164  0.0979 -0.3378
    2MOL   C562 1144   4.967   2.867   7.607  0.2584  0.0075 -0.4886
    2MOL   O563 1145   4.946   2.990   7.670 -0.1918  0.1537 -0.0193
    2MOL   C564 1146   4.945   2.748   0.014 -0.8328 -0.7072 -0.7991
    2MOL   O565 1147   4.996   2.788   0.141 -0.2230 -0.0399 -0.0436
    2MOL   H566 1148   4.428   2.926   6.990  1.5278 -0.5397 -0.8558
    2MOL   H567 1149   4.401   3.104   6.999 -0.6877  1.2134 -1.8107
    2MOL   H568 1150   4.567   3.113   6.798  0.3828  1.6929  1.4852
    2MOL   H569 1151   4.624   2.874   6.923  0.6985 -1.2651 -1.1048
    2MOL   H570 1152   4.768   3.089   6.919  0.3313 -0.3491  0.5527
    2MOL   H571 1153   4.636   3.169   7.006 -0.0198  0.6791 -2.7920
    2MOL   H572 1154   4.864   3.018   7.121 -0.5810  1.5785 -0.5415
    2MOL   H573 1155   4.753   3.114   7.219 -2.7111 -0.2445  0.1886
    2MOL   H574 1156   4.792   2.811   7.246  0.4292  0.2141 -0.2564
    2MOL   H575 1157   4.674   2.898   7.327 -0.6547  0.3074 -2.0451
    2MOL   H576 1158   4.976   2.947   7.344  2.2436  1.7029  2.8380
    2MOL   H577 1159   4.863   3.049   7.435  1.3566  0.3307 -0.5605
    2MOL   H578 1160   5.064   2.857   7.557  1.2337 -0.3893  1.4352
    2MOL   H579 1161   4.973   2.980   0.066  2.0998  0.1443 -0.6997
    2MOL   H580 1162   4.836   2.741   0.023 -1.0079  2.1429 -0.2332
    2MOL   H581 1163   4.982   2.650   7.679 -2.0448 -2.0960  2.1520
    2MOL   H582 1164   4.958   2.729   0.204 -0.9981  0.2052 -0.2686
    3MOL     C1 1165   3.799   6.012   6.587 -0.1126 -0.9986  0.0721
    3MOL     C2 1166   3.712   6.022   6.458 -0.6444  0.1097  0.0637
    3MOL     O3 1167   3.776   5.967   6.344  0.4043  0.0741  0.8327
    3MOL     C4 1168   3.572   5.957   6.481  0.0679  0.1334 -0.4663
    3MOL     O5 1169   3.479   6.026   6.399  0.5105 -0.5767 -0.0520
    3MOL     C6 1170   3.348   5.965   6.390  0.2846  0.1901 -0.2594
    3MOL     C7 1171   3.251   6.072   6.327 -0.4306 -0.1944  0.3228
    3MOL     C8 1172   3.258   6.212   6.399 -0.2882 -0.6938  0.1023
    3MOL     O9 1173   3.174   6.296   6.319 -0.1673  0.1579 -0.4160
    3MOL    C10 1174   3.148   6.426   6.369  0.2168 -0.1891 -0.3037
    3MOL    O11 1175   3.072   6.434   6.482 -0.1003  0.0887  0.5488
    3MOL    C12 1176   3.078   6.512   6.262 -1.1168 -0.1609 -0.0352
    3MOL    O13 1177   2.979   6.435   6.209 -0.9152  0.7456  0.1286
    3MOL    H14 1178   3.899   6.049   6.567 -0.8413  0.0471 -1.7089
    3MOL    H15 1179   3.796   5.907   6.617 -0.9110 -1.1327 -0.4628
    3MOL    H16 1180   3.703   6.128   6.437 -2.6687 -0.2751 -1.1792
    3MOL    H17 1181   3.841   6.031   6.321  3.1014 -1.4127  3.9580
    3MOL    H18 1182   3.573   5.851   6.459  0.3397  0.1627 -0.5974
    3MOL    H19 1183   3.532   5.972   6.581 -0.2796  2.9642 -0.9583
    3MOL    H20 1184   3.320   5.927   6.488  0.0716  1.1725  0.0594
    3MOL    H21 1185   3.339   5.885   6.315 -2.2300  0.9547 -0.8256
    3MOL    H22 1186   3.147   6.042   6.328 -0.3468 -0.5716 -0.7397
    3MOL    H23 1187   3.282   6.086   6.223 -1.8964 -1.6723 -0.3215
    3MOL    H24 1188   3.224   6.196   6.501  1.0091  0.8384  0.7870
    3MOL    H25 1189   3.357   6.257   6.402 -0.6807  0.2715 -0.9758
    3MOL    H26 1190   3.243   6.474   6.391  1.5915 -3.2339  0.7279
    3MOL    H27 1191   3.129   6.450   6.556  0.9359 -3.3745  0.5847
    3MOL    H28 1192   3.041   6.601   6.312  0.9974  0.1712  1.0094
    3MOL    H29 1193   3.148   6.546   6.186  0.6238 -0.3735  1.4245
    3MOL    H30 1194   3.742   6.063   6.665 -1.7680 -1.5467 -0.7664
    3MOL    C31 1195   2.902   6.497   6.111  0.4759 -1.0370  0.1647
    3MOL    C32 1196   2.972   6.510   5.966  0.7085  0.1680 -0.0214
    3MOL    O33 1197   3.036   6.637   5.956 -0.6531 -0.0337 -0.4705
    3MOL    C34 1198   2.883   6.488   5.839  0.1294  0.3049 -0.4139
    3MOL    O35 1199   2.747   6.539   5.841  0.8409  0.5409 -0.7334
    3MOL    C36 1200   2.686   6.471   5.730  1.1279 -0.0385 -0.5283
    3MOL    C37 1201   2.538   6.523   5.738 -0.0551 -0.5480 -0.5303
    3MOL    C38 1202   2.432   6.454   5.650 -0.9161 -0.2019  0.2821
    3MOL    O39 1203   2.453   6.304   5.661  0.0951  0.3182  1.2961
    3MOL    C40 1204   2.413   6.232   5.548  0.1447  0.4415  0.2253
    3MOL    O41 1205   2.272   6.246   5.527 -0.0276  0.0285  0.2732
    3MOL    C42 1206   2.443   6.084   5.571  0.3727  0.1227 -0.3938
    3MOL    O43 1207   2.401   6.049   5.702  0.1931  0.1210 -0.2689
    3MOL    H44 1208   2.805   6.450   6.098 -0.9724  1.6710  0.7443
    3MOL    H45 1209   2.887   6.598   6.150 -0.7688 -0.7094 -1.1014
    3MOL    H46 1210   3.059   6.445   5.959  0.3541 -0.2255 -0.9042
    3MOL    H47 1211   2.968   6.699   5.934  0.8618  1.3038 -1.4767
    3MOL    H48 1212   2.942   6.521   5.754 -0.4791  0.1372 -0.9018
    3MOL    H49 1213   2.876   6.379   5.839  1.4530  0.1995  0.6607
    3MOL    H50 1214   2.689   6.362   5.732  1.8967 -0.0066  1.5052
    3MOL    H51 1215   2.726   6.492   5.631 -0.5607  1.7574 -0.8387
    3MOL    H52 1216   2.533   6.627   5.706 -0.0557 -0.4088 -0.0713
    3MOL    H53 1217   2.508   6.509   5.841 -0.0996  2.5599 -0.0830
    3MOL    H54 1218   2.336   6.502   5.670  0.4547  2.1607  1.5028
    3MOL    H55 1219   2.470   6.473   5.549 -0.3900 -0.2395  0.4744
    3MOL    H56 1220   2.456   6.272   5.455 -0.8201  0.5499 -0.1777
    3MOL    H57 1221   2.229   6.169   5.561  0.9844 -0.4302  0.5073
    3MOL    H58 1222   2.403   6.024   5.490  0.2753 -1.0959  0.5537
    3MOL    H59 1223   2.551   6.073   5.564  0.4249 -0.0255  0.6365
    3MOL    C60 1224   2.401   5.906   5.704  0.1152  0.3632  0.1519
    3MOL    C61 1225   2.358   5.881   5.851 -0.4080 -0.4506 -0.0330
    3MOL    O62 1226   2.476   5.894   5.927 -0.1299  0.1797 -0.4486
    3MOL    C63 1227   2.306   5.744   5.878 -0.5815 -0.5286 -0.2402
    3MOL    O64 1228   2.233   5.753   6.001  0.1346 -0.2825  0.1750
    3MOL    C65 1229   2.209   5.628   6.062  0.4455  0.4566  0.0042
    3MOL    C66 1230   2.078   5.570   6.006  0.1924 -0.1985  0.2452
    3MOL    C67 1231   2.050   5.433   6.071  0.5831  0.2878  0.6854
    3MOL    O68 1232   1.936   5.371   6.007  0.4191 -0.5891  0.2609
    3MOL    C69 1233   1.908   5.244   6.052  0.1114  0.2613 -0.5664
    3MOL    O70 1234   1.823   5.252   6.166 -0.0928  0.2403 -0.3693
    3MOL    C71 1235   1.836   5.178   5.935  0.0356 -0.0774  0.0015
    3MOL    O72 1236   1.858   5.043   5.930  0.2684  0.4981  0.2868
    3MOL    H73 1237   2.498   5.859   5.687 -0.1915  0.4020 -1.8549
    3MOL    H74 1238   2.333   5.869   5.626 -1.2676  2.7425  0.1854
    3MOL    H75 1239   2.288   5.954   5.892  0.1607 -0.9202  1.8577
    3MOL    H76 1240   2.483   5.988   5.930  0.6624  0.2367 -2.8657
    3MOL    H77 1241   2.239   5.699   5.804 -0.4168  0.0956 -0.7777
    3MOL    H78 1242   2.392   5.678   5.886 -0.6848 -0.5640  0.5496
    3MOL    H79 1243   2.214   5.638   6.170  0.2605  0.1455  0.0425
    3MOL    H80 1244   2.295   5.564   6.044  0.8102  1.2015 -0.9355
    3MOL    H81 1245   2.086   5.546   5.900 -2.0128 -0.6775  0.1754
    3MOL    H82 1246   1.996   5.638   6.027 -1.1687 -2.0822  1.1549
    3MOL    H83 1247   2.034   5.443   6.178  0.8076  0.7100  0.6804
    3MOL    H84 1248   2.137   5.369   6.056 -0.9139 -1.4993 -0.5578
    3MOL    H85 1249   2.000   5.190   6.075 -0.0934  0.2115  0.1540
    3MOL    H86 1250   1.754   5.314   6.149  0.5872  0.8090 -1.1215
    3MOL    H87 1251   1.728   5.188   5.950 -0.2052 -0.5684 -1.2698
    3MOL    H88 1252   1.871   5.224   5.842 -2.5511  0.1723 -0.8909
    3MOL    C89 1253   1.816   4.988   5.811 -0.6051 -0.0538  0.1771
    3MOL    C90 1254   1.852   4.835   5.823  0.1080 -0.2167 -0.1419
    3MOL    O91 1255   1.768   4.775   5.920  0.2024  0.2651 -0.3097
    3MOL    C92 1256   1.843   4.750   5.697 -0.6296  0.8059 -0.5740
    3MOL    O93 1257   1.971   4.695   5.667 -0.3470 -0.5263 -0.7788
    3MOL    C94 1258   1.960   4.610   5.560  0.7493 -0.1169  0.8656
    3MOL    C95 1259   2.095   4.596   5.492 -0.2172  0.1936 -0.8122
    3MOL    C96 1260   2.196   4.517   5.582  0.4456  0.5268 -0.3660
    3MOL    O97 1261   2.306   4.472   5.510 -0.3636  0.0133 -0.2171
    3MOL    C98 1262   2.412   4.412   5.581  0.1915  0.7893  0.2127
    3MOL    O99 1263   2.479   4.491   5.672  0.5112 -0.5701 -0.1804
    3MOL   C100 1264   2.376   4.272   5.637  0.0117 -0.8070  1.2402
    3MOL   O101 1265   2.288   4.272   5.748  0.2049 -0.5174  0.6072
    3MOL   H102 1266   1.877   5.031   5.732 -0.4652  0.9485  0.8159
    3MOL   H103 1267   1.712   5.002   5.783 -0.4108 -0.5672 -0.7919
    3MOL   H104 1268   1.950   4.817   5.867  1.6421  2.1545 -2.4321
    3MOL   H105 1269   1.782   4.829   5.996 -0.5306 -1.3230  0.9954
    3MOL   H106 1270   1.776   4.665   5.715  0.6841  0.0714  0.9406
    3MOL   H107 1271   1.798   4.795   5.609  2.9060 -0.9176 -3.3875
    3MOL   H108 1272   1.884   4.645   5.490  0.6461 -0.0294  1.0214
    3MOL   H109 1273   1.921   4.514   5.596 -0.1195  0.0029  0.2714
    3MOL   H110 1274   2.135   4.693   5.461 -0.7511  0.5275 -0.4621
    3MOL   H111 1275   2.082   4.548   5.395  2.2203 -1.0017 -0.5743
    3MOL   H112 1276   2.215   4.570   5.675  1.0605  0.8265 -0.6592
    3MOL   H113 1277   2.141   4.428   5.610  1.1909  0.3407  0.5133
    3MOL   H114 1278   2.484   4.399   5.499  1.4863 -1.7295  1.6854
    3MOL   H115 1279   2.412   4.515   5.733 -0.0119 -1.9664 -0.1896
    3MOL   H116 1280   2.334   4.209   5.559  0.3154  1.4494 -0.7867
    3MOL   H117 1281   2.465   4.225   5.679  2.1943  2.0507 -0.0224
    3MOL   C118 1282   2.258   4.143   5.800 -0.7753  0.5379  0.4652
    3MOL   C119 1283   2.133   4.144   5.878  0.6063 -0.5011 -0.5305
    3MOL   O120 1284   2.158   4.201   6.004  0.3300 -0.1642 -0.3735
    3MOL   C121 1285   2.058   4.006   5.901 -0.3842  0.0545 -0.1391
    3MOL   O122 1286   1.924   4.047   5.947  0.7958 -0.6575 -0.7232
    3MOL   C123 1287   1.850   3.940   6.000 -0.1865  0.1892 -0.2728
    3MOL   C124 1288   1.715   3.996   6.042  0.3865  0.2189 -0.3965
    3MOL   C125 1289   1.600   3.891   6.050  0.5586  0.1512  0.4046
    3MOL   O126 1290   1.482   3.953   6.098  0.1668  0.1434  0.2340
    3MOL   C127 1291   1.373   3.863   6.097  0.8895  0.0112 -0.4487
    3MOL   O128 1292   1.343   3.821   5.965  0.2580 -0.3616  0.2105
    3MOL   C129 1293   1.248   3.915   6.159  0.4403  1.0644 -0.0422
    3MOL   O130 1294   1.196   4.014   6.076  0.2273 -0.0951  0.0691
    3MOL   H131 1295   2.261   4.073   5.716  0.1173 -0.0303  0.9676
    3MOL   H132 1296   2.336   4.092   5.856 -1.9374 -0.8918  0.8090
    3MOL   H133 1297   2.056   4.211   5.839  0.0725 -0.9927 -0.3453
    3MOL   H134 1298   2.081   4.195   6.058  0.2731  2.2383 -0.1606
    3MOL   H135 1299   2.044   3.942   5.815 -0.5186  1.0121 -0.8393
    3MOL   H136 1300   2.107   3.955   5.984  2.5242  0.0915 -1.7719
    3MOL   H137 1301   1.894   3.882   6.080 -2.6700  0.1621  1.1141
    3MOL   H138 1302   1.834   3.872   5.916  0.0513  0.8267 -0.8403
    3MOL   H139 1303   1.671   4.075   5.980 -1.6071 -0.3395  0.2648
    3MOL   H140 1304   1.722   4.051   6.136  0.8736 -0.3296 -0.1123
    3MOL   H141 1305   1.588   3.843   5.952 -0.3041  2.8516 -0.8598
    3MOL   H142 1306   1.634   3.815   6.120 -1.5335  0.9593  2.3332
    3MOL   H143 1307   1.405   3.776   6.155 -2.6821 -0.2135  1.2772
    3MOL   H144 1308   1.271   3.874   5.934  0.2511 -0.7395 -0.4272
    3MOL   H145 1309   1.181   3.829   6.168 -0.4922  1.7034 -0.7218
    3MOL   H146 1310   1.270   3.955   6.258 -0.6953 -1.7583  1.4373
    3MOL   C147 1311   1.061   4.042   6.119 -0.1614  0.2453 -0.3509
    3MOL   C148 1312   1.026   4.188   6.162  0.0740 -0.1530 -0.2204
    3MOL   O149 1313   0.987   4.266   6.054 -0.0165  0.0253  0.4498
    3MOL   C150 1314   1.147   4.238   6.241 -0.4124 -0.4103  0.1591
    3MOL   O151 1315   1.122   4.371   6.272  0.1353 -0.2968 -0.3731
    3MOL   C152 1316   1.221   4.434   6.357 -0.0264 -0.6754 -0.0729
    3MOL   C153 1317   1.209   4.590   6.351 -0.1408 -1.1966 -0.0116
    3MOL   C154 1318   1.322   4.668   6.422 -0.1995 -0.5527 -0.0365
    3MOL   O155 1319   1.305   4.807   6.405 -0.0899  0.2613  0.0549
    3MOL   C156 1320   1.397   4.888   6.464  0.3174 -0.7618 -0.3172
    3MOL   O157 1321   1.407   4.856   6.599 -0.1451  0.4053 -0.0473
    3MOL   C158 1322   1.337   5.035   6.451 -0.9158  0.3561  0.4881
    3MOL   O159 1323   1.442   5.134   6.438  0.0554  0.5481  0.0638
    3MOL   H160 1324   1.024   3.965   6.186  0.5563 -0.0511 -0.2865
    3MOL   H161 1325   0.998   4.027   6.032 -1.0015  0.3988  0.2250
    3MOL   H162 1326   0.938   4.180   6.225  0.9240 -3.2180  0.6707
    3MOL   H163 1327   0.975   4.352   6.090  0.0508  0.2986 -0.1660
    3MOL   H164 1328   1.173   4.185   6.333 -1.0023 -0.0285  0.5518
    3MOL   H165 1329   1.230   4.245   6.172 -1.4743  0.6549 -1.0263
    3MOL   H166 1330   1.319   4.398   6.326 -0.4792 -2.1416  0.1207
    3MOL   H167 1331   1.211   4.401   6.461  1.4922 -0.0864  0.2664
    3MOL   H168 1332   1.111   4.618   6.389  0.8814  1.2064  0.9770
    3MOL   H169 1333   1.210   4.616   6.245  0.5310  0.1142  0.3075
    3MOL   H170 1334   1.325   4.637   6.526 -2.6316 -0.8606 -0.0204
    3MOL   H171 1335   1.420   4.640   6.384 -0.0828 -0.5129  0.2389
    3MOL   H172 1336   1.495   4.879   6.418 -0.4364  2.7445 -2.8814
    3MOL   H173 1337   1.343   4.898   6.654 -1.1790 -0.5117 -0.5403
    3MOL   H174 1338   1.275   5.031   6.361 -2.2263  2.0928  1.3000
    3MOL   H175 1339   1.271   5.053   6.536  0.0639  1.0789  1.1032
    3MOL   C176 1340   1.399   5.260   6.382  0.5347 -0.2684 -0.8565
    3MOL   C177 1341   1.296   5.343   6.457  0.3044  1.1749  0.1135
    3MOL   O178 1342   1.169   5.291   6.415  0.5220 -0.1213 -0.1398
    3MOL   C179 1343   1.287   5.494   6.419  0.6850  0.5745 -0.0795
    3MOL   O180 1344   1.407   5.570   6.451 -0.4448  0.4838  0.0168
    3MOL   C181 1345   1.419   5.604   6.588 -0.6253 -0.5700 -0.2596
    3MOL   C182 1346   1.567   5.640   6.622 -1.2904 -0.3419  0.6216
    3MOL   C183 1347   1.618   5.770   6.555 -0.0864  0.6023  0.0098
    3MOL   O184 1348   1.746   5.790   6.614  0.0410 -0.0243  0.3710
    3MOL   C185 1349   1.781   5.916   6.662  0.0897 -0.2098 -0.0740
    3MOL   O186 1350   1.818   5.996   6.545 -0.2750  0.4510 -0.4365
    3MOL   C187 1351   1.892   5.898   6.764 -0.9127  0.1594 -0.5109
    3MOL   O188 1352   1.847   5.834   6.884 -0.1777 -0.5052 -0.0838
    3MOL   H189 1353   1.366   5.238   6.281 -2.0140  2.5339 -0.7203
    3MOL   H190 1354   1.494   5.312   6.374 -0.0855  1.2140  0.8725
    3MOL   H191 1355   1.300   5.322   6.564  3.8220 -1.8679 -0.5238
    3MOL   H192 1356   1.141   5.233   6.485 -0.7762 -0.3433 -0.8213
    3MOL   H193 1357   1.257   5.514   6.316  0.3595 -0.1186 -0.1239
    3MOL   H194 1358   1.201   5.541   6.467  1.0892  1.9391 -0.6801
    3MOL   H195 1359   1.403   5.517   6.651 -3.0759 -0.2187 -0.3661
    3MOL   H196 1360   1.353   5.685   6.618  0.7808  0.3821  0.3610
    3MOL   H197 1361   1.632   5.560   6.587 -3.1614 -1.9820  0.8711
    3MOL   H198 1362   1.582   5.651   6.729 -1.4750  0.0813  0.6056
    3MOL   H199 1363   1.638   5.746   6.451  1.5507 -1.8737  0.8278
    3MOL   H200 1364   1.539   5.844   6.565  0.1035  0.7718  0.2462
    3MOL   H201 1365   1.693   5.956   6.711  1.7319  1.4422  1.5750
    3MOL   H202 1366   1.875   5.941   6.493 -0.7387 -1.3967  0.9574
    3MOL   H203 1367   1.967   5.841   6.710 -0.6952 -0.2022  0.1679
    3MOL   H204 1368   1.938   5.995   6.784  0.1289 -0.5798  0.6991
    3MOL   C205 1369   1.954   5.755   6.948  0.3368  0.0864  0.7309
    3MOL   C206 1370   2.061   5.844   6.999  0.2440  0.5351 -0.0563
    3MOL   O207 1371   1.989   5.914   7.098 -0.4381 -0.4225  0.1019
    3MOL   C208 1372   2.187   5.765   7.055  0.2655 -0.4113  0.3290
    3MOL   O209 1373   2.296   5.849   7.074  0.2877 -0.6315  0.1116
    3MOL   C210 1374   2.379   5.798   7.175 -0.2824  0.4401 -0.4624
    3MOL   C211 1375   2.331   5.828   7.322 -0.2807  0.5937  0.6133
    3MOL   C212 1376   2.407   5.739   7.416  0.6894 -0.1983 -0.0516
    3MOL   O213 1377   2.361   5.608   7.394  0.0095 -0.3494 -0.9499
    3MOL   C214 1378   2.460   5.515   7.421  0.2835  0.6929  0.5299
    3MOL   O215 1379   2.539   5.484   7.305 -0.3064 -0.0066 -0.2876
    3MOL   C216 1380   2.390   5.392   7.469 -0.3983  0.4859  0.1057
    3MOL   O217 1381   2.300   5.349   7.364  0.0470 -0.5074  0.1576
    3MOL   H218 1382   1.996   5.697   6.866 -2.3265  2.2596 -2.2800
    3MOL   H219 1383   1.923   5.672   7.013  1.5750 -1.6594 -0.8642
    3MOL   H220 1384   2.099   5.917   6.927  3.2961 -1.4834 -0.6030
    3MOL   H221 1385   1.910   5.937   7.052  0.1788 -0.1661 -0.8432
    3MOL   H222 1386   2.153   5.713   7.144  0.8003 -0.2375  0.6376
    3MOL   H223 1387   2.221   5.691   6.983 -0.6035  0.0005 -0.5252
    3MOL   H224 1388   2.482   5.831   7.166 -0.2210  0.1089 -0.9877
    3MOL   H225 1389   2.384   5.690   7.166 -2.0584  0.4559 -1.8939
    3MOL   H226 1390   2.227   5.801   7.334 -0.3137  0.4963  0.1494
    3MOL   H227 1391   2.331   5.933   7.348  4.1960  0.3805  1.8513
    3MOL   H228 1392   2.514   5.750   7.399  0.3534 -0.5992 -2.5997
    3MOL   H229 1393   2.389   5.761   7.521 -0.3778  2.6835 -0.7990
    3MOL   H230 1394   2.528   5.548   7.500 -0.0411 -0.6696  1.3866
    3MOL   H231 1395   2.479   5.465   7.234  0.7249  1.6151 -1.6315
    3MOL   H232 1396   2.458   5.308   7.483 -0.7874 -0.1494 -1.7324
    3MOL   H233 1397   2.336   5.409   7.561  0.8684  0.1396  0.9339
    3MOL   C234 1398   2.165   5.363   7.392  0.4099  0.4398 -0.2185
    3MOL   C235 1399   2.085   5.339   7.268 -0.0017 -0.3045 -0.5224
    3MOL   O236 1400   1.946   5.365   7.288  0.1025  0.3975 -0.1381
    3MOL   C237 1401   2.104   5.194   7.220  0.4428 -0.6353  0.3892
    3MOL   O238 1402   2.073   5.197   7.080  0.1132  0.3131  0.2567
    3MOL   C239 1403   2.000   5.083   7.030 -0.5796  0.4888  0.5827
    3MOL   C240 1404   1.999   5.085   6.882 -0.0176 -0.1181 -0.2842
    3MOL   C241 1405   1.924   4.964   6.826 -0.3908  0.4193  0.4939
    3MOL   O242 1406   1.783   4.968   6.863  0.0403 -0.1063 -0.3146
    3MOL   C243 1407   1.718   4.854   6.826 -0.7259  0.1904 -1.2196
    3MOL   O244 1408   1.680   4.846   6.696 -0.1388 -0.8720  0.2972
    3MOL   C245 1409   1.588   4.858   6.911 -0.5491 -0.1541  0.3247
    3MOL   O246 1410   1.503   4.957   6.855 -0.0625  0.2571  0.1946
    3MOL   H247 1411   2.130   5.289   7.464  1.7891 -0.8519 -0.8483
    3MOL   H248 1412   2.137   5.464   7.424 -4.0870 -0.6089 -0.5050
    3MOL   H249 1413   2.127   5.409   7.196  2.0151 -0.3758  0.5495
    3MOL   H250 1414   1.943   5.409   7.372  0.3994 -0.9533  0.6101
    3MOL   H251 1415   2.207   5.158   7.216  1.5254  2.4326 -0.6440
    3MOL   H252 1416   2.030   5.129   7.267 -2.6244  2.9500  0.7603
    3MOL   H253 1417   1.905   5.070   7.080 -0.6642  2.3561  0.9470
    3MOL   H254 1418   2.056   4.995   7.061 -1.6608 -0.4601 -0.1106
    3MOL   H255 1419   2.100   5.086   6.842  0.5867  2.0762  1.2220
    3MOL   H256 1420   1.952   5.173   6.838 -0.0282  1.2558  2.3770
    3MOL   H257 1421   1.951   4.955   6.721 -0.4970 -0.4187  0.5343
    3MOL   H258 1422   1.976   4.877   6.867  1.9664  1.0388 -1.0649
    3MOL   H259 1423   1.773   4.765   6.855 -1.4579 -0.4497 -1.7900
    3MOL   H260 1424   1.610   4.907   6.681 -0.0912 -1.0215 -0.5749
    3MOL   H261 1425   1.541   4.760   6.904  2.2462 -1.3636 -2.0538
    3MOL   H262 1426   1.621   4.880   7.013  0.7801 -0.8247  0.0429
    3MOL   C263 1427   1.381   4.987   6.932  0.1614 -0.0728  0.3395
    3MOL   C264 1428   1.282   5.076   6.857  0.2071 -0.2586 -0.1079
    3MOL   O265 1429   1.229   4.994   6.761  0.3419 -0.2026  0.3212
    3MOL   C266 1430   1.172   5.120   6.948  0.0022 -0.5961 -0.1194
    3MOL   O267 1431   1.072   5.196   6.881  0.0817  0.1214 -1.4361
    3MOL   C268 1432   1.034   5.318   6.940 -0.0309  0.2828 -0.1598
    3MOL   C269 1433   0.905   5.352   6.874  0.4360 -0.2735  0.4610
    3MOL   C270 1434   0.835   5.489   6.907 -0.1979  0.3810 -0.1937
    3MOL   O271 1435   0.717   5.518   6.831 -0.0601 -0.5477  0.2293
    3MOL   C272 1436   0.630   5.613   6.885 -0.8318 -0.0971 -0.1951
    3MOL   O273 1437   0.659   5.744   6.849  0.0663  0.6096 -0.0898
    3MOL   C274 1438   0.490   5.586   6.827 -0.2515  0.0672  0.0590
    3MOL   O275 1439   0.389   5.618   6.929  0.4219 -0.3165  0.1329
    3MOL   H276 1440   1.418   5.031   7.024  2.1506  1.5879 -1.2231
    3MOL   H277 1441   1.329   4.896   6.962 -1.4759  0.7756  0.1478
    3MOL   H278 1442   1.334   5.161   6.813 -0.6420 -0.0128 -0.6324
    3MOL   H279 1443   1.150   5.040   6.739 -0.4332 -0.3832  2.6372
    3MOL   H280 1444   1.130   5.025   6.981 -0.2609  0.3360  2.3740
    3MOL   H281 1445   1.204   5.185   7.030 -2.6415 -1.3045  1.5476
    3MOL   H282 1446   1.103   5.399   6.919 -0.2088  0.4324 -0.1678
    3MOL   H283 1447   1.022   5.309   7.048  0.5755  0.2387 -0.0920
    3MOL   H284 1448   0.836   5.277   6.914 -0.8110 -1.2351 -3.2703
    3MOL   H285 1449   0.908   5.329   6.767 -2.2204  1.3697 -0.0094
    3MOL   H286 1450   0.813   5.497   7.014  1.7076 -0.4323  0.2880
    3MOL   H287 1451   0.905   5.570   6.885  1.1374 -0.8100 -0.3537
    3MOL   H288 1452   0.631   5.618   6.994  1.6514 -0.5960 -0.1677
    3MOL   H289 1453   0.643   5.751   6.756  2.2088  1.9303 -0.4064
    3MOL   H290 1454   0.468   5.636   6.733  2.1738  2.2721  0.6163
    3MOL   H291 1455   0.486   5.480   6.805 -0.5456  0.5696 -2.4359
    3MOL   C292 1456   0.258   5.581   6.890 -0.1007 -0.0846  0.1005
    3MOL   C293 1457   0.195   5.693   6.804  0.8933  0.3571  0.5724
    3MOL   O294 1458   0.102   5.635   6.710 -0.8575 -0.6396  0.6766
    3MOL   C295 1459   0.130   5.808   6.881  0.5454 -0.6934 -0.7178
    3MOL   O296 1460   0.050   5.766   6.985 -0.1739  0.0086  0.1984
    3MOL   C297 1461   0.076   5.835   7.101 -0.3471 -0.5880  0.3411
    3MOL   C298 1462   0.144   5.737   7.198 -0.5268  0.2721 -0.3302
    3MOL   C299 1463   0.131   5.790   7.344 -0.6789  0.4933 -0.0032
    3MOL   O300 1464   0.199   5.706   7.435  0.5296  0.0069 -0.7916
    3MOL   C301 1465   0.145   5.700   7.566 -0.7592  0.1140 -0.7491
    3MOL   O302 1466   0.051   5.596   7.578 -0.7224 -0.2902 -0.1656
    3MOL   C303 1467   0.269   5.653   7.650 -0.9098 -0.9672 -0.2207
    3MOL   O304 1468   0.320   5.532   7.602 -0.5832  0.2847  0.5699
    3MOL   H305 1469   0.266   5.495   6.824  0.1576 -1.3643  1.7683
    3MOL   H306 1470   0.197   5.540   6.970 -1.6096 -0.1205 -1.0435
    3MOL   H307 1471   0.263   5.742   6.734 -0.6076 -0.9766 -1.9170
    3MOL   H308 1472   0.026   5.611   6.760 -1.5434 -1.3317 -0.6588
    3MOL   H309 1473   0.219   5.864   6.911 -1.6636  2.8641 -0.4793
    3MOL   H310 1474   0.063   5.873   6.824 -1.1911  1.1961  3.2611
    3MOL   H311 1475   7.674   5.858   7.147 -0.4259  2.1458 -1.1119
    3MOL   H312 1476   0.130   5.930   7.102 -1.1302 -0.1186 -1.1404
    3MOL   H313 1477   0.249   5.715   7.175 -1.0438 -1.5382 -1.0021
    3MOL   H314 1478   0.090   5.643   7.189 -0.3326  0.3264 -2.3309
    3MOL   H315 1479   0.172   5.890   7.357  3.2234 -1.2778  1.8872
    3MOL   H316 1480   0.022   5.798   7.346 -0.7464  1.2920 -3.2183
    3MOL   H317 1481   0.105   5.796   7.599  0.6448  0.6747 -0.6308
    3MOL   H318 1482   0.091   5.511   7.578  1.5219  0.7276 -1.4923
    3MOL   H319 1483   0.246   5.643   0.062 -0.8421  2.0414  0.1202
    3MOL   H320 1484   0.344   5.732   7.646  0.3782 -2.0726  1.4095
    3MOL   C321 1485   0.462   5.519   7.609 -0.0926 -0.2902 -0.3579
    3MOL   C322 1486   0.540   5.577   7.496 -0.1034  0.0405  0.9571
    3MOL   O323 1487   0.679   5.559   7.508  0.2176 -0.3290  0.3895
    3MOL   C324 1488   0.487   5.509   7.368 -0.4532 -0.3491 -0.0237
    3MOL   O325 1489   0.502   5.371   7.383 -0.3755 -0.8102 -0.6431
    3MOL   C326 1490   0.440   5.301   7.279  0.3612  0.1679  0.0323
    3MOL   C327 1491   0.508   5.314   7.142 -0.3807 -0.4045 -0.0760
    3MOL   C328 1492   0.453   5.243   7.029 -0.1659 -0.4622 -0.1759
    3MOL   O329 1493   0.539   5.271   6.917 -0.1849 -0.3008  0.0376
    3MOL   C330 1494   0.532   5.181   6.818  0.8537  0.1452  0.4149
    3MOL   O331 1495   0.396   5.177   6.766  0.0685 -0.5733  0.1237
    3MOL   C332 1496   0.632   5.209   6.706  0.2619 -0.2218  0.0661
    3MOL   O333 1497   0.752   5.125   6.707 -0.6589 -0.3304 -0.3287
    3MOL   H334 1498   0.489   5.414   7.622  0.6325  0.2874  3.4914
    3MOL   H335 1499   0.482   5.559   0.014  0.1231 -0.8544 -0.1722
    3MOL   H336 1500   0.529   5.686   7.496 -0.1589  0.0370  0.2470
    3MOL   H337 1501   0.691   5.466   7.507 -0.0926 -0.3719  0.5107
    3MOL   H338 1502   0.534   5.551   7.279  1.4236 -1.1838  0.5534
    3MOL   H339 1503   0.385   5.545   7.359  0.4508  3.0118  2.0119
    3MOL   H340 1504   0.338   5.338   7.271 -0.1776 -0.7262  2.3717
    3MOL   H341 1505   0.441   5.195   7.300  0.3852 -0.1268 -1.3913
    3MOL   H342 1506   0.508   5.418   7.109  1.9168  0.7995  3.3522
    3MOL   H343 1507   0.613   5.294   7.164 -0.4003  1.5193  2.0309
    3MOL   H344 1508   0.441   5.138   7.055 -3.3936  0.0846  0.8892
    3MOL   H345 1509   0.352   5.273   7.000 -0.1756  1.2083  1.4540
    3MOL   H346 1510   0.561   5.087   6.866  0.0008 -0.7443 -0.7688
    3MOL   H347 1511   0.354   5.111   6.818  0.2065 -1.5523 -0.9971
    3MOL   H348 1512   0.568   5.198   6.618 -1.1467  3.3110  0.5953
    3MOL   H349 1513   0.645   5.317   6.708 -0.7970 -0.1012  2.0205
    3MOL   C350 1514   0.801   5.077   6.580 -0.4701  0.0553  0.8601
    3MOL   C351 1515   0.933   5.003   6.596 -0.5918 -0.5189 -0.2783
    3MOL   O352 1516   1.020   5.117   6.626 -0.2466  0.4864  0.1392
    3MOL   C353 1517   0.939   4.910   6.718 -0.0014 -0.3610  0.8313
    3MOL   O354 1518   1.026   4.805   6.684  0.3690 -0.3455 -0.7530
    3MOL   C355 1519   1.019   4.690   6.776  0.9986 -0.1283  0.0662
    3MOL   C356 1520   1.103   4.574   6.725  0.1870  0.0880 -0.0663
    3MOL   C357 1521   1.243   4.585   6.784 -0.3027 -0.2248  0.2350
    3MOL   O358 1522   1.321   4.481   6.726 -0.5951  0.2036 -0.9747
    3MOL   C359 1523   1.460   4.489   6.760 -0.5203 -0.1300  0.4541
    3MOL   O360 1524   1.486   4.427   6.884  0.1515 -0.4034 -0.3656
    3MOL   C361 1525   1.539   4.435   6.643 -0.1077  0.2691 -0.5217
    3MOL   O362 1526   1.488   4.307   6.601 -0.3905 -0.4190 -0.0518
    3MOL   H363 1527   0.801   5.157   6.507  0.7579  0.1205  0.9211
    3MOL   H364 1528   0.737   5.005   6.530 -1.1819  1.1998  0.0972
    3MOL   H365 1529   0.966   4.960   6.501 -0.2373  2.4043 -1.5595
    3MOL   H366 1530   0.994   5.146   6.712 -1.0493  2.9413 -0.9117
    3MOL   H367 1531   0.960   4.969   6.807  0.4464 -0.2745  0.6691
    3MOL   H368 1532   0.843   4.861   6.731 -0.0362 -0.2480  0.9998
    3MOL   H369 1533   0.917   4.655   6.791  0.3534  1.7134  0.2270
    3MOL   H370 1534   1.038   4.718   6.880 -2.7893  0.9178  0.5591
    3MOL   H371 1535   1.111   4.576   6.617 -0.0229 -1.2902 -0.1091
    3MOL   H372 1536   1.058   4.478   6.748  1.8759 -0.9794 -1.1226
    3MOL   H373 1537   1.299   4.677   6.766  0.6078 -0.7836  0.1953
    3MOL   H374 1538   1.244   4.571   6.892 -0.1687 -1.2943  0.0963
    3MOL   H375 1539   1.497   4.591   6.770  1.5387 -0.9819  1.8892
    3MOL   H376 1540   1.455   4.338   6.878  1.8806 -1.0395 -0.2122
    3MOL   H377 1541   1.536   4.503   6.558  1.0572  0.9575 -0.0214
    3MOL   H378 1542   1.644   4.430   6.672 -0.4753 -1.4490  0.5463
    3MOL   C379 1543   1.558   4.267   6.483  0.3340 -0.2943  0.3064
    3MOL   C380 1544   1.494   4.144   6.427 -0.3527 -1.1744  0.4682
    3MOL   O381 1545   1.518   4.151   6.287  0.0170  0.4828  0.5358
    3MOL   C382 1546   1.560   4.013   6.479  0.2009  0.0237 -1.0041
    3MOL   O383 1547   1.473   3.909   6.452  0.1016  0.0098  0.1860
    3MOL   C384 1548   1.516   3.783   6.505 -0.2651  0.1888 -0.7205
    3MOL   C385 1549   1.394   3.693   6.477  0.1450  0.1440  0.2568
    3MOL   C386 1550   1.408   3.549   6.532 -0.2504 -0.9171  0.4067
    3MOL   O387 1551   1.300   3.462   6.480 -0.3944 -0.5621 -0.6971
    3MOL   C388 1552   1.320   3.327   6.507 -0.6873  0.4408 -0.3346
    3MOL   O389 1553   1.288   3.302   6.640 -0.0864  0.0126  0.0075
    3MOL   C390 1554   1.228   3.253   6.416 -0.6620  0.2840  0.0100
    3MOL   O391 1555   1.275   3.264   6.282 -0.4974 -0.2344  0.2926
    3MOL   H392 1556   1.664   4.244   6.497  0.5589 -0.3075 -1.2516
    3MOL   H393 1557   1.549   4.354   6.417  1.1020 -1.1604 -0.9700
    3MOL   H394 1558   1.386   4.137   6.441 -0.4870  0.4005  0.2624
    3MOL   H395 1559   1.464   4.087   6.242  1.5736 -0.5355  0.0791
    3MOL   H396 1560   1.665   4.014   6.450  0.3262  0.3207 -0.5458
    3MOL   H397 1561   1.568   4.035   6.586  2.5090 -1.4633 -0.8189
    3MOL   H398 1562   1.531   3.793   6.613 -0.8125 -0.0136 -0.6231
    3MOL   H399 1563   1.609   3.752   6.457 -0.3386 -1.9942  0.4678
    3MOL   H400 1564   1.376   3.705   6.370  0.9911  0.6378  0.1671
    3MOL   H401 1565   1.307   3.744   6.519 -2.2758 -2.9806 -0.7369
    3MOL   H402 1566   1.508   3.520   6.499  0.3948  2.8257 -1.2190
    3MOL   H403 1567   1.405   3.556   6.641 -0.1243  2.3772  0.2304
    3MOL   H404 1568   1.420   3.289   6.486 -0.6607  0.4804 -0.2795
    3MOL   H405 1569   1.201   3.335   6.659 -0.5098 -1.3652  0.5037
    3MOL   H406 1570   1.227   3.149   6.449  2.8115  0.5095  0.9887
    3MOL   H407 1571   1.132   3.303   6.428 -1.2438 -0.8002 -0.0914
    3MOL   C408 1572   1.198   3.176   6.207  0.7691  0.4202  0.4756
    3MOL   C409 1573   1.265   3.158   6.066  0.1901 -0.4522  0.6544
    3MOL   O410 1574   1.178   3.224   5.977  0.6431  0.1091  0.0566
    3MOL   C411 1575   1.279   3.004   6.024  0.4047 -0.4012 -0.4322
    3MOL   O412 1576   1.333   3.004   5.889  0.3624 -0.4795  0.0422
    3MOL   C413 1577   1.382   2.876   5.855 -0.1831  0.2545  0.1807
    3MOL   C414 1578   1.276   2.776   5.823 -0.5231  0.4755  0.0204
    3MOL   C415 1579   1.341   2.634   5.792 -0.7280 -0.4705 -0.2634
    3MOL   O416 1580   1.239   2.544   5.749  0.4079 -0.2153  0.1935
    3MOL   C417 1581   1.265   2.414   5.738 -0.8254  0.2236  0.3889
    3MOL   O418 1582   1.364   2.378   5.644 -0.7087 -0.7055  0.1405
    3MOL   C419 1583   1.134   2.341   5.711  0.0951  0.1102 -1.1849
    3MOL   O420 1584   1.094   2.360   5.585 -0.3037  0.0559  0.3612
    3MOL   H421 1585   1.092   3.199   6.197 -0.1972 -3.1068  1.5044
    3MOL   H422 1586   1.192   3.075   6.250 -3.0627  1.6652  3.1431
    3MOL   H423 1587   1.362   3.206   6.060  1.4059 -2.8690  0.4338
    3MOL   H424 1588   1.217   3.213   5.892  1.0855  0.5410  0.2012
    3MOL   H425 1589   1.348   2.949   6.089 -1.2121  0.3934  2.0361
    3MOL   H426 1590   1.187   2.946   6.029  0.3996 -0.2138  2.3922
    3MOL   H427 1591   1.454   2.884   5.773 -1.5202  0.0191 -1.0486
    3MOL   H428 1592   1.456   2.848   5.929 -0.2093 -2.2991 -0.7139
    3MOL   H429 1593   1.221   2.814   5.737 -1.4910  0.4405  0.6206
    3MOL   H430 1594   1.209   2.768   5.908 -0.4140 -0.0457  0.0614
    3MOL   H431 1595   1.418   2.644   5.716  2.0185 -0.5795  2.3864
    3MOL   H432 1596   1.385   2.601   5.886 -0.0856  0.6228 -0.1787
    3MOL   H433 1597   1.304   2.392   5.837  2.0397 -2.3992 -1.2129
    3MOL   H434 1598   1.357   2.285   5.627  0.0786 -0.5842 -0.8846
    3MOL   H435 1599   1.157   2.236   5.733 -0.1096  0.1141 -0.9453
    3MOL   H436 1600   1.065   2.381   5.786 -1.8052 -2.2744 -1.5755
    3MOL   C437 1601   0.964   2.311   5.566  1.0045 -0.3135  0.4944
    3MOL   C438 1602   0.906   2.371   5.444 -0.3236  0.4821 -1.0865
    3MOL   O439 1603   0.912   2.512   5.464  0.3056  0.5976 -0.1294
    3MOL   C440 1604   0.756   2.329   5.433  0.6459  0.3975 -0.5290
    3MOL   O441 1605   0.709   2.335   5.299 -0.1878  0.2925  0.1564
    3MOL   C442 1606   0.570   2.349   5.282 -0.2275  0.3041  0.7843
    3MOL   C443 1607   0.527   2.352   5.133  0.1399  0.0608 -0.4959
    3MOL   C444 1608   0.376   2.372   5.111 -0.5725  0.2215  0.1770
    3MOL   O445 1609   0.336   2.493   5.159 -0.3828  0.2125  0.0413
    3MOL   C446 1610   0.356   2.604   5.078 -0.4246 -0.3929  0.0314
    3MOL   O447 1611   0.490   2.640   5.066 -0.2828  0.4184  0.4355
    3MOL   C448 1612   0.272   2.709   5.147 -0.7913 -0.1558  0.2231
    3MOL   O449 1613   0.337   2.737   5.273 -0.0652  0.4922  0.9937
    3MOL   H450 1614   0.978   2.203   5.560  0.4621 -0.3734  0.2185
    3MOL   H451 1615   0.901   2.331   5.653  0.0301  0.8910 -0.4588
    3MOL   H452 1616   0.972   2.341   5.363  1.1509 -2.3563  1.0803
    3MOL   H453 1617   0.997   2.522   5.504  0.4139 -2.1294  0.4157
    3MOL   H454 1618   0.737   2.225   5.461  1.6929  0.1095 -0.8909
    3MOL   H455 1619   0.687   2.391   5.491  1.7392  1.4120 -0.2956
    3MOL   H456 1620   0.525   2.434   5.332 -1.1313  1.1704 -1.4608
    3MOL   H457 1621   0.521   2.266   5.333  2.3030 -0.1509  2.5934
    3MOL   H458 1622   0.549   2.256   5.088 -0.7305  0.7646 -2.4570
    3MOL   H459 1623   0.594   2.420   5.080 -1.3565  0.0666 -2.4016
    3MOL   H460 1624   0.347   2.362   5.006 -2.3636  0.7632  0.6182
    3MOL   H461 1625   0.310   2.296   5.152 -0.7333  0.1793 -0.1556
    3MOL   H462 1626   0.317   2.597   4.976 -0.4104  1.8410 -0.1410
    3MOL   H463 1627   0.514   2.650   5.156  1.2693 -0.7438  0.1739
    3MOL   H464 1628   0.256   2.793   5.080  0.8725  1.1836  1.5050
    3MOL   H465 1629   0.174   2.660   5.158 -0.4528 -0.3529  2.5841
    3MOL   C466 1630   0.350   2.868   5.305  0.6933  0.3001  0.0986
    3MOL   C467 1631   0.454   2.897   5.416  0.2311 -0.2761  0.0212
    3MOL   O468 1632   0.393   2.865   5.539 -0.0076 -0.5964 -0.0448
    3MOL   C469 1633   0.585   2.811   5.407 -0.6907  0.0126 -0.1119
    3MOL   O470 1634   0.619   2.794   5.269 -0.1132 -0.3022  0.0180
    3MOL   C471 1635   0.719   2.882   5.219 -0.5802  0.1832 -0.2128
    3MOL   C472 1636   0.710   2.902   5.071 -0.2086 -0.0231  0.1685
    3MOL   C473 1637   0.804   3.013   5.018  0.1684  0.5869  0.1101
    3MOL   O474 1638   0.808   3.007   4.877  0.1539  0.6459  0.1674
    3MOL   C475 1639   0.903   3.069   4.805  0.5401  0.3402 -1.2670
    3MOL   O476 1640   0.900   3.203   4.822  0.0852 -0.0437  0.2172
    3MOL   C477 1641   0.881   3.032   4.655 -0.1087 -0.0547 -0.2745
    3MOL   O478 1642   0.749   3.072   4.612  0.1147 -0.3444 -0.4077
    3MOL   H479 1643   0.250   2.898   5.338 -0.4091 -1.2278 -1.7311
    3MOL   H480 1644   0.374   2.929   5.218  1.1221  0.5650  0.4049
    3MOL   H481 1645   0.481   3.000   5.392  0.4000 -0.0555  1.1143
    3MOL   H482 1646   0.368   2.774   5.532 -0.3287 -0.4777 -0.4496
    3MOL   H483 1647   0.666   2.853   5.466  0.7600 -3.1945  0.2948
    3MOL   H484 1648   0.556   2.711   5.439 -0.6638 -0.1868 -0.7064
    3MOL   H485 1649   0.813   2.850   5.264 -1.4733  0.1229  1.6922
    3MOL   H486 1650   0.692   2.975   5.269  0.5168 -0.2602  1.2434
    3MOL   H487 1651   0.605   2.921   5.044 -0.2870 -0.3772  0.2187
    3MOL   H488 1652   0.739   2.811   5.020 -2.1823 -0.6534  0.1062
    3MOL   H489 1653   0.773   3.112   5.052  2.0375  0.9559  0.8111
    3MOL   H490 1654   0.891   2.988   5.078  0.8798 -0.2346 -1.2422
    3MOL   H491 1655   0.999   3.035   4.842 -0.7733 -3.3091 -1.0335
    3MOL   H492 1656   0.846   3.241   4.755 -0.7912  0.6672  1.3172
    3MOL   H493 1657   0.956   3.093   4.605 -1.1674  0.1313 -1.6546
    3MOL   H494 1658   0.910   2.929   4.634 -2.5397 -1.1012  1.2739
    3MOL   C495 1659   0.713   3.022   4.480 -0.4287 -0.0389  0.1951
    3MOL   C496 1660   0.574   3.065   4.432  0.0043 -0.1917 -0.6488
    3MOL   O497 1661   0.581   3.195   4.380  0.1391 -0.3781 -0.0970
    3MOL   C498 1662   0.525   2.973   4.317  0.1314  0.8067  0.1404
    3MOL   O499 1663   0.415   3.026   4.248 -0.4411 -0.3276  0.7857
    3MOL   C500 1664   0.289   3.002   4.310 -0.0909  0.8806  0.4406
    3MOL   C501 1665   0.196   3.112   4.273 -0.0769 -0.4100  0.2630
    3MOL   C502 1666   0.207   3.232   4.363  1.0406 -0.5885 -0.3661
    3MOL   O503 1667   0.145   3.339   4.294 -0.4526 -0.2777 -0.0282
    3MOL   C504 1668   0.138   3.449   4.373  0.8075  0.2888 -0.4727
    3MOL   O505 1669   0.031   3.435   4.466 -0.0520 -0.2862  0.6781
    3MOL   C506 1670   0.134   3.583   4.286 -0.5561 -0.4305 -0.5457
    3MOL   O507 1671   0.264   3.631   4.253  0.6027  0.0658 -0.6664
    3MOL   H508 1672   0.717   2.914   4.487  0.4741 -0.2732 -3.1981
    3MOL   H509 1673   0.794   3.059   4.416  0.1737 -1.2464  0.2521
    3MOL   H510 1674   0.505   3.073   4.517 -0.3112  1.1374 -1.0063
    3MOL   H511 1675   0.534   3.199   4.298 -0.7727 -2.7612  0.2722
    3MOL   H512 1676   0.611   2.970   4.250  0.1094  0.2672  0.1392
    3MOL   H513 1677   0.495   2.872   4.342 -3.7500  1.8782  0.1899
    3MOL   H514 1678   0.296   3.003   4.419 -1.0165  3.0078  0.5062
    3MOL   H515 1679   0.253   2.904   4.278 -1.6900  0.0941  4.4034
    3MOL   H516 1680   0.097   3.069   4.285 -0.5512  0.5826 -0.0540
    3MOL   H517 1681   0.213   3.139   4.169 -3.2816  1.6472  0.2274
    3MOL   H518 1682   0.157   3.194   4.452  1.1398 -1.5804 -0.7235
    3MOL   H519 1683   0.306   3.261   4.398  1.1380 -1.9368  0.5147
    3MOL   H520 1684   0.224   3.460   4.439  0.2830  2.9899 -0.1967
    3MOL   H521 1685   7.643   3.468   4.432 -0.3376 -0.6235  1.0371
    3MOL   H522 1686   0.078   3.576   4.193  0.1071  0.2689 -1.0058
    3MOL   H523 1687   0.085   3.659   4.347  0.9431 -0.8890  1.2957
    3MOL   C524 1688   0.326   3.553   4.147  0.2482 -0.1788  0.2835
    3MOL   C525 1689   0.481   3.584   4.132  0.3873 -0.1786  0.0647
    3MOL   O526 1690   0.505   3.715   4.074  0.2761  0.1292 -0.3057
    3MOL   C527 1691   0.537   3.469   4.039  0.4826  0.0996  0.2511
    3MOL   O528 1692   0.549   3.344   4.112  0.0562  0.7739 -0.2140
    3MOL   C529 1693   0.583   3.242   4.018  0.1959 -0.2272 -0.0913
    3MOL   C530 1694   0.738   3.245   3.999  0.3816  0.5020 -0.0930
    3MOL   C531 1695   0.816   3.214   4.128 -0.6973 -0.4699 -0.1077
    3MOL   O532 1696   0.949   3.226   4.088  0.5205 -0.0354  0.3403
    3MOL   C533 1697   1.040   3.235   4.192  0.1681  0.5685 -0.6394
    3MOL   O534 1698   1.036   3.120   4.270 -0.4371  0.2456 -0.1638
    3MOL   C535 1699   1.184   3.245   4.139 -0.1884 -0.0594  0.8856
    3MOL   O536 1700   1.202   3.386   4.106 -0.0258 -0.0396  0.1289
    3MOL   H537 1701   0.274   3.572   4.053 -0.4688 -0.5405  0.5996
    3MOL   H538 1702   0.320   3.447   4.174  0.5860 -0.1538  0.4606
    3MOL   H539 1703   0.532   3.588   4.229 -1.0803  0.1749  0.8256
    3MOL   H540 1704   0.473   3.788   4.124  0.1563 -0.4879  0.5311
    3MOL   H541 1705   0.472   3.462   3.951 -0.6712  0.2017  1.0844
    3MOL   H542 1706   0.631   3.505   3.997  0.3726 -0.1406 -0.2043
    3MOL   H543 1707   0.529   3.244   3.924  0.7396  1.5669 -0.3870
    3MOL   H544 1708   0.549   3.145   4.055 -0.7741  0.4030  0.7127
    3MOL   H545 1709   0.768   3.337   3.950 -0.7888 -0.1946 -2.1677
    3MOL   H546 1710   0.762   3.179   3.916 -3.7243  0.3001 -1.2456
    3MOL   H547 1711   0.791   3.290   4.202 -0.7024 -1.2260  0.6692
    3MOL   H548 1712   0.789   3.111   4.151 -0.4189 -0.7929 -1.2071
    3MOL   H549 1713   1.017   3.321   4.255 -0.6477 -0.7754  0.9238
    3MOL   H550 1714   1.090   3.144   4.344 -2.3129  0.2305  1.2678
    3MOL   H551 1715   1.251   3.208   4.216 -2.2912 -1.5221  2.0879
    3MOL   H552 1716   1.196   3.175   4.057 -1.1620 -0.3458  0.9767
    3MOL   C553 1717   1.230   3.471   4.222  0.2695  0.2707 -0.0216
    3MOL   C554 1718   1.239   3.613   4.168 -0.4985 -0.1113 -0.3018
    3MOL   O555 1719   1.362   3.626   4.095  0.0043 -0.3911  0.3780
    3MOL   C556 1720   1.238   3.714   4.279  0.5464 -0.5257 -0.6453
    3MOL   O557 1721   1.224   3.842   4.224  0.7643  0.0526  0.2570
    3MOL   C558 1722   1.168   3.931   4.326  0.2052  0.8780  0.7981
    3MOL   C559 1723   1.158   4.069   4.256 -0.3275 -0.2123 -0.8152
    3MOL   C560 1724   1.113   4.181   4.349  0.4160  0.0160 -0.9342
    3MOL   O561 1725   0.974   4.186   4.374  0.5826  0.2827  0.2663
    3MOL   C562 1726   0.930   4.246   4.495 -0.6023 -0.2277 -0.7446
    3MOL   O563 1727   0.913   4.388   4.476  0.1652 -0.3053  0.2323
    3MOL   C564 1728   0.799   4.176   4.534 -0.0525 -0.7604 -0.5080
    3MOL   O565 1729   0.829   4.042   4.593 -0.3667  0.1794  0.4139
    3MOL   H566 1730   1.325   3.431   4.260  1.0224  0.5730 -1.5431
    3MOL   H567 1731   1.172   3.457   4.314  1.0704  0.9613  0.6014
    3MOL   H568 1732   1.151   3.632   4.106 -0.7755 -0.3734  0.0037
    3MOL   H569 1733   1.357   3.548   4.043 -2.5084  0.2519 -0.4046
    3MOL   H570 1734   1.155   3.694   4.346  0.0195 -1.2619 -1.5149
    3MOL   H571 1735   1.327   3.715   4.343 -0.6081  1.5984  0.9894
    3MOL   H572 1736   1.069   3.891   4.348  0.1462  0.9013  0.5677
    3MOL   H573 1737   1.210   3.925   4.427 -0.7751  1.3160  1.2377
    3MOL   H574 1738   1.076   4.067   4.183 -0.3918  1.6693 -0.8073
    3MOL   H575 1739   1.255   4.077   4.207 -0.5721  0.4845 -1.1988
    3MOL   H576 1740   1.159   4.161   4.445 -0.5980  0.4860 -0.3424
    3MOL   H577 1741   1.142   4.280   4.312  0.9492  0.4706  0.6601
    3MOL   H578 1742   1.001   4.226   4.575  0.7165 -0.7984 -2.0370
    3MOL   H579 1743   0.841   4.402   4.415 -0.1665 -0.4706  0.5861
    3MOL   H580 1744   0.756   4.243   4.609  0.3317  0.0176 -0.9776
    3MOL   H581 1745   0.719   4.173   4.460 -0.1552  3.2228 -0.6531
    3MOL   H582 1746   0.751   3.989   4.594  0.4578 -1.0690  0.9183
    4MOL     C1 1747   4.553   6.304   4.034  1.3420 -0.1145  0.1702
    4MOL     C2 1748   4.433   6.219   4.087 -0.2769  0.1749 -0.4338
    4MOL     O3 1749   4.366   6.298   4.186 -0.2575 -0.0698 -0.0631
    4MOL     C4 1750   4.340   6.166   3.973  0.1585 -0.8150  0.2463
    4MOL     O5 1751   4.417   6.065   3.915 -0.8630  0.5335 -0.1452
    4MOL     C6 1752   4.343   5.991   3.823  0.1947  0.0165  0.0354
    4MOL     C7 1753   4.446   5.908   3.746 -0.3345 -0.2979 -0.1836
    4MOL     C8 1754   4.518   5.791   3.824  0.0029 -0.6200 -0.4117
    4MOL     O9 1755   4.634   5.731   3.759 -0.5511 -0.2578 -0.6653
    4MOL    C10 1756   4.663   5.606   3.817  0.2592  0.4742  0.1942
    4MOL    O11 1757   4.692   5.607   3.952 -0.0639 -0.1943 -0.1936
    4MOL    C12 1758   4.779   5.543   3.735 -0.2846  1.0106  0.4528
    4MOL    O13 1759   4.765   5.403   3.724 -0.0044 -0.1579 -0.9409
    4MOL    H14 1760   4.616   6.248   3.965  1.3434 -0.2785  0.3029
    4MOL    H15 1761   4.618   6.332   4.117  1.1544 -0.7801  0.5492
    4MOL    H16 1762   4.464   6.132   4.145  0.2395  0.4751 -0.2525
    4MOL    H17 1763   4.308   6.237   4.229 -0.4071  0.6760  0.8017
    4MOL    H18 1764   4.251   6.127   4.022 -1.2895  2.5362  0.3796
    4MOL    H19 1765   4.310   6.247   3.906  2.4729 -1.3886 -1.5572
    4MOL    H20 1766   4.278   6.052   3.759 -1.1018  0.6969  1.9711
    4MOL    H21 1767   4.284   5.914   3.872  0.1129  0.2293  0.2712
    4MOL    H22 1768   4.528   5.970   3.711 -0.2010 -0.9136 -0.9611
    4MOL    H23 1769   4.403   5.878   3.650  1.1964  1.0630 -1.3215
    4MOL    H24 1770   4.550   5.826   3.922  2.3610 -2.3696 -0.5257
    4MOL    H25 1771   4.445   5.716   3.857 -1.0875  0.5379 -0.1496
    4MOL    H26 1772   4.574   5.547   3.796  0.1455  0.8968 -0.5464
    4MOL    H27 1773   4.782   5.630   3.969 -0.7838  3.0533 -0.5136
    4MOL    H28 1774   4.770   5.570   3.630 -2.1875  2.6813  1.0110
    4MOL    H29 1775   4.877   5.584   3.761 -0.0248  0.4246  0.3943
    4MOL    H30 1776   4.524   6.397   3.986 -0.9922  0.7696  3.0994
    4MOL    C31 1777   4.784   5.325   3.841  0.4061  0.6980 -0.8998
    4MOL    C32 1778   4.759   5.178   3.795  1.4032 -0.5151  0.0063
    4MOL    O33 1779   4.618   5.172   3.780  0.1520 -0.3872 -0.4708
    4MOL    C34 1780   4.816   5.077   3.893 -0.5313 -0.4330  0.1955
    4MOL    O35 1781   4.846   4.946   3.833 -0.2943  0.5020 -0.4765
    4MOL    C36 1782   4.753   4.842   3.878  0.2229 -0.3322  0.8301
    4MOL    C37 1783   4.810   4.718   3.808  0.8782 -0.6775  0.3543
    4MOL    C38 1784   4.949   4.692   3.856 -0.3761  0.5816 -0.5130
    4MOL    O39 1785   4.999   4.580   3.778  0.2804  0.0560 -0.5329
    4MOL    C40 1786   4.995   4.449   3.827  0.4689  0.1433 -0.4831
    4MOL    O41 1787   5.078   4.434   3.939  0.6634 -0.5580 -0.6400
    4MOL    C42 1788   5.046   4.343   3.730  0.3647  0.8070  0.1111
    4MOL    O43 1789   5.190   4.361   3.709 -0.0296 -0.5541 -0.0891
    4MOL    H44 1790   4.887   5.320   3.877 -0.6986  0.4068  2.4182
    4MOL    H45 1791   4.713   5.346   3.921  1.0451 -0.1993 -0.0841
    4MOL    H46 1792   4.803   5.167   3.696 -0.5152  0.0908 -0.9307
    4MOL    H47 1793   4.592   5.260   3.760  1.2199  0.0257 -0.0602
    4MOL    H48 1794   4.918   5.110   3.913 -0.7091  0.4224 -0.2454
    4MOL    H49 1795   4.763   5.070   3.988 -0.8806 -2.4371 -0.1344
    4MOL    H50 1796   4.656   4.867   3.836  0.2619 -1.0783  0.2905
    4MOL    H51 1797   4.734   4.844   3.986  0.0814  0.6621  0.7934
    4MOL    H52 1798   4.813   4.745   3.703  1.8822 -0.0871  0.5358
    4MOL    H53 1799   4.736   4.638   3.808  0.6356 -0.4673 -1.1830
    4MOL    H54 1800   5.018   4.769   3.822  2.1986 -1.8108 -0.7742
    4MOL    H55 1801   4.951   4.672   3.964  0.4086  2.6221 -0.1274
    4MOL    H56 1802   4.892   4.424   3.856 -0.1676  1.3465 -1.6578
    4MOL    H57 1803   5.166   4.437   3.904  0.2830  1.5855 -1.5039
    4MOL    H58 1804   5.024   4.247   3.776  0.0688  0.6817 -0.2843
    4MOL    H59 1805   4.994   4.364   3.636 -0.5198  0.0860  0.4341
    4MOL    C60 1806   5.254   4.276   3.618 -0.5012 -0.3295  0.2023
    4MOL    C61 1807   5.297   4.349   3.486 -0.2744  0.3046  0.0289
    4MOL    O62 1808   5.180   4.336   3.405  0.4061 -0.0911 -0.0908
    4MOL    C63 1809   5.403   4.269   3.407 -0.0689 -0.4033 -0.4037
    4MOL    O64 1810   5.438   4.344   3.293 -0.2468  0.6002  0.0245
    4MOL    C65 1811   5.519   4.268   3.200 -0.0245 -0.0336  0.6630
    4MOL    C66 1812   5.592   4.379   3.128  0.4842 -0.1244  0.1492
    4MOL    C67 1813   5.692   4.453   3.214 -0.2512  0.8856  0.1304
    4MOL    O68 1814   5.777   4.531   3.125  0.4321  0.6093 -0.5779
    4MOL    C69 1815   5.877   4.595   3.180  0.1108  0.0249 -0.0035
    4MOL    O70 1816   5.981   4.506   3.202 -0.3507 -0.3318  0.2068
    4MOL    C71 1817   5.911   4.716   3.098  0.0339  0.1255 -0.5195
    4MOL    O72 1818   5.790   4.792   3.099  0.4360  0.1432  0.2836
    4MOL    H73 1819   5.182   4.197   3.602 -1.2467  0.3395  0.2230
    4MOL    H74 1820   5.354   4.251   3.655 -1.0499 -2.5252  0.2105
    4MOL    H75 1821   5.327   4.453   3.497 -0.2734  0.3328 -0.2421
    4MOL    H76 1822   5.209   4.351   3.316 -1.2108  0.9356 -0.4558
    4MOL    H77 1823   5.489   4.234   3.464 -0.5901 -0.4676  0.3447
    4MOL    H78 1824   5.353   4.178   3.375 -0.7252 -0.2719  0.2376
    4MOL    H79 1825   5.457   4.203   3.138  0.0905 -0.2928  0.8180
    4MOL    H80 1826   5.587   4.196   3.245  0.1925 -0.1486  0.1565
    4MOL    H81 1827   5.517   4.452   3.098  1.3536  0.8270  0.2787
    4MOL    H82 1828   5.633   4.331   3.039 -0.2371 -3.4297  1.4978
    4MOL    H83 1829   5.757   4.382   3.267  2.5307  2.6360 -0.8143
    4MOL    H84 1830   5.650   4.523   3.287  2.7092  0.0595  2.7729
    4MOL    H85 1831   5.846   4.634   3.277  2.3445 -0.2294  0.8252
    4MOL    H86 1832   6.033   4.489   3.125 -1.8278 -0.0147 -0.8606
    4MOL    H87 1833   5.992   4.775   3.139 -0.8982  1.1738 -0.1830
    4MOL    H88 1834   5.943   4.679   3.000 -1.7078  0.0974 -1.1064
    4MOL    C89 1835   5.746   4.856   2.976  0.4049  0.4125  0.0520
    4MOL    C90 1836   5.692   4.750   2.882  0.7885  0.0845  0.3875
    4MOL    O91 1837   5.569   4.694   2.936 -0.3574 -0.0985 -0.2101
    4MOL    C92 1838   5.671   4.799   2.741  0.2495 -0.4776  0.7574
    4MOL    O93 1839   5.623   4.687   2.659  0.5541 -0.0910  0.6203
    4MOL    C94 1840   5.653   4.710   2.520 -0.1972 -0.4868 -0.1318
    4MOL    C95 1841   5.664   4.568   2.453  0.3679 -0.2576 -0.2464
    4MOL    C96 1842   5.681   4.579   2.296  0.2149 -0.0201  0.5850
    4MOL    O97 1843   5.587   4.494   2.230 -0.3732  0.3405  0.7100
    4MOL    C98 1844   5.556   4.543   2.097  0.4644  0.0356 -0.2315
    4MOL    O99 1845   5.644   4.496   1.999 -0.2164  0.0161  0.3171
    4MOL   C100 1846   5.406   4.499   2.070 -0.0768 -1.0503  0.1965
    4MOL   O101 1847   5.329   4.577   2.158 -0.7373  0.0854  0.2684
    4MOL   H102 1848   5.828   4.904   2.923  0.0377 -2.1806 -2.9921
    4MOL   H103 1849   5.668   4.929   3.000 -0.0550  0.0457 -0.3286
    4MOL   H104 1850   5.765   4.670   2.870  0.7936 -0.1292  1.7718
    4MOL   H105 1851   5.604   4.654   3.014 -0.6303  0.8665  0.4037
    4MOL   H106 1852   5.602   4.884   2.739 -0.2027 -0.8582 -0.6072
    4MOL   H107 1853   5.768   4.840   2.712 -0.2426  0.2497  0.1190
    4MOL   H108 1854   5.743   4.768   2.505 -0.9756  0.6577 -0.4568
    4MOL   H109 1855   5.573   4.772   2.479  1.3232  2.1948  0.8221
    4MOL   H110 1856   5.585   4.500   2.483  1.1259 -0.7809  0.5536
    4MOL   H111 1857   5.757   4.528   2.494 -0.9334 -0.3196  2.7601
    4MOL   H112 1858   5.682   4.684   2.266 -0.0440 -0.6665 -1.8455
    4MOL   H113 1859   5.779   4.533   2.280 -0.4150 -2.1954  2.6787
    4MOL   H114 1860   5.553   4.651   2.085  0.6290 -0.1182 -1.7000
    4MOL   H115 1861   5.628   4.404   1.987 -0.7982 -0.1840  2.4273
    4MOL   H116 1862   5.377   4.511   1.966 -1.8429 -0.5450  0.7371
    4MOL   H117 1863   5.406   4.394   2.101 -0.6302 -1.1139 -0.0291
    4MOL   C118 1864   5.189   4.535   2.163  0.6271  0.2059  0.2123
    4MOL   C119 1865   5.110   4.559   2.030  0.3511 -0.1824 -0.1724
    4MOL   O120 1866   5.130   4.454   1.933  0.1054  0.2653 -0.1230
    4MOL   C121 1867   5.136   4.707   1.980 -0.7386  0.5000 -0.0497
    4MOL   O122 1868   5.041   4.721   1.882 -0.4513  0.0666 -0.1377
    4MOL   C123 1869   5.069   4.828   1.791 -0.1674  0.1684  0.0923
    4MOL   C124 1870   4.937   4.863   1.725 -0.8122 -0.9359  0.0366
    4MOL   C125 1871   4.833   4.940   1.813 -0.2727  0.1001  0.1922
    4MOL   O126 1872   4.701   4.929   1.759  0.4948  0.2438 -0.2210
    4MOL   C127 1873   4.599   4.949   1.856  0.1009  0.1852  0.4561
    4MOL   O128 1874   4.582   4.833   1.933  0.4239 -0.3165 -0.3960
    4MOL   C129 1875   4.475   4.966   1.775  0.5739  0.3429 -0.2541
    4MOL   O130 1876   4.451   4.832   1.719 -0.7928  0.1236 -0.6988
    4MOL   H131 1877   5.185   4.430   2.192 -0.8790  0.6824  1.7819
    4MOL   H132 1878   5.143   4.592   2.244  0.5195  0.3780  0.0312
    4MOL   H133 1879   5.007   4.565   2.064  0.0645  0.2267 -1.1116
    4MOL   H134 1880   5.073   4.473   1.859 -0.4111  1.0218  0.4626
    4MOL   H135 1881   5.114   4.783   2.054  0.6103 -0.9006  1.8349
    4MOL   H136 1882   5.235   4.707   1.935 -1.1019  3.3035 -0.9392
    4MOL   H137 1883   5.144   4.805   1.716 -0.2217  0.0985  0.0588
    4MOL   H138 1884   5.117   4.918   1.829 -0.5130  1.0913 -1.6137
    4MOL   H139 1885   4.896   4.773   1.679  0.4190 -0.7215 -1.5361
    4MOL   H140 1886   4.967   4.932   1.646  0.7184 -0.4829  1.0111
    4MOL   H141 1887   4.836   4.891   1.911  0.5191  1.9915  1.1291
    4MOL   H142 1888   4.848   5.047   1.824 -0.8123  0.3219 -1.1262
    4MOL   H143 1889   4.627   5.032   1.921  1.2734 -0.8541  1.3021
    4MOL   H144 1890   4.527   4.777   1.880  1.9122 -0.9226 -1.3157
    4MOL   H145 1891   4.395   4.983   1.847  1.0942 -2.3406  1.0365
    4MOL   H146 1892   4.469   5.058   1.717 -1.2480  1.2620  1.3480
    4MOL   C147 1893   4.347   4.839   1.627  0.5260 -0.4452  0.0842
    4MOL   C148 1894   4.335   4.694   1.590  0.1417  0.1526  0.3392
    4MOL   O149 1895   4.432   4.650   1.499  0.5183  0.2194  0.0529
    4MOL   C150 1896   4.197   4.659   1.532 -0.2005  0.6149 -0.1205
    4MOL   O151 1897   4.183   4.518   1.556  0.8843 -0.7430  0.3643
    4MOL   C152 1898   4.072   4.455   1.491  0.2339 -0.3899 -0.0096
    4MOL   C153 1899   4.069   4.306   1.517  0.6481  0.5876 -0.1962
    4MOL   C154 1900   3.951   4.241   1.440 -0.2205 -0.6016 -0.3635
    4MOL   O155 1901   3.929   4.107   1.489  0.5766 -0.2156 -0.2518
    4MOL   C156 1902   3.843   4.031   1.413  0.0759 -0.4134  0.9023
    4MOL   O157 1903   3.898   4.017   1.282  0.3133 -0.2827  0.2222
    4MOL   C158 1904   3.702   4.087   1.403  0.3363 -0.4993 -0.0664
    4MOL   O159 1905   3.620   3.981   1.368 -0.3559  0.3386  0.9377
    4MOL   H160 1906   4.363   4.914   1.550  0.1066  0.1368  0.5589
    4MOL   H161 1907   4.259   4.867   1.685  1.3138  3.3470 -0.4658
    4MOL   H162 1908   4.337   4.629   1.678 -0.4282 -1.3089 -0.7011
    4MOL   H163 1909   4.420   4.558   1.483 -0.0185  0.3267 -0.1631
    4MOL   H164 1910   4.111   4.717   1.567  0.1359  3.4878 -3.6985
    4MOL   H165 1911   4.181   4.670   1.425  0.7455  0.1160 -0.3152
    4MOL   H166 1912   4.077   4.474   1.384  1.1858  0.3824  0.1596
    4MOL   H167 1913   3.979   4.506   1.516  0.6904  0.1697  0.5891
    4MOL   H168 1914   4.067   4.273   1.621  1.0046  2.8890  0.5770
    4MOL   H169 1915   4.157   4.252   1.482 -1.0084 -1.8270 -0.7401
    4MOL   H170 1916   3.863   4.298   1.470  1.4253  1.6810  0.2284
    4MOL   H171 1917   3.965   4.255   1.333  1.8492 -3.2239 -0.4804
    4MOL   H172 1918   3.848   3.931   1.458  0.9267 -0.7810  0.0048
    4MOL   H173 1919   3.827   4.011   1.220  1.3690  2.9797 -1.3878
    4MOL   H174 1920   3.665   4.141   1.491 -0.2227  1.9387 -1.7483
    4MOL   H175 1921   3.697   4.162   1.324 -0.4118  0.3231  0.7409
    4MOL   C176 1922   3.480   4.020   1.374 -0.1009  0.4532 -0.6046
    4MOL   C177 1923   3.393   3.899   1.317 -0.4065 -0.1175  0.1095
    4MOL   O178 1924   3.380   3.922   1.177  0.6898  0.1487  0.1811
    4MOL   C179 1925   3.254   3.891   1.376 -0.1650  0.4995  0.3703
    4MOL   O180 1926   3.175   4.011   1.367  0.3824 -0.2733 -0.0644
    4MOL   C181 1927   3.049   3.994   1.300 -0.7103 -0.1088 -0.1270
    4MOL   C182 1928   2.972   4.126   1.316  0.3832 -0.3828 -0.3742
    4MOL   C183 1929   2.826   4.119   1.287  0.2158 -0.3061 -0.3742
    4MOL   O184 1930   2.807   4.068   1.157 -0.0987  0.8039 -0.0931
    4MOL   C185 1931   2.678   4.032   1.130 -0.1285  0.4472  0.0114
    4MOL   O186 1932   2.641   3.910   1.194  0.0820  0.1602 -0.4729
    4MOL   C187 1933   2.676   4.020   0.975  0.8094  0.4400 -0.4498
    4MOL   O188 1934   2.551   4.062   0.944  0.1943 -0.2077 -0.1270
    4MOL   H189 1935   3.459   4.105   1.308 -0.5695  2.5227  2.1211
    4MOL   H190 1936   3.463   4.049   1.478  0.1668 -1.6245  0.0270
    4MOL   H191 1937   3.433   3.799   1.332 -0.1281 -0.1650 -0.8779
    4MOL   H192 1938   3.330   4.001   1.167  1.2833  0.7141  1.5815
    4MOL   H193 1939   3.196   3.804   1.345 -1.6329  1.5920  0.0523
    4MOL   H194 1940   3.281   3.870   1.480  2.1580 -0.6553 -0.4324
    4MOL   H195 1941   3.005   3.922   1.370  0.1570 -0.1733  0.3502
    4MOL   H196 1942   3.069   3.956   1.200 -0.2831  0.3095 -0.2009
    4MOL   H197 1943   3.031   4.206   1.270 -1.2606  0.6632 -0.7274
    4MOL   H198 1944   2.976   4.162   1.418 -0.1030 -0.6642 -0.2531
    4MOL   H199 1945   2.777   4.058   1.362  0.9705 -0.5126 -0.0436
    4MOL   H200 1946   2.778   4.217   1.293  0.7719 -0.0776  0.5096
    4MOL   H201 1947   2.609   4.114   1.149  1.1915  2.3867 -3.3068
    4MOL   H202 1948   2.706   3.849   1.164 -1.7690 -2.9846  1.6447
    4MOL   H203 1949   2.755   4.083   0.935  2.5277 -0.9801  0.6268
    4MOL   H204 1950   2.696   3.920   0.937 -0.0904 -0.6011  1.7133
    4MOL   C205 1951   2.533   4.104   0.805 -0.4337  0.0538 -0.1223
    4MOL   C206 1952   2.385   4.092   0.759  0.7640 -0.3385 -0.4085
    4MOL   O207 1953   2.317   4.204   0.819 -0.1572 -0.0614  0.0000
    4MOL   C208 1954   2.352   4.093   0.609 -0.2121 -0.5185 -0.0836
    4MOL   O209 1955   2.215   4.071   0.584 -0.8063 -0.0924  0.0036
    4MOL   C210 1956   2.182   4.035   0.451  0.3301  0.6004  0.1479
    4MOL   C211 1957   2.196   4.143   0.345  0.0357 -0.0776  0.4795
    4MOL   C212 1958   2.114   4.268   0.379  0.0054 -0.2520 -0.2996
    4MOL   O213 1959   2.121   4.366   0.277 -0.1538 -0.6118  0.2759
    4MOL   C214 1960   2.096   4.498   0.314  0.4198 -0.1531  0.9557
    4MOL   O215 1961   1.965   4.514   0.365 -0.1525 -0.1049  0.0702
    4MOL   C216 1962   2.110   4.574   0.178 -0.6581 -0.4066 -0.7575
    4MOL   O217 1963   2.067   4.495   0.069  0.0160 -0.3552  0.2397
    4MOL   H218 1964   2.592   4.038   0.743 -1.7548 -1.9661  0.7204
    4MOL   H219 1965   2.572   4.205   0.795  0.1103  0.0207  1.4889
    4MOL   H220 1966   2.344   4.001   0.802  0.7400 -0.8365 -1.4629
    4MOL   H221 1967   2.336   4.194   0.911  2.2776  1.6138 -0.2482
    4MOL   H222 1968   2.363   4.196   0.575  0.5900  0.3076  2.5033
    4MOL   H223 1969   2.427   4.031   0.560  0.3443 -1.4619  1.8724
    4MOL   H224 1970   2.078   4.001   0.450  0.3089  0.6363 -2.2367
    4MOL   H225 1971   2.240   3.950   0.416  2.0832  1.5244  0.7447
    4MOL   H226 1972   2.175   4.105   0.245 -0.8753  0.8091  0.3200
    4MOL   H227 1973   2.304   4.159   0.349  0.2016 -1.3588  1.1834
    4MOL   H228 1974   2.008   4.252   0.397 -0.3636  2.5229  0.1336
    4MOL   H229 1975   2.153   4.305   0.474  1.4110 -2.6753  0.1162
    4MOL   H230 1976   2.168   4.533   0.387  2.3803 -0.8856 -0.5754
    4MOL   H231 1977   1.959   4.605   0.390 -4.3128 -0.1656 -0.5002
    4MOL   H232 1978   2.082   4.679   0.186 -0.6329 -0.5483  1.5353
    4MOL   H233 1979   2.218   4.582   0.162 -0.5131  1.9353  1.0143
    4MOL   C234 1980   2.051   4.564   7.634  0.5534 -0.1019 -0.6060
    4MOL   C235 1981   2.020   4.465   7.521  0.4793 -0.1805  0.0631
    4MOL   O236 1982   1.909   4.394   7.566 -0.1216  0.1211 -0.5949
    4MOL   C237 1983   2.129   4.357   7.505 -0.5265  0.5909  0.2670
    4MOL   O238 1984   2.244   4.403   7.430  0.8322  0.0997 -0.1332
    4MOL   C239 1985   2.356   4.319   7.452 -0.0023  0.9059  0.6627
    4MOL   C240 1986   2.481   4.403   7.421  0.3755  0.1044  0.4485
    4MOL   C241 1987   2.500   4.521   7.516  0.1215  0.1328 -0.7865
    4MOL   O242 1988   2.543   4.472   7.650  0.1344 -0.5283 -0.1928
    4MOL   C243 1989   2.549   4.575   0.048  0.5444  0.4207 -0.7275
    4MOL   O244 1990   2.610   4.693   7.691 -0.0610  0.5610 -0.3434
    4MOL   C245 1991   2.631   4.531   0.169  0.3857  0.4102 -0.0974
    4MOL   O246 1992   2.573   4.424   0.233 -0.0102  0.2109 -0.1793
    4MOL   H247 1993   1.980   4.647   7.637 -1.0187 -1.4645  0.6694
    4MOL   H248 1994   2.146   4.606   7.601  1.9598 -1.2505  1.8904
    4MOL   H249 1995   1.996   4.512   7.426  1.4753 -0.1255 -0.1687
    4MOL   H250 1996   1.934   4.341   7.640 -0.3785 -1.2445 -1.4512
    4MOL   H251 1997   2.172   4.338   7.603  3.7230  1.5347 -1.3102
    4MOL   H252 1998   2.087   4.267   7.461  0.6124  0.9119 -1.5639
    4MOL   H253 1999   2.340   4.248   7.371  0.0016  1.2819  0.3243
    4MOL   H254 2000   2.370   4.273   7.549 -1.5124 -0.1899  0.3735
    4MOL   H255 2001   2.475   4.434   7.317  2.6119  0.6707  0.4607
    4MOL   H256 2002   2.573   4.345   7.420  0.5302  0.3628 -0.2963
    4MOL   H257 2003   2.576   4.587   7.474  1.3974 -0.0534  1.1808
    4MOL   H258 2004   2.409   4.581   7.516 -2.1680 -3.1819  0.9938
    4MOL   H259 2005   2.449   4.602   0.082 -0.1826 -3.3370  0.2718
    4MOL   H260 2006   2.680   4.660   7.636 -0.1613  2.0173 -1.3708
    4MOL   H261 2007   2.732   4.520   0.130  0.5502  1.1771  0.1092
    4MOL   H262 2008   2.631   4.623   0.227 -0.8258 -0.2593  0.9884
    4MOL   C263 2009   2.630   4.409   0.365  0.1489 -0.3116  0.0201
    4MOL   C264 2010   2.754   4.329   0.362  0.0693 -0.0642  0.2201
    4MOL   O265 2011   2.872   4.406   0.343 -0.0922 -0.5674  0.1498
    4MOL   C266 2012   2.789   4.242   0.481 -0.5893 -0.0286  0.3609
    4MOL   O267 2013   2.693   4.141   0.487 -0.5329  0.4106  0.4353
    4MOL   C268 2014   2.759   4.022   0.449 -0.1049 -0.0760 -0.2212
    4MOL   C269 2015   2.664   3.918   0.402 -0.5096  1.0443 -0.0182
    4MOL   C270 2016   2.557   3.967   0.306  0.3223 -0.7416 -0.0246
    4MOL   O271 2017   2.610   4.039   0.198  0.3411  0.4208 -0.2584
    4MOL   C272 2018   2.514   4.067   0.103 -0.5476  0.0763  0.2303
    4MOL   O273 2019   2.426   4.173   0.147  0.0294  0.0475 -0.3201
    4MOL   C274 2020   2.603   4.103   7.676 -0.0494  0.0561 -0.4821
    4MOL   O275 2021   2.675   3.987   7.650  0.1954  0.2330 -0.1899
    4MOL   H276 2022   2.555   4.355   0.424  0.2128 -0.0109  0.3742
    4MOL   H277 2023   2.642   4.502   0.420 -0.2846 -0.2589  0.0308
    4MOL   H278 2024   2.754   4.264   0.275 -1.7999 -0.3556  0.4299
    4MOL   H279 2025   2.943   4.344   0.335 -0.9453 -1.4043 -1.1834
    4MOL   H280 2026   2.892   4.207   0.477 -0.5808 -0.1326  1.4164
    4MOL   H281 2027   2.794   4.288   0.579 -0.2128 -2.4253  1.5008
    4MOL   H282 2028   2.821   3.989   0.533 -1.7345 -1.4211  0.4888
    4MOL   H283 2029   2.821   4.047   0.363  0.3753 -0.9208 -0.1312
    4MOL   H284 2030   2.608   3.876   0.485 -0.5566 -0.5305 -0.8337
    4MOL   H285 2031   2.715   3.830   0.362 -0.7811  0.0542  1.7911
    4MOL   H286 2032   2.499   3.884   0.265  0.6622 -0.2298 -1.5649
    4MOL   H287 2033   2.493   4.036   0.361 -1.1133 -0.4751 -2.0042
    4MOL   H288 2034   2.460   3.975   0.081 -0.2866 -0.4062  1.5523
    4MOL   H289 2035   2.477   4.245   0.181 -0.2171 -0.1391  0.4529
    4MOL   H290 2036   2.536   4.138   7.598 -0.4107  0.8092  0.1672
    4MOL   H291 2037   2.656   4.193   0.010 -0.4452  0.4414 -0.9629
    4MOL   C292 2038   2.795   4.007   7.572  0.3123  0.3942 -0.0319
    4MOL   C293 2039   2.907   4.038   7.670 -0.7293  0.0690  0.1184
    4MOL   O294 2040   2.908   3.930   0.077  0.1041  0.1471  0.0560
    4MOL   C295 2041   3.043   4.062   7.606 -0.0699  0.7961  0.2533
    4MOL   O296 2042   3.107   4.154   7.690  0.0582 -0.2012  0.1962
    4MOL   C297 2043   3.251   4.160   7.662 -0.4355 -0.5924  0.3818
    4MOL   C298 2044   3.293   4.263   7.559 -0.8318  0.4127 -0.0326
    4MOL   C299 2045   3.447   4.285   7.548 -0.2831  0.2109 -0.8673
    4MOL   O300 2046   3.496   4.363   7.655 -0.0655  0.0777  0.7623
    4MOL   C301 2047   3.634   4.393   7.636 -0.7830  0.2127 -0.4135
    4MOL   O302 2048   3.634   4.499   7.550  0.0970 -0.2369  0.4284
    4MOL   C303 2049   3.700   4.439   0.076 -0.9407 -0.1995  0.3895
    4MOL   O304 2050   3.765   4.327   0.129 -0.5358  0.3779 -0.0464
    4MOL   H305 2051   2.823   3.919   7.515 -0.3695  0.3044 -0.2371
    4MOL   H306 2052   2.803   4.089   7.501 -2.0559 -1.0582 -2.0813
    4MOL   H307 2053   2.870   4.128   0.024  0.6003  2.1253 -2.5551
    4MOL   H308 2054   2.823   3.888   0.071 -0.7121  1.9876 -2.1044
    4MOL   H309 2055   3.097   3.969   7.588  1.4424  1.6477  0.2780
    4MOL   H310 2056   3.039   4.113   7.510  2.2381  1.5417  0.5263
    4MOL   H311 2057   3.297   4.068   7.627 -1.4640 -0.9652 -0.0143
    4MOL   H312 2058   3.308   4.186   0.056  1.3161  2.3457 -1.5354
    4MOL   H313 2059   3.249   4.361   7.576 -0.2690  0.7768 -0.6590
    4MOL   H314 2060   3.239   4.247   7.465 -0.5717 -0.3755 -0.0518
    4MOL   H315 2061   3.495   4.187   7.554  0.5828  0.7517  1.4609
    4MOL   H316 2062   3.473   4.341   7.458  0.1147 -1.3939 -1.7807
    4MOL   H317 2063   3.689   4.310   7.592 -1.5048 -0.7510  0.4534
    4MOL   H318 2064   3.581   4.572   7.579  0.1127  0.1440 -0.4578
    4MOL   H319 2065   3.629   4.486   0.144 -1.9106  2.6249 -2.4424
    4MOL   H320 2066   3.776   4.514   0.055  0.3257 -0.9787  2.0971
    4MOL   C321 2067   3.689   4.226   0.192  0.0270 -0.0770 -0.2853
    4MOL   C322 2068   3.791   4.128   0.252  0.0485  0.0399 -0.2967
    4MOL   O323 2069   3.853   4.193   0.361 -0.3061  0.3644  0.3439
    4MOL   C324 2070   3.726   3.994   0.311  0.3399 -0.7504 -0.5721
    4MOL   O325 2071   3.827   3.896   0.343  0.0577 -0.1612 -0.2719
    4MOL   C326 2072   3.850   3.882   0.483  0.1377 -0.1138  0.1111
    4MOL   C327 2073   3.975   3.805   0.519 -0.1127 -0.1099 -0.4853
    4MOL   C328 2074   4.104   3.875   0.490  0.1382  0.1313  0.0698
    4MOL   O329 2075   4.101   3.995   0.569 -0.1124  0.2329 -0.2808
    4MOL   C330 2076   4.190   4.091   0.527 -0.1970 -0.5869 -0.4456
    4MOL   O331 2077   4.156   4.131   0.394 -0.0182  0.3411  0.0823
    4MOL   C332 2078   4.186   4.208   0.628  0.0730  0.5211 -0.0860
    4MOL   O333 2079   4.217   4.161   0.757  0.4027 -0.0948  0.0899
    4MOL   H334 2080   3.627   4.177   0.117  0.2601 -1.0566  0.1529
    4MOL   H335 2081   3.621   4.265   0.269 -0.8491 -0.5571 -0.8117
    4MOL   H336 2082   3.874   4.104   0.185 -0.7706 -1.1796 -0.8800
    4MOL   H337 2083   3.785   4.234   0.412 -0.1924 -1.4177  1.9584
    4MOL   H338 2084   3.657   3.960   0.235 -1.2676 -1.5178  1.2057
    4MOL   H339 2085   3.659   4.009   0.396  0.6210 -0.2277 -0.4404
    4MOL   H340 2086   3.762   3.845   0.535 -0.9589  1.2426 -0.7410
    4MOL   H341 2087   3.863   3.984   0.520  0.5161 -0.8129  1.9452
    4MOL   H342 2088   3.969   3.780   0.625 -1.0196 -0.6352 -0.6518
    4MOL   H343 2089   3.970   3.713   0.460 -0.7160  0.1863 -0.9006
    4MOL   H344 2090   4.187   3.808   0.515  0.2795  1.0189  2.0803
    4MOL   H345 2091   4.108   3.884   0.381  0.0121 -0.2865  0.0285
    4MOL   H346 2092   4.288   4.045   0.511 -0.1022 -0.8438  0.8133
    4MOL   H347 2093   4.072   4.173   0.398 -0.2730 -0.1532 -0.0970
    4MOL   H348 2094   4.249   4.286   0.584 -0.8366  2.3051  1.7046
    4MOL   H349 2095   4.086   4.253   0.626  0.5132  1.6139  1.5469
    4MOL   C350 2096   4.256   4.265   0.839  0.3735 -0.3987 -0.1966
    4MOL   C351 2097   4.323   4.214   0.962  0.5734 -0.2670 -0.7212
    4MOL   O352 2098   4.403   4.314   1.025  0.0824  0.4582  0.2424
    4MOL   C353 2099   4.220   4.172   1.074 -0.4480 -0.3950  0.9804
    4MOL   O354 2100   4.301   4.089   1.157 -0.3036 -0.8419 -0.0464
    4MOL   C355 2101   4.225   4.014   1.247  0.8758  0.0660  0.0821
    4MOL   C356 2102   4.303   3.909   1.310  0.4820  0.4029  0.2339
    4MOL   C357 2103   4.251   3.874   1.447  0.6947  0.5378 -1.2902
    4MOL   O358 2104   4.324   3.764   1.500  0.1742 -0.2227  0.1877
    4MOL   C359 2105   4.268   3.707   1.611  0.4700  0.2797 -0.1951
    4MOL   O360 2106   4.142   3.649   1.589 -0.2196  0.1559  0.7018
    4MOL   C361 2107   4.359   3.599   1.660 -0.4139 -0.4290 -0.4730
    4MOL   O362 2108   4.366   3.501   1.565 -0.5015  0.1625 -0.0951
    4MOL   H363 2109   4.169   4.326   0.859  0.8642  0.6489 -1.1616
    4MOL   H364 2110   4.325   4.339   0.797 -1.1219  0.1500 -1.7358
    4MOL   H365 2111   4.377   4.124   0.932  3.8368  0.7350  1.8653
    4MOL   H366 2112   4.449   4.261   1.087 -2.0722 -1.7067  0.0585
    4MOL   H367 2113   4.176   4.259   1.122 -0.3394 -0.4761  1.2257
    4MOL   H368 2114   4.138   4.119   1.025 -0.6843  1.5280 -0.7940
    4MOL   H369 2115   4.135   3.978   1.198 -0.2653  3.3874 -0.4149
    4MOL   H370 2116   4.187   4.080   1.326  1.2435  1.0739 -0.5752
    4MOL   H371 2117   4.410   3.930   1.317  0.3211  1.9839 -1.6718
    4MOL   H372 2118   4.302   3.820   1.248 -0.0775  0.6174 -0.0572
    4MOL   H373 2119   4.259   3.955   1.519 -1.6349 -1.6237  1.5240
    4MOL   H374 2120   4.144   3.860   1.454  1.1581 -1.9941  1.6209
    4MOL   H375 2121   4.250   3.790   1.680 -0.3994  1.0622 -1.3482
    4MOL   H376 2122   4.149   3.567   1.542  0.4670  0.3613  0.4435
    4MOL   H377 2123   4.461   3.637   1.666 -0.5666 -0.2155  1.1088
    4MOL   H378 2124   4.330   3.572   1.762  1.1147  1.6858  0.5759
    4MOL   C379 2125   4.459   3.400   1.589 -0.6743 -0.2706  0.3588
    4MOL   C380 2126   4.417   3.311   1.707 -0.5077  0.3896 -0.2419
    4MOL   O381 2127   4.302   3.233   1.693  0.4077  0.3777 -0.1793
    4MOL   C382 2128   4.529   3.212   1.743  0.8761 -0.1376 -0.6205
    4MOL   O383 2129   4.647   3.292   1.766  0.2849 -0.6746 -0.0683
    4MOL   C384 2130   4.760   3.214   1.771  0.3830 -1.1097  0.0917
    4MOL   C385 2131   4.870   3.286   1.697 -0.3205 -0.1792 -0.0192
    4MOL   C386 2132   4.849   3.302   1.547  0.1363  0.3319  0.2173
    4MOL   O387 2133   4.960   3.355   1.488  0.7285  0.2824 -0.5101
    4MOL   C388 2134   4.957   3.351   1.348 -0.3498  0.0860 -1.1653
    4MOL   O389 2135   4.856   3.431   1.303 -0.1751 -0.0998  0.4580
    4MOL   C390 2136   5.087   3.406   1.301  0.3993 -0.6823 -0.2692
    4MOL   O391 2137   5.114   3.538   1.359 -0.7170  0.1064 -0.0885
    4MOL   H392 2138   4.557   3.445   1.605 -1.1441  1.6072 -1.8506
    4MOL   H393 2139   4.457   3.329   1.507 -4.0094 -1.7871  1.6325
    4MOL   H394 2140   4.399   3.370   1.797  1.3056  1.2054 -0.3841
    4MOL   H395 2141   4.319   3.173   1.622  4.2098  0.3067  0.6845
    4MOL   H396 2142   4.518   3.154   1.835 -0.1685  1.5595  0.3687
    4MOL   H397 2143   4.535   3.142   1.660 -0.6709  2.0461 -2.6284
    4MOL   H398 2144   4.742   3.116   1.726  2.0600 -0.5382 -1.9489
    4MOL   H399 2145   4.784   3.198   1.876  0.6279  0.7925  0.3384
    4MOL   H400 2146   4.963   3.232   1.717  0.0376  0.3739 -0.1753
    4MOL   H401 2147   4.879   3.387   1.736  2.0943 -1.2069  2.2772
    4MOL   H402 2148   4.813   3.211   1.499 -2.9709  1.5502  0.1264
    4MOL   H403 2149   4.758   3.359   1.530 -0.8139 -1.5447 -1.2036
    4MOL   H404 2150   4.942   3.252   1.305 -1.2714 -0.2231 -0.1389
    4MOL   H405 2151   4.860   3.521   1.332  0.3151  1.3577 -3.8239
    4MOL   H406 2152   5.168   3.341   1.334  0.7452  0.6125  1.5708
    4MOL   H407 2153   5.078   3.399   1.193 -0.3310  0.3117 -0.2855
    4MOL   C408 2154   5.217   3.613   1.289  0.0877 -0.1336  0.6785
    4MOL   C409 2155   5.142   3.693   1.180  0.1789 -0.2082 -0.5513
    4MOL   O410 2156   5.101   3.614   1.071  0.3187 -0.9766 -0.0345
    4MOL   C411 2157   5.232   3.811   1.127 -0.6080  0.6798 -0.0310
    4MOL   O412 2158   5.341   3.750   1.056  0.1925 -0.4309 -0.6749
    4MOL   C413 2159   5.451   3.840   1.054  0.2501 -0.1545  0.6413
    4MOL   C414 2160   5.551   3.774   0.961  0.7301  0.2796 -0.2648
    4MOL   C415 2161   5.688   3.837   0.963 -0.0327  0.7459  0.7239
    4MOL   O416 2162   5.677   3.974   0.932 -0.0198 -0.3118  0.5516
    4MOL   C417 2163   5.790   4.032   0.879 -0.3561  0.1000  0.1155
    4MOL   O418 2164   5.891   4.043   0.973  0.8029 -0.3119 -0.1252
    4MOL   C419 2165   5.751   4.178   0.828 -0.0521  0.2896 -0.0030
    4MOL   O420 2166   5.740   4.255   0.941  0.2207  0.0826 -0.2814
    4MOL   H421 2167   5.297   3.559   1.238 -0.9712 -1.4331  0.3833
    4MOL   H422 2168   5.269   3.680   1.358 -0.8966  0.6567  0.6529
    4MOL   H423 2169   5.048   3.732   1.219 -0.3831 -2.7529  0.7525
    4MOL   H424 2170   5.180   3.583   1.028  0.5720 -0.9514  0.4086
    4MOL   H425 2171   5.182   3.880   1.060 -1.1230 -1.3514 -1.7769
    4MOL   H426 2172   5.254   3.873   1.214 -1.6856  2.1055 -0.7526
    4MOL   H427 2173   5.413   3.930   1.007  0.2859 -1.1797 -1.4080
    4MOL   H428 2174   5.488   3.866   1.153 -0.3734  1.1768  0.5246
    4MOL   H429 2175   5.529   3.764   0.855  2.2194  1.0052 -0.6578
    4MOL   H430 2176   5.557   3.668   0.983 -1.5404  0.0209 -0.7825
    4MOL   H431 2177   5.742   3.815   1.055  1.0063 -2.9573 -0.6744
    4MOL   H432 2178   5.741   3.793   0.878 -2.4364 -0.1586 -0.3395
    4MOL   H433 2179   5.821   3.973   0.792  0.1891  0.6536 -0.0743
    4MOL   H434 2180   5.851   4.099   1.038 -1.9069 -1.8427 -0.3898
    4MOL   H435 2181   5.830   4.223   0.768  1.8957 -0.5835  1.8176
    4MOL   H436 2182   5.663   4.169   0.765 -0.2086  1.7017 -0.0055
    4MOL   C437 2183   5.746   4.393   0.918  0.3349  0.1587  0.6736
    4MOL   C438 2184   5.629   4.439   0.827 -0.4486  0.4867  0.1275
    4MOL   O439 2185   5.680   4.440   0.698  0.1079 -0.1486  0.5046
    4MOL   C440 2186   5.561   4.571   0.855 -0.1910 -0.0334  0.7545
    4MOL   O441 2187   5.633   4.684   0.796  0.2887 -0.5460 -0.6349
    4MOL   C442 2188   5.587   4.816   0.841  0.1814  0.3040 -0.0761
    4MOL   C443 2189   5.658   4.935   0.776 -0.8866 -0.6241 -0.1146
    4MOL   C444 2190   5.627   5.071   0.831 -0.0011  0.1157 -0.1140
    4MOL   O445 2191   5.665   5.166   0.735  0.3071  0.0138 -0.6650
    4MOL   C446 2192   5.670   5.295   0.789 -0.1400 -0.1503 -0.0664
    4MOL   O447 2193   5.545   5.338   0.834 -0.1374 -0.1596 -0.0212
    4MOL   C448 2194   5.717   5.392   0.674 -1.0922  0.4570 -0.3647
    4MOL   O449 2195   5.850   5.428   0.695  0.6691 -0.1693 -0.1102
    4MOL   H450 2196   5.710   4.430   1.014 -0.2574 -0.8850  0.8677
    4MOL   H451 2197   5.842   4.434   0.891 -0.0999 -0.1737 -1.4565
    4MOL   H452 2198   5.553   4.361   0.836 -0.5842  0.6556  0.4459
    4MOL   H453 2199   5.707   4.530   0.688 -0.6498  0.1179  0.8677
    4MOL   H454 2200   5.466   4.566   0.802 -1.3405  1.3934  2.6101
    4MOL   H455 2201   5.535   4.581   0.960 -2.5068  1.2492  0.1047
    4MOL   H456 2202   5.580   4.827   0.949 -0.8664  1.5468 -0.2653
    4MOL   H457 2203   5.481   4.812   0.817 -0.2517 -1.4260  1.9821
    4MOL   H458 2204   5.635   4.939   0.670 -0.9397 -0.1429 -0.0851
    4MOL   H459 2205   5.766   4.932   0.783 -0.9916  0.4331  2.9105
    4MOL   H460 2206   5.521   5.090   0.851 -0.6079 -1.0508 -2.0371
    4MOL   H461 2207   5.681   5.080   0.926 -0.7444 -0.8039  0.4028
    4MOL   H462 2208   5.746   5.296   0.867  0.3676 -2.2142 -0.5085
    4MOL   H463 2209   5.487   5.342   0.760  1.4696  2.4163 -1.2054
    4MOL   H464 2210   5.703   5.358   0.571 -0.9404 -1.4147  0.2053
    4MOL   H465 2211   5.655   5.481   0.680  0.5441  1.6179 -0.3349
    4MOL   C466 2212   5.878   5.562   0.665 -0.1054 -0.1972 -0.6546
    4MOL   C467 2213   6.022   5.572   0.715 -0.7374 -0.0995 -0.0863
    4MOL   O468 2214   6.070   5.697   0.666  0.5627 -0.1878  0.1425
    4MOL   C469 2215   6.032   5.571   0.863  0.5493 -0.4300  0.7516
    4MOL   O470 2216   6.160   5.523   0.900 -0.2114  0.1737 -0.1401
    4MOL   C471 2217   6.156   5.479   1.034 -0.3412 -0.1166  0.9200
    4MOL   C472 2218   6.277   5.394   1.064 -0.1576 -0.1312 -0.1069
    4MOL   C473 2219   6.281   5.349   1.210  0.1594 -0.0908 -0.6645
    4MOL   O474 2220   6.383   5.261   1.208  0.1638 -0.2214 -0.2718
    4MOL   C475 2221   6.417   5.203   1.332 -0.2924  0.7141 -0.4078
    4MOL   O476 2222   6.548   5.234   1.376  0.5751 -0.1895 -0.0547
    4MOL   C477 2223   6.410   5.052   1.311 -0.0554  0.3294 -0.5617
    4MOL   O478 2224   6.500   5.017   1.204  0.1588 -0.2856 -0.7566
    4MOL   H479 2225   5.807   5.631   0.709  1.4452  1.8407 -1.2631
    4MOL   H480 2226   5.861   5.570   0.558 -2.3420  0.5830 -0.2631
    4MOL   H481 2227   6.083   5.485   0.689  1.2999  0.6052  2.1115
    4MOL   H482 2228   6.153   5.702   0.711  0.3525  1.6894  0.3491
    4MOL   H483 2229   6.003   5.666   0.908  0.4173  0.9177 -2.0485
    4MOL   H484 2230   5.963   5.490   0.887  0.0580  0.2061  1.5017
    4MOL   H485 2231   6.074   5.413   1.059 -1.1929 -0.0132 -1.4228
    4MOL   H486 2232   6.165   5.565   1.101  1.5305 -0.4687  1.1490
    4MOL   H487 2233   6.364   5.453   1.035 -0.1880  0.0658  0.2023
    4MOL   H488 2234   6.276   5.305   1.001 -0.1061  0.2882 -0.7082
    4MOL   H489 2235   6.290   5.438   1.274 -0.9915  0.1492 -0.8196
    4MOL   H490 2236   6.187   5.300   1.238  1.3596 -2.0015  0.0955
    4MOL   H491 2237   6.350   5.226   1.414  0.3425  0.7746  0.0979
    4MOL   H492 2238   6.604   5.186   1.317  1.3960 -0.7921  1.2070
    4MOL   H493 2239   6.442   5.011   1.406 -1.9607  2.3478  1.0175
    4MOL   H494 2240   6.308   5.017   1.302  0.2289 -0.0958 -2.3431
    4MOL   C495 2241   6.483   4.883   1.158 -0.0310  0.2001  0.8244
    4MOL   C496 2242   6.598   4.861   1.055 -0.3144 -0.7971 -0.7347
    4MOL   O497 2243   6.722   4.846   1.114 -0.0064  0.0670  0.3670
    4MOL   C498 2244   6.568   4.744   0.963  0.2466  0.7055  0.6562
    4MOL   O499 2245   6.547   4.624   1.045 -0.1310  0.6968  0.0299
    4MOL   C500 2246   6.486   4.519   0.974 -0.3248  0.7003  0.9456
    4MOL   C501 2247   6.500   4.386   1.056 -0.4282 -0.2380 -0.1640
    4MOL   C502 2248   6.400   4.381   1.174 -0.1414  0.0825  0.6267
    4MOL   O503 2249   6.269   4.376   1.129  0.0803 -0.2451 -0.1927
    4MOL   C504 2250   6.171   4.361   1.223 -0.0714  0.0338 -0.0642
    4MOL   O505 2251   6.173   4.237   1.276 -0.4520  0.0701 -0.2411
    4MOL   C506 2252   6.032   4.383   1.149 -0.2656  0.3654 -0.2694
    4MOL   O507 2253   6.021   4.521   1.099 -0.0655  0.2666 -0.7591
    4MOL   H508 2254   6.386   4.871   1.110  0.7752  3.5422 -1.8440
    4MOL   H509 2255   6.488   4.816   1.244 -0.8858  0.9416  1.4573
    4MOL   H510 2256   6.596   4.944   0.984  1.0448 -0.3069 -0.2093
    4MOL   H511 2257   6.712   4.761   1.155 -2.3310 -0.4098 -1.1107
    4MOL   H512 2258   6.481   4.771   0.903  0.8538  1.8542  0.2773
    4MOL   H513 2259   6.645   4.719   0.890  0.5488  1.5884  0.6718
    4MOL   H514 2260   6.548   4.501   0.886  1.1680 -1.3588  2.3592
    4MOL   H515 2261   6.387   4.541   0.936  0.9104  3.5961 -0.7367
    4MOL   H516 2262   6.601   4.361   1.090 -0.3021  0.4300 -0.0352
    4MOL   H517 2263   6.463   4.306   0.992 -0.8837 -0.7437  0.7193
    4MOL   H518 2264   6.429   4.295   1.233 -0.1505 -1.6060 -1.7578
    4MOL   H519 2265   6.416   4.464   1.243  0.6149  0.0588  0.4818
    4MOL   H520 2266   6.185   4.436   1.301  1.3747  0.1244 -0.3997
    4MOL   H521 2267   6.183   4.177   1.204  1.1847  0.2836 -0.2087
    4MOL   H522 2268   6.028   4.313   1.066 -1.4735 -0.7421  0.7141
    4MOL   H523 2269   5.947   4.359   1.213 -0.2624 -0.2228 -0.4886
    4MOL   C524 2270   5.947   4.613   1.171  0.3808 -0.1289 -0.2084
    4MOL   C525 2271   5.990   4.648   1.311  0.9210  0.7707 -0.1175
    4MOL   O526 2272   5.901   4.746   1.366  0.4423  0.7045  0.7473
    4MOL   C527 2273   6.134   4.689   1.320 -0.4351  0.5000 -0.4735
    4MOL   O528 2274   6.184   4.634   1.440  0.5670  0.1889  0.1845
    4MOL   C529 2275   6.307   4.694   1.475 -0.6071 -0.4912 -0.6408
    4MOL   C530 2276   6.345   4.634   1.611  0.3639 -0.1869 -0.2131
    4MOL   C531 2277   6.391   4.485   1.611  0.6934 -0.1721  0.3997
    4MOL   O532 2278   6.420   4.441   1.743  0.7320  0.2621  0.3708
    4MOL   C533 2279   6.462   4.307   1.748 -0.1652 -0.5636  0.0405
    4MOL   O534 2280   6.593   4.306   1.720  0.1976 -0.1167 -0.1415
    4MOL   C535 2281   6.434   4.260   1.890  0.1486  0.3626 -0.4905
    4MOL   O536 2282   6.320   4.183   1.901 -0.1039  0.1391 -0.4081
    4MOL   H537 2283   5.840   4.588   1.174  0.7143 -1.5438  2.0969
    4MOL   H538 2284   5.952   4.711   1.124 -3.1610  0.5658  0.7027
    4MOL   H539 2285   5.968   4.561   1.374 -1.0989  1.4871  0.2070
    4MOL   H540 2286   5.888   4.719   1.456 -1.2160 -1.9429 -0.2282
    4MOL   H541 2287   6.195   4.659   1.234  1.2197  0.6669  0.6078
    4MOL   H542 2288   6.143   4.797   1.309 -1.5988  0.5395 -1.0953
    4MOL   H543 2289   6.284   4.800   1.483  0.1866 -0.3798  0.3199
    4MOL   H544 2290   6.387   4.688   1.401  0.1395 -0.0744  0.1180
    4MOL   H545 2291   6.271   4.643   1.690  1.4465 -0.0548  0.7916
    4MOL   H546 2292   6.416   4.712   1.639 -0.8469  0.3595  1.4377
    4MOL   H547 2293   6.315   4.415   1.577  0.8646 -0.3891  0.4657
    4MOL   H548 2294   6.474   4.467   1.543 -0.0454 -0.4902 -0.4226
    4MOL   H549 2295   6.402   4.245   1.681  1.8611 -0.5437 -1.8473
    4MOL   H550 2296   6.642   4.351   1.787 -1.4014  0.7119  0.4791
    4MOL   H551 2297   6.524   4.213   1.930 -1.0440 -1.2982  0.2659
    4MOL   H552 2298   6.432   4.353   1.948 -0.8074  0.6535 -0.9820
    4MOL   C553 2299   6.312   4.117   2.027 -0.6578  1.3268 -0.3580
    4MOL   C554 2300   6.168   4.065   2.030  0.1651 -0.4308 -0.2831
    4MOL   O555 2301   6.138   4.003   1.904  0.2829  0.1853 -0.0167
    4MOL   C556 2302   6.073   4.182   2.061  0.3348 -0.0208  0.9631
    4MOL   O557 2303   5.941   4.140   2.073  0.1972  0.0435 -0.4660
    4MOL   C558 2304   5.852   4.243   2.121 -0.3563  0.1642  0.9004
    4MOL   C559 2305   5.709   4.187   2.130  0.0601  0.1839  0.6646
    4MOL   C560 2306   5.657   4.140   1.988 -0.2460 -0.6506 -1.1091
    4MOL   O561 2307   5.618   4.250   1.915  0.2228  0.4705  0.1775
    4MOL   C562 2308   5.608   4.216   1.775 -1.0459 -0.0203  0.0023
    4MOL   O563 2309   5.514   4.116   1.747 -0.0801 -0.0079  0.8786
    4MOL   C564 2310   5.581   4.345   1.701 -0.6199  0.5275  0.1402
    4MOL   O565 2311   5.690   4.432   1.706  0.2155  0.0078 -0.1219
    4MOL   H566 2312   6.338   4.176   2.115  0.5260  1.5324 -0.8346
    4MOL   H567 2313   6.372   4.026   2.027 -1.4258  0.8082  0.8894
    4MOL   H568 2314   6.149   4.000   2.115  1.5020 -1.0825 -0.4742
    4MOL   H569 2315   6.183   4.055   1.839 -1.2891  1.0426 -0.4404
    4MOL   H570 2316   6.108   4.241   2.146  0.1975  1.6186 -0.0849
    4MOL   H571 2317   6.077   4.259   1.984  1.1170 -2.3626 -1.4117
    4MOL   H572 2318   5.882   4.259   2.225  2.5951  1.7193 -0.1386
    4MOL   H573 2319   5.864   4.342   2.079  0.9707  0.5836  2.2098
    4MOL   H574 2320   5.637   4.253   2.180 -0.8622  0.3421 -0.8409
    4MOL   H575 2321   5.719   4.101   2.197  0.0305 -1.0612 -0.9057
    4MOL   H576 2322   5.738   4.086   1.939  0.6164 -1.8009  1.4569
    4MOL   H577 2323   5.580   4.063   2.001 -0.6574  0.0741  0.8927
    4MOL   H578 2324   5.702   4.173   1.742 -0.8002 -0.9245  1.8499
    4MOL   H579 2325   5.433   4.158   1.770 -1.8883 -2.6688 -0.3605
    4MOL   H580 2326   5.564   4.309   1.600 -1.5067 -0.9512  0.7999
    4MOL   H581 2327   5.503   4.409   1.741  1.3410  3.7053 -0.9356
    4MOL   H582 2328   5.707   4.449   1.797  0.8306  1.3959 -0.4873
    5MOL     C1 2329   3.035   1.208   5.226 -1.1607  0.3090  0.0166
    5MOL     C2 2330   3.146   1.257   5.122  0.8367 -0.7569 -0.4302
    5MOL     O3 2331   3.107   1.381   5.057  0.9667 -0.0915 -0.2147
    5MOL     C4 2332   3.287   1.267   5.176 -0.6728 -0.0260  0.5517
    5MOL     O5 2333   3.281   1.337   5.302  0.0735 -0.0006 -0.3766
    5MOL     C6 2334   3.402   1.340   5.378 -0.1240 -0.5757 -0.9904
    5MOL     C7 2335   3.440   1.211   5.443  0.8572  0.3725 -0.1545
    5MOL     C8 2336   3.573   1.197   5.510  0.3135  0.6010 -0.3026
    5MOL     O9 2337   3.583   1.078   5.582 -0.3101 -0.4467 -0.1063
    5MOL    C10 2338   3.713   1.062   5.633  0.0076 -0.3698  0.3369
    5MOL    O11 2339   3.801   1.003   5.537 -0.1127  0.0246  0.3214
    5MOL    C12 2340   3.715   0.978   5.763  0.1343  0.2819 -0.6190
    5MOL    O13 2341   3.658   0.851   5.741  0.1611 -0.0733 -0.1846
    5MOL    H14 2342   3.004   1.297   5.280 -0.6261  0.5665 -0.0893
    5MOL    H15 2343   3.088   1.141   5.294 -0.2582 -0.8905 -1.8412
    5MOL    H16 2344   3.140   1.188   5.038  1.7559  0.5963 -1.6440
    5MOL    H17 2345   3.135   1.456   5.107  0.7042  0.1383 -0.4113
    5MOL    H18 2346   3.325   1.166   5.186 -0.3933  0.0470  0.2565
    5MOL    H19 2347   3.344   1.323   5.101  1.3750  1.9664  3.4829
    5MOL    H20 2348   3.392   1.426   5.444 -1.7017 -1.1816 -0.4193
    5MOL    H21 2349   3.479   1.373   5.308 -2.1355  3.0195 -1.6707
    5MOL    H22 2350   3.426   1.129   5.372  1.4286 -0.1764  0.3739
    5MOL    H23 2351   3.370   1.198   5.526  0.0216 -1.1095 -1.0604
    5MOL    H24 2352   3.653   1.210   5.437 -1.7727  1.6684 -2.4566
    5MOL    H25 2353   3.587   1.273   5.586 -0.0651  0.1149  0.2643
    5MOL    H26 2354   3.754   1.162   5.653 -0.7598 -0.0466  0.2933
    5MOL    H27 2355   3.773   0.914   5.519  0.1762 -0.3132  1.4772
    5MOL    H28 2356   3.816   0.969   5.803  0.6819  1.6060 -1.6400
    5MOL    H29 2357   3.656   1.025   5.842  0.2299 -0.3643 -0.1669
    5MOL    H30 2358   2.947   1.157   5.189 -1.0359  0.3921 -0.4002
    5MOL    C31 2359   3.643   0.774   5.860 -0.1053  0.8333 -0.1341
    5MOL    C32 2360   3.627   0.628   5.807 -0.1404 -0.3273  0.5926
    5MOL    O33 2361   3.572   0.553   5.911 -0.2020 -0.1758  0.2210
    5MOL    C34 2362   3.753   0.554   5.754 -0.2620 -0.5318  0.1513
    5MOL    O35 2363   3.720   0.423   5.705 -0.8652  0.3204  0.0167
    5MOL    C36 2364   3.824   0.356   5.632  0.7966 -0.0981  0.5865
    5MOL    C37 2365   3.783   0.212   5.593 -0.2373 -0.0055  0.1807
    5MOL    C38 2366   3.653   0.193   5.506 -0.1078 -0.0167 -0.6568
    5MOL    O39 2367   3.651   0.053   5.467 -0.3473  0.0886 -0.8035
    5MOL    C40 2368   3.531   0.003   5.421  0.0283 -0.1059  0.0599
    5MOL    O41 2369   3.449   7.680   5.539 -0.2592  0.1113 -0.4730
    5MOL    C42 2370   3.559   7.567   5.349  0.2801  0.5401 -0.3831
    5MOL    O43 2371   3.551   7.600   5.213 -0.0969  0.5400  0.7249
    5MOL    H44 2372   3.733   0.793   5.919  0.2213  1.1640 -0.7339
    5MOL    H45 2373   3.560   0.804   5.924 -1.5239  1.4779 -2.2145
    5MOL    H46 2374   3.552   0.623   5.727  0.8658  1.7983 -0.5425
    5MOL    H47 2375   3.557   0.463   5.887 -0.9303  0.1054 -0.4066
    5MOL    H48 2376   3.796   0.600   5.665 -0.8701 -0.2568 -0.0006
    5MOL    H49 2377   3.835   0.547   5.825 -0.5608 -1.8653  0.3670
    5MOL    H50 2378   3.916   0.357   5.690  0.5761  2.5517  0.9574
    5MOL    H51 2379   3.843   0.415   5.543 -0.9835 -0.0840  0.1922
    5MOL    H52 2380   3.784   0.165   5.692 -0.6395 -0.3417  0.0292
    5MOL    H53 2381   3.863   0.161   5.540  0.1603  1.1859 -0.3742
    5MOL    H54 2382   3.563   0.212   5.565 -0.3341  2.0709 -1.6717
    5MOL    H55 2383   3.669   0.245   5.412  0.2136 -1.4752 -1.4315
    5MOL    H56 2384   3.469   0.069   5.361 -1.4578 -0.0143  1.6314
    5MOL    H57 2385   3.443   0.072   5.578 -0.8853 -1.2103  2.4238
    5MOL    H58 2386   3.654   7.522   5.376 -0.1955 -1.4131 -1.8564
    5MOL    H59 2387   3.477   7.500   5.377  0.7235  0.0602 -0.2325
    5MOL    C60 2388   3.595   7.490   5.132 -0.6120 -0.4885  0.3968
    5MOL    C61 2389   3.657   7.542   5.000 -0.0542  0.2993  0.2373
    5MOL    O62 2390   3.616   7.452   4.896  0.4804  0.4639  0.3093
    5MOL    C63 2391   3.810   7.554   5.011 -0.4156  0.5966 -0.1046
    5MOL    O64 2392   3.856   7.626   4.896 -0.0252 -0.3148 -0.3230
    5MOL    C65 2393   3.990   7.662   4.902  0.3582 -0.0416 -1.0675
    5MOL    C66 2394   4.012   0.066   4.792 -0.2409  0.4933  0.4076
    5MOL    C67 2395   3.935   0.201   4.778  0.4178 -0.1046  0.3203
    5MOL    O68 2396   4.010   0.277   4.689 -0.1038  0.1579  0.1230
    5MOL    C69 2397   3.945   0.381   4.625  0.1392  0.6237  0.2005
    5MOL    O70 2398   3.842   0.346   4.533  0.2957 -0.3159 -0.2868
    5MOL    C71 2399   3.888   0.491   4.716 -0.5035 -0.5762  0.7834
    5MOL    O72 2400   3.777   0.440   4.780  0.1059  0.2229  0.1468
    5MOL    H73 2401   3.508   7.429   5.109  0.7051 -1.5676 -1.9020
    5MOL    H74 2402   3.665   7.423   5.183  1.3611  2.0908  1.2247
    5MOL    H75 2403   3.617   7.641   4.982  0.7327  1.0133  2.2103
    5MOL    H76 2404   3.639   7.489   4.812  0.2906  2.1566  0.9816
    5MOL    H77 2405   3.849   7.605   5.099  2.0455  0.8205 -1.2823
    5MOL    H78 2406   3.852   7.454   5.025 -0.0111  0.9268  1.1112
    5MOL    H79 2407   4.051   7.573   4.887  0.4773 -0.2390  0.5647
    5MOL    H80 2408   4.023   0.013   4.995 -0.1572  1.1094 -1.4227
    5MOL    H81 2409   3.995   0.012   4.698  3.0834 -2.9445  1.6783
    5MOL    H82 2410   4.117   0.095   4.782 -0.0012 -0.2861  0.6441
    5MOL    H83 2411   3.919   0.256   4.871 -0.8945 -0.7932  0.5196
    5MOL    H84 2412   3.829   0.192   4.754 -0.3269  2.8560  2.1847
    5MOL    H85 2413   4.025   0.433   4.574 -1.3341  1.2562 -1.4902
    5MOL    H86 2414   3.764   0.327   4.583 -0.1304  2.1455  0.0513
    5MOL    H87 2415   3.971   0.530   4.774 -0.5299  0.1760  0.3114
    5MOL    H88 2416   3.855   0.567   4.645  1.3158 -1.3655 -0.9801
    5MOL    C89 2417   3.740   0.528   4.889 -0.0327 -0.4350  1.0084
    5MOL    C90 2418   3.617   0.470   4.957  0.1194  0.1214 -0.6272
    5MOL    O91 2419   3.491   0.475   4.879  0.3668 -0.5773 -0.0380
    5MOL    C92 2420   3.638   0.327   5.008 -1.2519 -0.3796  0.5778
    5MOL    O93 2421   3.741   0.325   5.109  0.0379 -0.8441  0.1149
    5MOL    C94 2422   3.781   0.200   5.139  0.0635 -0.9592 -0.4270
    5MOL    C95 2423   3.905   0.224   5.227  0.3984 -0.0138 -0.0802
    5MOL    C96 2424   3.950   0.094   5.297  0.2242 -0.0460 -0.2034
    5MOL    O97 2425   4.059   0.149   5.379  0.0958 -0.1311 -0.2622
    5MOL    C98 2426   4.125   0.066   5.466  0.4052 -0.1110 -0.4065
    5MOL    O99 2427   4.188   7.652   5.401 -0.2087 -0.5018  0.1968
    5MOL   C100 2428   4.243   0.154   5.522 -0.4113 -0.7677 -0.2866
    5MOL   O101 2429   4.246   0.147   5.664 -0.3999  0.0115  0.0121
    5MOL   H102 2430   3.706   0.625   4.853 -0.5940 -0.7781  0.5895
    5MOL   H103 2431   3.813   0.539   4.969  0.7449 -1.2289  0.4041
    5MOL   H104 2432   3.589   0.538   5.038 -1.6696 -0.1600 -0.9691
    5MOL   H105 2433   3.508   0.526   4.800 -3.7547  0.1163 -0.5815
    5MOL   H106 2434   3.538   0.300   5.041 -0.5649 -3.4941  0.2435
    5MOL   H107 2435   3.663   0.259   4.926 -1.1126 -0.0787  0.3690
    5MOL   H108 2436   3.808   0.140   5.052  1.0197 -0.9659 -0.1280
    5MOL   H109 2437   3.697   0.147   5.185  0.3991 -0.1668  1.1274
    5MOL   H110 2438   3.870   0.290   5.307 -3.0633 -0.6684 -0.9503
    5MOL   H111 2439   3.979   0.273   5.164 -2.0606  2.4332 -1.2075
    5MOL   H112 2440   3.865   0.046   5.346  0.7052 -2.6088 -1.8119
    5MOL   H113 2441   3.994   0.021   5.230 -1.5697 -1.5373  0.1963
    5MOL   H114 2442   4.054   0.036   5.542  1.4577 -0.8284  0.3112
    5MOL   H115 2443   4.262   7.688   5.354 -1.2340  0.9186 -0.3689
    5MOL   H116 2444   4.342   0.128   5.485  0.0059  0.2870  0.0877
    5MOL   H117 2445   4.209   0.254   5.497  2.8738  1.2079  2.7997
    5MOL   C118 2446   4.158   0.230   5.733  0.3413 -0.8055  0.1279
    5MOL   C119 2447   4.211   0.242   5.877  0.2256  0.5344 -0.3591
    5MOL   O120 2448   4.198   0.119   5.945 -0.1232  0.4560  0.2971
    5MOL   C121 2449   4.120   0.337   5.948 -0.2391 -0.3380 -0.0662
    5MOL   O122 2450   4.166   0.476   5.932  0.2557 -0.4166  0.0157
    5MOL   C123 2451   4.089   0.576   6.003 -0.6296  0.4417  0.2654
    5MOL   C124 2452   4.184   0.645   6.107  0.2580  0.2339 -0.0078
    5MOL   C125 2453   4.107   0.740   6.195  0.4768  0.2058  0.6025
    5MOL   O126 2454   4.201   0.814   6.269 -0.9076  0.2349  0.2863
    5MOL   C127 2455   4.238   0.753   6.388  0.5631  0.6554 -0.5812
    5MOL   O128 2456   4.127   0.729   6.474  0.2779 -0.1754 -0.3629
    5MOL   C129 2457   4.328   0.848   6.467 -0.3299 -0.4451  0.7975
    5MOL   O130 2458   4.465   0.812   6.441  0.3221  0.1680 -0.4240
    5MOL   H131 2459   4.182   0.329   5.694  0.9521 -1.6926 -1.8383
    5MOL   H132 2460   4.054   0.196   5.725  0.0901 -0.4271  1.6595
    5MOL   H133 2461   4.316   0.273   5.881  0.5773 -0.6148 -0.5104
    5MOL   H134 2462   4.114   0.083   5.918 -0.1415  0.2382  0.6433
    5MOL   H135 2463   4.014   0.330   5.923  0.0041 -2.5286 -0.5678
    5MOL   H136 2464   4.122   0.314   6.054  2.4051  1.0191  0.2197
    5MOL   H137 2465   3.999   0.535   6.049 -1.4704  0.2449 -1.5128
    5MOL   H138 2466   4.037   0.641   5.933 -1.4836  1.2980  1.6703
    5MOL   H139 2467   4.262   0.699   6.054 -0.1407  0.1579 -0.6844
    5MOL   H140 2468   4.236   0.573   6.170 -0.9218 -0.5352  0.1068
    5MOL   H141 2469   4.062   0.799   6.115  1.0505 -1.0676 -0.6765
    5MOL   H142 2470   4.024   0.696   6.248 -0.7400  1.1206 -0.5052
    5MOL   H143 2471   4.274   0.651   6.372 -1.0519 -0.2522  1.3411
    5MOL   H144 2472   4.071   0.804   6.481  1.1542  0.4065  0.5451
    5MOL   H145 2473   4.308   0.950   6.434 -0.9782 -1.3186 -1.6447
    5MOL   H146 2474   4.324   0.840   6.575  0.3232  0.6525  0.9087
    5MOL   C147 2475   4.531   0.880   6.335 -0.0987  0.1362  0.2670
    5MOL   C148 2476   4.676   0.844   6.344 -0.1197 -0.1931 -0.0542
    5MOL   O149 2477   4.706   0.873   6.480  0.4817  0.0628  0.0636
    5MOL   C150 2478   4.777   0.913   6.245 -0.3914 -0.0301  0.5332
    5MOL   O151 2479   4.761   0.855   6.119 -0.6139 -0.3288  0.0181
    5MOL   C152 2480   4.829   0.924   6.018  0.3970  0.5285  0.1404
    5MOL   C153 2481   4.817   0.858   5.884  0.2437 -0.6063  0.7092
    5MOL   C154 2482   4.868   0.943   5.765  0.0045 -0.0074  0.0563
    5MOL   O155 2483   4.772   1.041   5.747 -0.4423  0.0959  0.3798
    5MOL   C156 2484   4.814   1.140   5.658  0.3272 -0.1607 -0.2821
    5MOL   O157 2485   4.933   1.210   5.698  0.5524  0.6547 -0.4869
    5MOL   C158 2486   4.694   1.239   5.637 -0.2113 -0.2202  0.3345
    5MOL   O159 2487   4.663   1.296   5.763 -0.5082  0.6838  0.1366
    5MOL   H160 2488   4.530   0.989   6.336  0.9979  0.1510  0.0271
    5MOL   H161 2489   4.486   0.853   6.239 -1.5268  1.7998  0.4377
    5MOL   H162 2490   4.693   0.743   6.309  1.6783  0.3908 -0.9547
    5MOL   H163 2491   4.625   0.853   6.524  0.4892 -1.1586 -0.4581
    5MOL   H164 2492   4.764   1.021   6.243  1.4014  0.1945  0.5037
    5MOL   H165 2493   4.874   0.898   6.292  0.7412  2.8823 -0.7907
    5MOL   H166 2494   4.933   0.944   6.044  0.4291  0.0274  0.4042
    5MOL   H167 2495   4.790   1.025   6.021  1.2167  0.8408  0.3379
    5MOL   H168 2496   4.719   0.811   5.870  0.1390 -0.4338  0.8619
    5MOL   H169 2497   4.883   0.772   5.890  1.5652  0.4022  0.7279
    5MOL   H170 2498   4.968   0.986   5.775 -0.1989  0.6000 -0.4929
    5MOL   H171 2499   4.858   0.890   5.671  1.2405 -0.6258  0.2708
    5MOL   H172 2500   4.839   1.087   5.566 -0.4900 -1.0153 -0.0096
    5MOL   H173 2501   4.909   1.275   5.761 -0.6225 -2.6188  2.6178
    5MOL   H174 2502   4.733   1.313   5.567 -2.2436  1.1183  0.5825
    5MOL   H175 2503   4.609   1.178   5.607  0.6990 -2.6892  2.6086
    5MOL   C176 2504   4.564   1.391   5.765 -0.5605 -0.1642  0.4895
    5MOL   C177 2505   4.632   1.526   5.792  0.2172  0.0560 -0.0560
    5MOL   O178 2506   4.702   1.513   5.916  0.6194  0.5949  0.9005
    5MOL   C179 2507   4.541   1.652   5.787  0.0059 -0.8168 -0.2709
    5MOL   O180 2508   4.624   1.776   5.799 -0.3126 -0.3813 -0.2131
    5MOL   C181 2509   4.651   1.827   5.674 -0.3405  0.0193  0.5891
    5MOL   C182 2510   4.750   1.945   5.699  0.0238  0.3710  0.0771
    5MOL   C183 2511   4.801   2.016   5.576 -0.5319 -0.6267 -0.0908
    5MOL   O184 2512   4.697   2.065   5.491  0.1691  0.0834  0.3905
    5MOL   C185 2513   4.745   2.114   5.372  0.1398  1.3185 -0.4733
    5MOL   O186 2514   4.790   2.247   5.386  0.0909  0.0830  0.0850
    5MOL   C187 2515   4.630   2.116   5.268 -0.6195  0.2244 -0.1499
    5MOL   O188 2516   4.615   1.997   5.187 -0.0849 -0.3832 -0.2037
    5MOL   H189 2517   4.480   1.378   5.832 -0.3367 -1.2822  0.5662
    5MOL   H190 2518   4.517   1.403   5.667  1.3598  1.2914 -0.2839
    5MOL   H191 2519   4.710   1.540   5.718 -0.5137  0.1597 -0.8061
    5MOL   H192 2520   4.770   1.449   5.907 -0.7055 -0.4454 -2.2730
    5MOL   H193 2521   4.475   1.660   5.700 -0.4569 -0.2052  0.1378
    5MOL   H194 2522   4.476   1.646   5.874 -1.8162  0.0869 -1.5304
    5MOL   H195 2523   4.561   1.873   5.633 -0.5575  1.7731  2.9374
    5MOL   H196 2524   4.688   1.754   5.601  0.8641  3.3915 -2.3397
    5MOL   H197 2525   4.831   1.917   5.766 -1.4421 -1.3552  1.1586
    5MOL   H198 2526   4.697   2.021   5.756 -0.1895  1.6541 -1.7574
    5MOL   H199 2527   4.858   2.105   5.599  0.5923 -1.5808  0.8764
    5MOL   H200 2528   4.871   1.947   5.529 -1.7471 -1.5884 -0.5406
    5MOL   H201 2529   4.824   2.049   5.335 -0.1790  1.4658 -1.4387
    5MOL   H202 2530   4.884   2.240   5.377  0.0452  0.2455 -0.5715
    5MOL   H203 2531   4.536   2.146   5.315 -0.1791  0.7111  0.4350
    5MOL   H204 2532   4.629   2.207   5.208  0.8862  0.6378  0.4507
    5MOL   C205 2533   4.518   2.016   5.086  0.0190 -0.6696 -0.0072
    5MOL   C206 2534   4.545   1.911   4.974  0.1016 -0.3252  0.0505
    5MOL   O207 2535   4.498   1.788   5.021 -0.1189 -0.1725 -0.3477
    5MOL   C208 2536   4.449   1.948   4.853  0.0306 -0.4884  0.8085
    5MOL   O209 2537   4.475   1.853   4.758 -0.4395  0.5641  1.0330
    5MOL   C210 2538   4.420   1.888   4.629  0.0903  0.0851 -0.0233
    5MOL   C211 2539   4.422   1.761   4.550 -0.2616  0.3335 -0.3830
    5MOL   C212 2540   4.350   1.754   4.414 -0.0707  0.0641 -0.5093
    5MOL   O213 2541   4.384   1.627   4.356 -0.1847 -0.5129 -0.3052
    5MOL   C214 2542   4.321   1.591   4.233 -0.3032 -0.3716 -0.6534
    5MOL   O215 2543   4.198   1.531   4.260  0.1770  0.1431 -0.4418
    5MOL   C216 2544   4.406   1.490   4.150 -0.8816  0.1959  0.0922
    5MOL   O217 2545   4.511   1.554   4.078 -0.2968 -0.1505 -0.4885
    5MOL   H218 2546   4.535   2.113   5.039  1.7521 -0.3827  1.1578
    5MOL   H219 2547   4.422   2.016   5.136  1.1319 -1.3288  2.1966
    5MOL   H220 2548   4.650   1.904   4.947  0.4666 -0.3251  1.4234
    5MOL   H221 2549   4.523   1.717   4.965  0.4185 -0.8605  0.7565
    5MOL   H222 2550   4.349   1.932   4.894  0.8779 -2.1216  2.3117
    5MOL   H223 2551   4.453   2.051   4.818  0.4978 -0.2464  1.5758
    5MOL   H224 2552   4.481   1.968   4.589  2.6414  0.0454  3.4845
    5MOL   H225 2553   4.315   1.909   4.649  0.2374  2.0669 -1.2579
    5MOL   H226 2554   4.369   1.691   4.614  2.0332 -1.3137 -0.2337
    5MOL   H227 2555   4.523   1.726   4.529  0.6014  1.5552  1.5662
    5MOL   H228 2556   4.246   1.783   4.403  0.4058  0.9288 -3.2512
    5MOL   H229 2557   4.401   1.827   4.351 -0.1346  0.3663 -0.2134
    5MOL   H230 2558   4.301   1.680   4.173 -1.4452 -1.6126 -2.1544
    5MOL   H231 2559   4.216   1.448   4.301 -1.1249 -0.4121 -0.9678
    5MOL   H232 2560   4.441   1.402   4.204  2.8849  1.7922  0.3844
    5MOL   H233 2561   4.336   1.453   4.074 -2.7272 -1.0453  2.3047
    5MOL   C234 2562   4.597   1.637   4.154  0.3510  0.3532 -0.2229
    5MOL   C235 2563   4.736   1.657   4.085  0.0794  0.5299  0.8932
    5MOL   O236 2564   4.833   1.588   4.155 -0.0671 -0.3933 -0.6763
    5MOL   C237 2565   4.784   1.802   4.068 -0.1950 -0.6781 -0.3022
    5MOL   O238 2566   4.788   1.844   4.205 -0.3829  0.1414  0.4767
    5MOL   C239 2567   4.802   1.985   4.212  0.3918  0.2034 -0.0643
    5MOL   C240 2568   4.817   2.017   4.362 -0.0721  0.2894  0.0648
    5MOL   C241 2569   4.885   2.156   4.398 -0.2399  0.2274 -0.4679
    5MOL   O242 2570   4.997   2.189   4.325 -0.5122 -0.4286  0.2311
    5MOL   C243 2571   5.109   2.116   4.348  0.6941 -0.8812 -0.4439
    5MOL   O244 2572   5.185   2.174   4.452  0.1444 -0.2515 -0.2576
    5MOL   C245 2573   5.194   2.121   4.232  0.2338 -0.3099 -0.7016
    5MOL   O246 2574   5.154   2.039   4.130  0.0261  0.0196  0.0878
    5MOL   H247 2575   4.550   1.734   4.169 -1.4140 -0.3430 -1.1176
    5MOL   H248 2576   4.614   1.592   4.253 -0.4668  0.7668  0.1100
    5MOL   H249 2577   4.739   1.614   3.984 -0.8073  0.7629  0.7652
    5MOL   H250 2578   4.824   1.628   4.240  3.2195 -0.3778 -0.2569
    5MOL   H251 2579   4.885   1.821   4.032 -0.9467  4.2381 -0.1550
    5MOL   H252 2580   4.716   1.860   4.005  0.0786 -0.6723 -0.5913
    5MOL   H253 2581   4.713   2.032   4.170  1.2945  0.4880 -1.7066
    5MOL   H254 2582   4.893   2.019   4.163  1.1274 -0.9492  0.4757
    5MOL   H255 2583   4.880   1.938   4.401 -0.2963 -0.1442 -0.4445
    5MOL   H256 2584   4.720   2.008   4.411  0.1975 -0.9869  0.3791
    5MOL   H257 2585   4.816   2.234   4.366  1.5730  1.4654 -1.4598
    5MOL   H258 2586   4.903   2.152   4.506  2.1957  0.6507 -0.8291
    5MOL   H259 2587   5.098   2.012   4.379 -1.6466  0.1454  2.4603
    5MOL   H260 2588   5.156   2.145   4.537  1.0404 -1.8651 -0.4841
    5MOL   H261 2589   5.202   2.222   4.191  0.0797  0.3791  0.9221
    5MOL   H262 2590   5.294   2.105   4.272 -0.3543 -0.3922  0.7589
    5MOL   C263 2591   5.247   2.041   4.025  0.1635  0.2948  0.1139
    5MOL   C264 2592   5.213   1.943   3.913  1.2105 -0.2766 -0.9844
    5MOL   O265 2593   5.126   2.006   3.818  0.8237 -0.1206 -0.1413
    5MOL   C266 2594   5.332   1.906   3.825  0.0804  0.5297 -1.0900
    5MOL   O267 2595   5.273   1.819   3.729 -0.0848 -0.1960  0.2890
    5MOL   C268 2596   5.366   1.771   3.627 -0.0011 -0.2515 -1.2570
    5MOL   C269 2597   5.392   1.870   3.519  0.6721  0.4810 -0.5514
    5MOL   C270 2598   5.492   1.814   3.415 -0.0537  0.0007  0.3863
    5MOL   O271 2599   5.622   1.779   3.473  0.2558  0.0022 -0.2022
    5MOL   C272 2600   5.733   1.806   3.402  0.0605  0.8920  0.0033
    5MOL   O273 2601   5.847   1.777   3.487 -0.2212 -0.9480  0.4694
    5MOL   C274 2602   5.747   1.716   3.276 -0.9256 -0.3349 -0.2515
    5MOL   O275 2603   5.681   1.769   3.169 -0.5378 -0.8896  0.2335
    5MOL   H276 2604   5.337   2.008   4.078 -0.2845  3.1461  2.8008
    5MOL   H277 2605   5.261   2.140   3.982  2.7179 -0.1882 -0.2520
    5MOL   H278 2606   5.168   1.853   3.957  0.9898 -0.1326 -0.9146
    5MOL   H279 2607   5.102   1.943   3.751  0.1225 -0.8124  0.7456
    5MOL   H280 2608   5.367   2.002   3.788  0.4533  0.8406  0.0236
    5MOL   H281 2609   5.407   1.856   3.886 -0.5125 -0.9671 -1.5614
    5MOL   H282 2610   5.312   1.693   3.574 -0.5894  0.6617 -2.0162
    5MOL   H283 2611   5.452   1.725   3.675 -0.8040 -0.7745 -0.2970
    5MOL   H284 2612   5.432   1.965   3.555  1.7443  0.1021 -0.7184
    5MOL   H285 2613   5.303   1.908   3.468  0.0905 -0.8408 -0.5336
    5MOL   H286 2614   5.460   1.724   3.362  1.0089  1.3937 -2.7751
    5MOL   H287 2615   5.512   1.892   3.341  0.5463  0.1707  0.7197
    5MOL   H288 2616   5.740   1.911   3.376 -2.5851  0.6636 -1.7904
    5MOL   H289 2617   5.824   1.698   3.533  0.4573 -1.5411 -0.1887
    5MOL   H290 2618   5.852   1.696   3.252 -0.8444 -0.7419  0.4369
    5MOL   H291 2619   5.712   1.615   3.296  4.2876 -2.3274 -0.3300
    5MOL   C292 2620   5.682   1.676   3.058  0.4385  0.5297 -0.3624
    5MOL   C293 2621   5.580   1.714   2.950 -0.0136  0.3998 -0.0961
    5MOL   O294 2622   5.632   1.648   2.829  0.2070 -0.0360 -0.1463
    5MOL   C295 2623   5.437   1.673   2.971  0.3916  0.3388 -1.1478
    5MOL   O296 2624   5.364   1.756   3.056 -0.1100  0.1830 -0.1194
    5MOL   C297 2625   5.258   1.686   3.125 -0.6408  0.0353 -0.1159
    5MOL   C298 2626   5.181   1.775   3.219 -0.8284 -0.1528  0.2601
    5MOL   C299 2627   5.077   1.701   3.314  0.2591 -0.0258  0.4770
    5MOL   O300 2628   4.986   1.799   3.359  0.0651 -0.0870 -0.2087
    5MOL   C301 2629   4.909   1.768   3.473  0.4473 -0.2040 -0.0591
    5MOL   O302 2630   4.983   1.779   3.587  0.6836 -0.2580 -0.0244
    5MOL   C303 2631   4.796   1.874   3.487  0.4514  0.1319 -0.1202
    5MOL   O304 2632   4.674   1.815   3.440  0.1380  0.7774  0.1156
    5MOL   H305 2633   5.781   1.655   3.018 -0.2049 -0.0634 -1.6685
    5MOL   H306 2634   5.644   1.581   3.096  0.8036  1.3290  2.0862
    5MOL   H307 2635   5.590   1.821   2.936  0.2907  0.2690 -0.9046
    5MOL   H308 2636   5.653   1.560   2.855 -0.5988 -1.0893 -2.8403
    5MOL   H309 2637   5.384   1.675   2.875 -2.9744 -2.3922  0.5147
    5MOL   H310 2638   5.431   1.571   3.007 -1.6903  0.4370 -1.1256
    5MOL   H311 2639   5.288   1.598   3.183 -2.0811 -1.1227 -1.0790
    5MOL   H312 2640   5.196   1.662   3.038 -0.4880  0.7703 -0.4280
    5MOL   H313 2641   5.125   1.843   3.154 -0.6830  1.4061  1.7279
    5MOL   H314 2642   5.245   1.840   3.278 -0.1217  0.1285 -0.8092
    5MOL   H315 2643   5.006   1.640   3.259 -0.8613 -0.0686  1.9709
    5MOL   H316 2644   5.108   1.644   3.401 -2.7764 -0.7735  1.1010
    5MOL   H317 2645   4.869   1.666   3.467 -0.1677  0.1382 -2.0693
    5MOL   H318 2646   5.000   1.690   3.613  0.4027 -0.2252  0.2761
    5MOL   H319 2647   4.819   1.968   3.437 -0.3081  0.5441  0.2946
    5MOL   H320 2648   4.783   1.905   3.591 -1.1980 -0.9161  0.0092
    5MOL   C321 2649   4.561   1.897   3.451 -0.0958 -0.8666 -0.5435
    5MOL   C322 2650   4.440   1.819   3.389  0.3441 -0.1814 -0.3746
    5MOL   O323 2651   4.386   1.754   3.496  0.0288  0.0629 -0.2121
    5MOL   C324 2652   4.331   1.898   3.320  0.0611 -0.1477 -0.6130
    5MOL   O325 2653   4.258   1.819   3.231  0.2269  0.4834  0.2471
    5MOL   C326 2654   4.149   1.744   3.294  0.4520  0.2494 -0.3226
    5MOL   C327 2655   4.157   1.604   3.248  0.1071 -0.5086  0.3449
    5MOL   C328 2656   4.032   1.515   3.297  0.0782 -0.1420 -0.1979
    5MOL   O329 2657   4.063   1.463   3.428 -0.3350  0.2614  0.7007
    5MOL   C330 2658   3.968   1.377   3.476  0.3156 -1.6330  0.7802
    5MOL   O331 2659   3.972   1.260   3.399 -0.6813  0.1912  0.4383
    5MOL   C332 2660   4.011   1.352   3.616  0.1340 -0.6268  0.2178
    5MOL   O333 2661   3.912   1.278   3.688  0.0743  0.0711  0.3441
    5MOL   H334 2662   4.569   1.990   3.395  1.0929 -1.4917 -1.4322
    5MOL   H335 2663   4.532   1.933   3.550  0.4438  0.1887 -0.7637
    5MOL   H336 2664   4.475   1.740   3.323 -2.9407 -1.3161 -0.9022
    5MOL   H337 2665   4.456   1.699   3.528  1.1248  1.7062  0.2640
    5MOL   H338 2666   4.373   1.965   3.245 -2.3462  2.1323  0.0200
    5MOL   H339 2667   4.275   1.972   3.377 -0.0161  1.4710 -2.7092
    5MOL   H340 2668   4.052   1.794   3.293 -0.0307 -0.6516  0.9388
    5MOL   H341 2669   4.162   1.736   3.402 -2.5401 -2.0814 -0.0587
    5MOL   H342 2670   4.156   1.606   3.139  1.5246  0.4156  0.3435
    5MOL   H343 2671   4.253   1.564   3.280  0.3748 -0.7310 -0.7030
    5MOL   H344 2672   3.936   1.566   3.306 -0.9807 -2.3488  1.7190
    5MOL   H345 2673   4.013   1.432   3.229 -1.1578 -0.1860  0.1924
    5MOL   H346 2674   3.868   1.419   3.461  0.2396 -1.2746  2.2800
    5MOL   H347 2675   3.971   1.189   3.461 -0.2586 -0.1706  0.0362
    5MOL   H348 2676   4.111   1.310   3.614  0.4734 -0.2851  4.2237
    5MOL   H349 2677   4.012   1.450   3.666 -1.6775 -0.7957  0.6485
    5MOL   C350 2678   3.934   1.253   3.828  0.2910 -0.4369  0.1588
    5MOL   C351 2679   3.870   1.370   3.909 -0.2252  0.0940 -0.3350
    5MOL   O352 2680   3.811   1.340   4.035 -0.1139  0.4310  0.4988
    5MOL   C353 2681   3.969   1.488   3.942  0.2807 -0.0192 -0.3210
    5MOL   O354 2682   3.889   1.593   3.986 -0.9087  0.1133  0.0313
    5MOL   C355 2683   3.970   1.704   4.014 -0.0862 -0.0121  0.0977
    5MOL   C356 2684   3.878   1.810   4.075  0.2359 -0.1271 -0.7299
    5MOL   C357 2685   3.941   1.944   4.125  0.4812  0.1194 -0.4139
    5MOL   O358 2686   3.840   2.032   4.172  0.3402 -0.6447 -0.1350
    5MOL   C359 2687   3.896   2.154   4.229  0.0145  0.4264 -0.0528
    5MOL   O360 2688   3.957   2.235   4.134 -0.0148  0.0065 -0.5195
    5MOL   C361 2689   3.780   2.220   4.304  0.1430  0.0449 -0.7831
    5MOL   O362 2690   3.765   2.154   4.433 -0.1645  0.0230 -0.0445
    5MOL   H363 2691   4.038   1.251   3.863  0.3251 -1.1700  0.0159
    5MOL   H364 2692   3.892   1.160   3.866 -1.0036 -0.0175 -0.2314
    5MOL   H365 2693   3.789   1.390   3.838  0.2792 -1.5933 -1.4046
    5MOL   H366 2694   3.791   1.424   4.074  1.5081  1.1401 -0.1574
    5MOL   H367 2695   4.043   1.460   4.017  0.2177 -1.4086 -0.7657
    5MOL   H368 2696   4.024   1.521   3.854  1.5982 -1.9620 -0.2604
    5MOL   H369 2697   4.036   1.734   3.932 -0.7179 -1.4762 -0.9679
    5MOL   H370 2698   4.040   1.673   4.092 -1.9113  1.0460  2.1999
    5MOL   H371 2699   3.847   1.763   4.169  1.6431 -0.5081 -0.4388
    5MOL   H372 2700   3.791   1.831   4.013 -1.3791  0.6370  1.7092
    5MOL   H373 2701   4.014   1.919   4.202 -1.7982  0.4616  1.9278
    5MOL   H374 2702   3.988   1.991   4.038  0.3441  2.0445  0.5458
    5MOL   H375 2703   3.974   2.137   4.303 -0.7421 -1.1198  0.4250
    5MOL   H376 2704   4.044   2.207   4.110 -0.4235  0.0206 -2.0844
    5MOL   H377 2705   3.795   2.328   4.315 -1.4519  0.4396 -2.2114
    5MOL   H378 2706   3.689   2.195   4.249 -0.2422 -1.0414  0.3133
    5MOL   C379 2707   3.647   2.202   4.492 -0.6180 -0.0120 -0.4467
    5MOL   C380 2708   3.657   2.165   4.639 -0.3196  0.1301  0.3066
    5MOL   O381 2709   3.757   2.234   4.710 -0.1431  0.1548  0.3357
    5MOL   C382 2710   3.524   2.174   4.711  0.0468 -0.3900 -0.1869
    5MOL   O383 2711   3.507   2.316   4.708  0.2215 -0.3441  0.0645
    5MOL   C384 2712   3.416   2.358   4.805  0.1931  0.6313  0.2904
    5MOL   C385 2713   3.400   2.510   4.795 -0.7348  0.5670  0.3769
    5MOL   C386 2714   3.348   2.570   4.920 -0.2493 -0.6745 -0.6565
    5MOL   O387 2715   3.212   2.523   4.940 -0.0428 -0.5910  0.4726
    5MOL   C388 2716   3.191   2.416   5.031 -0.5750 -0.5166 -0.2740
    5MOL   O389 2717   3.201   2.457   5.167  0.1616 -0.2035 -0.5943
    5MOL   C390 2718   3.052   2.360   5.006  0.2465 -0.4245 -0.0856
    5MOL   O391 2719   2.965   2.439   5.084  0.2967 -0.0222 -0.1770
    5MOL   H392 2720   3.561   2.160   4.441 -2.0572  2.3698 -0.0315
    5MOL   H393 2721   3.643   2.307   4.464  1.2663  0.2849  0.3049
    5MOL   H394 2722   3.694   2.063   4.648 -1.4591 -0.3423 -0.2847
    5MOL   H395 2723   3.709   2.287   4.772 -0.4567 -0.1672  0.3758
    5MOL   H396 2724   3.441   2.122   4.664  1.1237 -1.0851 -1.3502
    5MOL   H397 2725   3.531   2.141   4.815 -2.6183 -1.3121 -0.2694
    5MOL   H398 2726   3.441   2.324   4.906  0.6497  1.6947  0.5500
    5MOL   H399 2727   3.316   2.320   4.785 -1.4126  3.0933  3.2097
    5MOL   H400 2728   3.331   2.536   4.714  0.5502  0.0467 -0.9039
    5MOL   H401 2729   3.493   2.559   4.767  0.1236 -0.5194  1.2623
    5MOL   H402 2730   3.419   2.556   5.002 -0.6825 -1.6579 -0.4411
    5MOL   H403 2731   3.336   2.676   4.898 -0.3294 -0.2725  1.2307
    5MOL   H404 2732   3.267   2.340   5.016 -1.2952 -1.6383  1.5376
    5MOL   H405 2733   3.125   2.512   5.177  0.2242 -0.2254 -0.0185
    5MOL   H406 2734   3.032   2.357   4.899 -1.3902 -0.7295  0.2149
    5MOL   H407 2735   3.051   2.259   5.046  0.9788 -0.8402 -1.1129
    5MOL   C408 2736   2.861   2.370   5.142 -0.3109  0.6166  0.1246
    5MOL   C409 2737   2.785   2.465   5.237 -0.2945  0.3842 -0.4486
    5MOL   O410 2738   2.874   2.499   5.343  0.2098  0.4479 -0.6255
    5MOL   C411 2739   2.659   2.399   5.289 -0.1504 -0.4839  0.5769
    5MOL   O412 2740   2.582   2.490   5.371  0.2140 -0.0407  0.0243
    5MOL   C413 2741   2.459   2.424   5.414  0.2401 -0.2878  0.6203
    5MOL   C414 2742   2.362   2.516   5.486  0.1468  0.2877 -0.3010
    5MOL   C415 2743   2.326   2.629   5.395  0.0253 -0.1314  0.0236
    5MOL   O416 2744   2.211   2.708   5.436 -0.1810 -0.2279  0.2608
    5MOL   C417 2745   2.179   2.816   5.357 -0.4279 -0.8580  0.0441
    5MOL   O418 2746   2.286   2.907   5.335 -0.3176  0.1335  0.4285
    5MOL   C419 2747   2.066   2.899   5.431 -0.1461 -0.4805 -0.1838
    5MOL   O420 2748   2.054   2.857   5.567  0.1700 -0.1983  0.0449
    5MOL   H421 2749   2.900   2.283   5.195  2.3624  1.1275 -0.9437
    5MOL   H422 2750   2.803   2.318   5.066 -1.2711  1.5160  0.2192
    5MOL   H423 2751   2.752   2.554   5.183 -0.4992  1.3339  1.2112
    5MOL   H424 2752   2.935   2.565   5.315  1.0948  0.7773  1.9413
    5MOL   H425 2753   2.594   2.386   5.202  0.2637 -0.8458  0.3235
    5MOL   H426 2754   2.680   2.303   5.336 -0.6871 -1.0447 -0.3182
    5MOL   H427 2755   2.405   2.381   5.329  1.7645 -0.9508 -0.0299
    5MOL   H428 2756   2.478   2.344   5.486  1.6246 -0.4133  0.1384
    5MOL   H429 2757   2.414   2.548   5.576  3.7161  1.0866 -2.5325
    5MOL   H430 2758   2.272   2.473   5.529 -0.4850  0.4257 -1.4683
    5MOL   H431 2759   2.409   2.698   5.379  1.0851 -1.3132  0.4159
    5MOL   H432 2760   2.306   2.595   5.294  0.0288  0.3251 -0.1337
    5MOL   H433 2761   2.140   2.786   5.260 -0.1851  0.5286 -0.4969
    5MOL   H434 2762   2.271   2.949   5.252  0.9792 -2.4903 -1.1731
    5MOL   H435 2763   2.095   3.004   5.435  0.9998 -0.7282 -1.4040
    5MOL   H436 2764   1.973   2.898   5.374 -2.2251 -0.5528  3.0799
    5MOL   C437 2765   1.949   2.761   5.593  0.5245 -0.8719  0.3080
    5MOL   C438 2766   1.916   2.771   5.747  0.4214  0.1029 -0.2654
    5MOL   O439 2767   2.022   2.722   5.825  0.5999  0.0142  0.2398
    5MOL   C440 2768   1.789   2.705   5.797  0.5991  0.3148  0.8934
    5MOL   O441 2769   1.802   2.573   5.746  0.3250 -0.2923 -0.1775
    5MOL   C442 2770   1.696   2.494   5.789  0.2003  0.6730 -1.1834
    5MOL   C443 2771   1.713   2.351   5.735 -0.2486 -0.3005  0.4188
    5MOL   C444 2772   1.839   2.287   5.792  0.5926 -0.2782 -0.3165
    5MOL   O445 2773   1.862   2.163   5.726  0.0441  0.4286  0.6060
    5MOL   C446 2774   1.988   2.107   5.764 -0.0344 -0.0388  0.4463
    5MOL   O447 2775   2.103   2.185   5.735  0.1529 -1.0236  0.0304
    5MOL   C448 2776   2.003   1.969   5.691  0.0355 -0.3344  0.0460
    5MOL   O449 2777   1.962   1.865   5.779  0.5733  0.2061  0.3176
    5MOL   H450 2778   1.865   2.791   5.530  1.2554  0.7239  0.0957
    5MOL   H451 2779   1.970   2.659   5.560 -1.2927 -1.3972  0.6995
    5MOL   H452 2780   1.908   2.877   5.770  1.6078  0.4614 -1.4361
    5MOL   H453 2781   2.098   2.736   5.771  1.6766 -0.0676  1.6982
    5MOL   H454 2782   1.788   2.701   5.906  2.9628 -0.0692  0.9286
    5MOL   H455 2783   1.700   2.753   5.756  0.1133 -1.7180 -0.4639
    5MOL   H456 2784   1.603   2.543   5.762 -0.3304  0.3162 -0.0467
    5MOL   H457 2785   1.701   2.482   5.898 -0.8224  0.1024 -1.1915
    5MOL   H458 2786   1.732   2.354   5.628  0.0865 -0.2796  0.4789
    5MOL   H459 2787   1.626   2.285   5.743  0.5149 -2.0433 -4.2778
    5MOL   H460 2788   1.930   2.347   5.789  0.2565  0.2859  0.4268
    5MOL   H461 2789   1.834   2.258   5.897  1.9780  0.8532  0.0747
    5MOL   H462 2790   1.988   2.105   5.873 -0.0293  3.0068  0.5626
    5MOL   H463 2791   2.168   2.169   5.801  0.0425  1.8307  0.8772
    5MOL   H464 2792   1.960   1.977   5.591  0.9422  0.0646 -0.3147
    5MOL   H465 2793   2.107   1.952   5.666 -0.5814 -1.3096 -1.9820
    5MOL   C466 2794   1.849   1.801   5.725 -0.0321  0.1021 -0.4904
    5MOL   C467 2795   1.719   1.888   5.720  0.2713  0.8013 -0.8580
    5MOL   O468 2796   1.623   1.809   5.650 -1.0129 -0.1198  0.3699
    5MOL   C469 2797   1.664   1.919   5.860  0.0319 -0.3516  0.3899
    5MOL   O470 2798   1.574   2.030   5.855  0.2621  0.6271 -0.3592
    5MOL   C471 2799   1.511   2.059   5.977  0.8836 -0.0871 -0.1408
    5MOL   C472 2800   1.409   2.174   5.980 -0.4821  0.5890  0.0900
    5MOL   C473 2801   1.370   2.233   6.114  0.4611 -0.3961 -0.9032
    5MOL   O474 2802   1.300   2.354   6.107 -0.0832 -0.3635  0.2890
    5MOL   C475 2803   1.281   2.412   6.232  0.3399 -0.4931  0.2869
    5MOL   O476 2804   1.174   2.348   6.299 -0.3565 -0.0999  0.3433
    5MOL   C477 2805   1.251   2.562   6.232 -0.5763 -0.3864  0.5484
    5MOL   O478 2806   1.355   2.632   6.174  0.0779  0.2663 -0.2163
    5MOL   H479 2807   1.842   1.706   5.778  1.8430  1.7499  2.8725
    5MOL   H480 2808   1.873   1.769   5.623 -0.7491  0.6940 -0.8440
    5MOL   H481 2809   1.724   1.977   5.658  3.5393  0.7009 -0.8508
    5MOL   H482 2810   1.639   1.717   5.665 -0.2713 -0.2701 -1.2228
    5MOL   H483 2811   1.607   1.838   5.906 -0.2184 -1.2584 -1.4791
    5MOL   H484 2812   1.748   1.948   5.923  1.1767 -1.1544 -0.7577
    5MOL   H485 2813   1.583   2.088   6.053 -0.0138 -1.7495  1.3823
    5MOL   H486 2814   1.455   1.977   6.021 -0.0154  0.3896 -0.3914
    5MOL   H487 2815   1.320   2.140   5.925 -0.7388  0.0306  0.8470
    5MOL   H488 2816   1.454   2.258   5.927  0.0547  0.6663  0.6752
    5MOL   H489 2817   1.319   2.155   6.170  0.9241  0.0598  0.1695
    5MOL   H490 2818   1.471   2.245   6.154  0.2894  0.1598 -0.6232
    5MOL   H491 2819   1.368   2.386   6.293 -0.5661 -1.7782  1.0430
    5MOL   H492 2820   1.102   2.344   6.239 -0.1403 -2.8819  0.2236
    5MOL   H493 2821   1.169   2.592   6.167 -0.0153 -1.8527 -0.8626
    5MOL   H494 2822   1.240   2.610   6.329  0.0218  0.3043  0.2786
    5MOL   C495 2823   1.483   2.619   6.230 -0.5748  0.7139  0.7176
    5MOL   C496 2824   1.551   2.754   6.209 -0.0492 -0.1963  0.3300
    5MOL   O497 2825   1.502   2.853   6.303 -0.3193  0.0438 -0.6542
    5MOL   C498 2826   1.700   2.750   6.225 -0.4888  0.3746 -0.6037
    5MOL   O499 2827   1.748   2.880   6.205  0.2685 -0.2889 -0.1251
    5MOL   C500 2828   1.890   2.910   6.193  0.0858 -0.2779 -0.4522
    5MOL   C501 2829   1.905   3.059   6.158 -0.5507 -0.4620 -0.3270
    5MOL   C502 2830   2.046   3.095   6.114  0.4209  0.6862  0.6167
    5MOL   O503 2831   2.121   3.124   6.228  0.4355  0.3024  0.0661
    5MOL   C504 2832   2.254   3.101   6.194  0.1460  0.5256 -0.8796
    5MOL   O505 2833   2.275   2.967   6.184  0.1056  0.6819  0.0826
    5MOL   C506 2834   2.345   3.151   6.304 -0.4279  0.0981  0.5269
    5MOL   O507 2835   2.341   3.291   6.302  0.2240 -0.2503 -0.5841
    5MOL   H508 2836   1.528   2.537   6.173 -0.4299  1.0271  0.3793
    5MOL   H509 2837   1.475   2.591   6.335  1.4082  0.8763  0.9223
    5MOL   H510 2838   1.547   2.795   6.108 -0.0762  0.8350  0.7385
    5MOL   H511 2839   1.579   2.902   6.325 -1.1575  1.6597 -1.2207
    5MOL   H512 2840   1.731   2.714   6.323  1.2352  1.6016 -0.6761
    5MOL   H513 2841   1.752   2.687   6.153  2.3136  1.7660  0.1152
    5MOL   H514 2842   1.930   2.852   6.110 -1.1850 -1.0624 -0.5247
    5MOL   H515 2843   1.940   2.897   6.289 -1.1851 -1.3781  0.0655
    5MOL   H516 2844   1.861   3.128   6.230  0.1353  0.4624 -0.7857
    5MOL   H517 2845   1.851   3.085   6.067 -1.0334 -0.5614 -0.0728
    5MOL   H518 2846   2.083   3.014   6.051 -0.4242  0.2550  0.6712
    5MOL   H519 2847   2.054   3.175   6.040  4.5213 -0.4170 -0.2583
    5MOL   H520 2848   2.279   3.152   6.101 -0.0137  0.5092 -0.9312
    5MOL   H521 2849   2.275   2.928   6.271 -1.5537 -1.6213 -0.9150
    5MOL   H522 2850   2.322   3.110   6.402  0.6474  1.5588  1.4124
    5MOL   H523 2851   2.446   3.115   6.285  0.1509  1.6863  0.5061
    5MOL   C524 2852   2.423   3.357   6.396  0.5199 -0.5039 -0.6113
    5MOL   C525 2853   2.421   3.511   6.364  0.8188  0.2588  0.3849
    5MOL   O526 2854   2.500   3.512   6.247  0.0383  0.1869 -0.0545
    5MOL   C527 2855   2.497   3.597   6.469  0.7158  0.5985 -0.3402
    5MOL   O528 2856   2.482   3.733   6.443 -0.2616 -0.4313 -0.1486
    5MOL   C529 2857   2.588   3.813   6.496  1.1055 -0.4081  0.5428
    5MOL   C530 2858   2.566   3.968   6.495  0.3693 -0.6701 -0.4258
    5MOL   C531 2859   2.660   4.044   6.589 -0.0820  0.2703  0.4129
    5MOL   O532 2860   2.608   4.183   6.586 -0.9704  0.3410  0.0160
    5MOL   C533 2861   2.665   4.250   6.691  0.9061 -0.6129 -0.4830
    5MOL   O534 2862   2.805   4.273   6.680 -0.6351 -0.3631  0.2980
    5MOL   C535 2863   2.603   4.393   6.702 -0.0083  0.0700  0.4313
    5MOL   O536 2864   2.583   4.429   6.837  0.1602 -0.5029 -0.3095
    5MOL   H537 2865   2.521   3.311   6.381  1.6828  1.8457 -0.3916
    5MOL   H538 2866   2.405   3.328   6.500  0.6717  1.2917 -0.0773
    5MOL   H539 2867   2.323   3.549   6.337  0.0125 -2.2957 -0.4267
    5MOL   H540 2868   2.475   3.436   6.197  1.3148  0.7995 -1.6877
    5MOL   H541 2869   2.466   3.577   6.572  0.3692  0.1662 -0.5279
    5MOL   H542 2870   2.600   3.563   6.471  0.0544 -1.4092  1.6645
    5MOL   H543 2871   2.673   3.790   6.433  1.4477  0.3021  0.7428
    5MOL   H544 2872   2.618   3.776   6.594  0.1574  0.8759  1.3346
    5MOL   H545 2873   2.468   3.995   6.533  0.8488 -0.4608  0.6987
    5MOL   H546 2874   2.565   4.009   6.394 -0.7905  3.0524  1.0164
    5MOL   H547 2875   2.654   3.993   6.685 -0.9215  1.5377  1.0566
    5MOL   H548 2876   2.765   4.038   6.561  0.2251  0.6180  1.4703
    5MOL   H549 2877   2.645   4.201   6.787  0.2417  2.0848  0.7912
    5MOL   H550 2878   2.849   4.229   6.751 -0.0950  0.8645  0.7406
    5MOL   H551 2879   2.663   4.476   6.665  0.9904  0.2203  2.3299
    5MOL   H552 2880   2.515   4.405   6.639  0.4701 -2.0423 -0.6812
    5MOL   C553 2881   2.463   4.376   6.896 -0.6503  0.2655 -0.1720
    5MOL   C554 2882   2.428   4.451   7.026 -0.5924 -0.7981  0.2067
    5MOL   O555 2883   2.343   4.370   7.100 -0.2342  0.0312  0.3049
    5MOL   C556 2884   2.356   4.579   7.001 -0.0412 -0.2444 -0.2318
    5MOL   O557 2885   2.378   4.653   7.118 -0.0083  0.5305 -0.3735
    5MOL   C558 2886   2.334   4.790   7.097 -0.9646 -0.0452 -0.1082
    5MOL   C559 2887   2.377   4.878   7.213  0.8636 -0.2186  0.0277
    5MOL   C560 2888   2.307   4.834   7.346 -0.8251  0.1709 -0.3425
    5MOL   O561 2889   2.382   4.865   7.468  0.4294 -0.1131 -0.3448
    5MOL   C562 2890   2.375   5.000   7.500  0.1927 -0.0695  0.1092
    5MOL   O563 2891   2.260   5.025   7.581  0.2445 -0.4163 -0.5185
    5MOL   C564 2892   2.507   5.034   7.574 -0.0854  0.1141 -0.0048
    5MOL   O565 2893   2.516   4.951   0.002 -0.5854 -0.2990  0.2682
    5MOL   H566 2894   2.481   4.272   6.923  0.9198  0.6082  0.1459
    5MOL   H567 2895   2.372   4.378   6.835 -0.3865  0.3770 -0.5670
    5MOL   H568 2896   2.514   4.463   7.092 -0.3278  1.4280 -0.4918
    5MOL   H569 2897   2.331   4.422   7.178  0.6938 -0.8124  1.0295
    5MOL   H570 2898   2.411   4.619   6.916 -0.0799 -1.3048 -0.7721
    5MOL   H571 2899   2.252   4.570   6.969  0.1082 -0.9478 -0.5391
    5MOL   H572 2900   2.386   4.825   7.008 -0.6138 -0.7544 -0.1873
    5MOL   H573 2901   2.226   4.791   7.084 -0.9640  0.6136 -0.0771
    5MOL   H574 2902   2.362   4.984   7.190  0.2655 -0.4230 -0.5260
    5MOL   H575 2903   2.483   4.863   7.233  0.8426 -0.6270 -0.1667
    5MOL   H576 2904   2.207   4.878   7.352 -0.7443  0.5885 -1.7341
    5MOL   H577 2905   2.308   4.725   7.346  1.2616  0.1607  0.6220
    5MOL   H578 2906   2.368   5.059   7.408  0.3903 -0.8214 -0.3964
    5MOL   H579 2907   2.277   4.980   7.663  0.2726 -1.0130 -0.8490
    5MOL   H580 2908   2.588   5.001   7.509 -1.4753 -1.6688 -0.9162
    5MOL   H581 2909   2.524   5.138   7.602 -1.7770 -0.1744  2.2284
    5MOL   H582 2910   2.508   4.860   7.670 -1.3561  0.0051 -0.5794
    6MOL     C1 2911   5.359   7.180   2.154  0.9194 -0.3810  0.0593
    6MOL     C2 2912   5.458   7.112   2.250  0.2836 -0.1701 -0.7553
    6MOL     O3 2913   5.579   7.183   2.247 -0.1693 -0.2345  0.0165
    6MOL     C4 2914   5.416   7.096   2.401 -0.0090 -0.5102  0.3413
    6MOL     O5 2915   5.530   7.036   2.457 -0.5944  0.5427  0.1993
    6MOL     C6 2916   5.514   7.010   2.591  0.2562 -0.5834 -0.2737
    6MOL     C7 2917   5.641   6.962   2.654  0.4377  0.3797 -0.2868
    6MOL     C8 2918   5.617   6.860   2.781 -0.3076  0.1444  0.1152
    6MOL     O9 2919   5.541   6.743   2.741 -0.2515 -0.6976  0.2255
    6MOL    C10 2920   5.537   6.630   2.828  0.5040 -0.2639 -0.5461
    6MOL    O11 2921   5.662   6.568   2.857 -0.2252 -0.3819 -0.0333
    6MOL    C12 2922   5.452   6.525   2.759 -0.8801 -0.6224  0.9290
    6MOL    O13 2923   5.317   6.552   2.774  0.1454  0.2357 -0.4977
    6MOL    H14 2924   5.265   7.127   2.139 -0.4077  2.5928 -2.5532
    6MOL    H15 2925   5.396   7.188   2.052  2.7110  0.2371  0.7358
    6MOL    H16 2926   5.481   7.012   2.215  3.2176  1.0833 -2.6019
    6MOL    H17 2927   5.613   7.156   2.332 -1.0291  2.1070  1.1483
    6MOL    H18 2928   5.389   7.192   2.444  0.1506 -0.3991  0.1946
    6MOL    H19 2929   5.329   7.029   2.403 -1.2226  0.7425 -4.1035
    6MOL    H20 2930   5.427   6.946   2.598  1.8010 -2.8726 -1.3907
    6MOL    H21 2931   5.477   7.099   2.641  1.0476 -0.0537 -0.6140
    6MOL    H22 2932   5.712   7.039   2.682  0.3812 -0.1306  1.3422
    6MOL    H23 2933   5.693   6.904   2.578  0.0502 -1.9849  1.1995
    6MOL    H24 2934   5.718   6.833   2.813 -0.2660 -2.4522 -2.0798
    6MOL    H25 2935   5.567   6.911   2.863 -1.3711  0.4168 -0.6931
    6MOL    H26 2936   5.489   6.661   2.921  0.1070 -1.5080 -0.3291
    6MOL    H27 2937   5.695   6.610   2.935  0.3229 -1.6152  0.4053
    6MOL    H28 2938   5.475   6.528   2.652 -1.3421  0.6009  0.8496
    6MOL    H29 2939   5.475   6.427   2.801 -1.3295 -0.4266  1.6381
    6MOL    H30 2940   5.330   7.278   2.191 -2.3136 -1.8266  1.5091
    6MOL    C31 2941   5.231   6.542   2.657  0.0275  0.5466 -0.5203
    6MOL    C32 2942   5.080   6.571   2.674  0.4075  0.2675  0.8715
    6MOL    O33 2943   5.014   6.508   2.564  0.3634 -0.5409 -0.0737
    6MOL    C34 2944   5.046   6.716   2.669  0.4855 -0.1868  0.1214
    6MOL    O35 2945   4.910   6.721   2.712  0.5566  0.1733  0.7747
    6MOL    C36 2946   4.881   6.801   2.829 -0.3901 -0.2518 -0.1424
    6MOL    C37 2947   4.894   6.951   2.786  0.0684 -0.0693  0.3898
    6MOL    C38 2948   4.835   7.034   2.900 -0.6969 -0.1993 -0.0309
    6MOL    O39 2949   4.853   7.171   2.853  0.0391 -0.1795 -0.2234
    6MOL    C40 2950   4.791   7.262   2.946 -0.0393  0.5986 -0.4978
    6MOL    O41 2951   4.655   7.258   2.927 -0.0266 -0.2137 -0.4492
    6MOL    C42 2952   4.840   7.402   2.926  0.1453 -0.7628 -0.6413
    6MOL    O43 2953   4.860   7.435   2.786  0.1048  0.8313  0.2982
    6MOL    H44 2954   5.270   6.615   2.586 -0.8413  1.1715 -0.3673
    6MOL    H45 2955   5.244   6.440   2.624  1.1691 -0.4363  2.7373
    6MOL    H46 2956   5.044   6.530   2.769 -0.2165  1.4203  1.1449
    6MOL    H47 2957   4.982   6.425   2.595 -2.9926  0.5818 -0.3000
    6MOL    H48 2958   5.115   6.757   2.743 -0.4941 -0.3422  1.1444
    6MOL    H49 2959   5.071   6.769   2.577 -0.0490 -0.8347 -0.3979
    6MOL    H50 2960   4.939   6.776   2.918 -0.7794 -0.1694  0.1347
    6MOL    H51 2961   4.775   6.784   2.846 -0.3723  0.3406  0.5674
    6MOL    H52 2962   4.840   6.943   2.692 -0.9134  1.8389  0.7723
    6MOL    H53 2963   4.995   6.985   2.762 -0.7728 -0.4325 -3.9076
    6MOL    H54 2964   4.732   7.013   2.927 -1.0752  1.8876  0.2020
    6MOL    H55 2965   4.900   7.008   2.984 -1.2216 -1.6096 -0.0444
    6MOL    H56 2966   4.808   7.236   3.050 -2.2864 -2.2945 -0.7844
    6MOL    H57 2967   4.646   7.299   2.842 -3.6565  0.0061 -0.0361
    6MOL    H58 2968   4.768   7.472   2.969  1.8563  1.3369 -1.1355
    6MOL    H59 2969   4.941   7.404   2.967 -0.4096  0.3619  0.6896
    6MOL    C60 2970   4.869   7.575   2.770  0.0169 -0.8109  0.3222
    6MOL    C61 2971   4.866   7.618   2.621 -0.2892  0.4142  0.5793
    6MOL    O62 2972   4.979   7.571   2.555 -0.3204 -0.5949 -0.2502
    6MOL    C63 2973   4.866   0.075   2.595 -0.0742 -0.3185 -0.3171
    6MOL    O64 2974   4.802   0.102   2.468 -0.1724 -0.4925 -0.7568
    6MOL    C65 2975   4.764   0.242   2.449  1.3425 -0.4725 -0.2003
    6MOL    C66 2976   4.628   0.254   2.381 -0.6511  0.0956  0.3961
    6MOL    C67 2977   4.637   0.315   2.232 -0.1117 -0.5396  0.1833
    6MOL    O68 2978   4.510   0.300   2.164  0.4981  0.2291 -0.9037
    6MOL    C69 2979   4.480   0.387   2.056  1.0439  0.1529 -0.0730
    6MOL    O70 2980   4.584   0.398   1.961 -0.0197  0.0957 -0.2268
    6MOL    C71 2981   4.343   0.349   1.988 -0.2965  0.3731 -0.6142
    6MOL    O72 2982   4.360   0.211   1.955  0.6197  0.1946 -0.0480
    6MOL    H73 2983   4.958   7.599   2.828  0.0344 -1.4795  0.5676
    6MOL    H74 2984   4.799   7.637   2.827  0.0990 -1.9544  1.6854
    6MOL    H75 2985   4.774   7.585   2.573 -0.5379  2.2507 -0.2339
    6MOL    H76 2986   5.025   7.524   2.622  0.9002 -1.5305 -1.7094
    6MOL    H77 2987   4.806   0.125   2.671  0.7428 -0.4380  0.4022
    6MOL    H78 2988   4.965   0.120   2.597 -1.3070  2.5516 -0.3954
    6MOL    H79 2989   4.837   0.302   2.396  1.8489  1.0520  2.1388
    6MOL    H80 2990   4.745   0.283   2.548  0.6676 -0.4744 -0.3264
    6MOL    H81 2991   4.577   0.332   2.437 -0.8569  0.8025 -0.7493
    6MOL    H82 2992   4.571   0.162   2.384  0.2500 -0.5669 -1.8269
    6MOL    H83 2993   4.728   0.292   2.176 -1.9462 -0.8952 -2.7778
    6MOL    H84 2994   4.663   0.420   2.235 -1.3964 -0.2307  0.6869
    6MOL    H85 2995   4.472   0.484   2.106 -0.2640 -0.6696  1.3594
    6MOL    H86 2996   4.550   0.356   1.884  0.1984  0.7030 -0.6633
    6MOL    H87 2997   4.260   0.354   2.058  0.4593 -0.4467  0.3692
    6MOL    H88 2998   4.332   0.404   1.895  1.4014 -0.8244 -1.5681
    6MOL    C89 2999   4.240   0.156   1.900  0.5365 -0.0086  0.0427
    6MOL    C90 3000   4.274   0.013   1.857 -0.2198  0.3352  0.4913
    6MOL    O91 3001   4.302   7.640   1.972  0.5548 -0.2584  0.3269
    6MOL    C92 3002   4.156   7.643   1.770 -0.3287  0.5420  0.9560
    6MOL    O93 3003   4.144   0.035   1.655 -0.0192  0.5926  0.0859
    6MOL    C94 3004   4.022   0.008   1.575  0.2591 -0.0688  0.6896
    6MOL    C95 3005   3.894   0.057   1.648  0.2412 -0.0177  0.8929
    6MOL    C96 3006   3.887   0.201   1.697 -0.2385 -0.3459 -0.4318
    6MOL    O97 3007   3.940   0.215   1.828 -0.6432  0.1158  0.1285
    6MOL    C98 3008   3.845   0.221   1.938  0.8981 -0.8109 -0.0671
    6MOL    O99 3009   3.786   0.093   1.952  1.1678  0.1955  1.1537
    6MOL   C100 3010   3.911   0.272   2.067  0.0337  0.5716  0.0640
    6MOL   O101 3011   3.978   0.396   2.050  0.8312  0.3712 -0.6978
    6MOL   H102 3012   4.205   0.212   1.813 -2.2220 -0.9802  0.4662
    6MOL   H103 3013   4.145   0.148   1.954  0.4411 -0.7972 -0.2466
    6MOL   H104 3014   4.368   0.016   1.801 -0.3616 -0.7429  0.1786
    6MOL   H105 3015   4.346   0.009   2.027 -1.1051  0.7989  0.4762
    6MOL   H106 3016   4.187   7.539   1.766 -1.4217  0.2595 -0.4866
    6MOL   H107 3017   4.070   7.652   1.836  0.2365  0.8327  1.6695
    6MOL   H108 3018   4.017   7.597   1.548 -0.7833  0.2075 -0.2349
    6MOL   H109 3019   4.036   0.066   1.483 -1.1225  1.4919  1.4464
    6MOL   H110 3020   3.870   7.689   1.734 -1.1155 -0.7016  0.0381
    6MOL   H111 3021   3.807   0.049   1.582  1.5885  0.6749 -0.9899
    6MOL   H112 3022   3.941   0.264   1.627  3.2607  1.1098  3.3897
    6MOL   H113 3023   3.785   0.239   1.708 -0.0515  0.1992 -0.5549
    6MOL   H114 3024   3.770   0.294   1.905  2.4479  0.9076  0.1824
    6MOL   H115 3025   3.703   0.103   1.995  0.3466 -0.5205 -0.2219
    6MOL   H116 3026   3.834   0.285   2.143  1.5115 -0.7690  1.8223
    6MOL   H117 3027   3.978   0.196   2.107 -2.6807 -3.6169 -3.0227
    6MOL   C118 3028   4.018   0.450   2.178 -0.4378 -0.4484  0.4254
    6MOL   C119 3029   4.062   0.594   2.167 -0.8591  0.6504  1.0876
    6MOL   O120 3030   4.095   0.639   2.299 -0.8344 -0.5220 -0.4224
    6MOL   C121 3031   3.965   0.677   2.089 -0.0080  0.0773  0.2314
    6MOL   O122 3032   3.829   0.668   2.134  0.0046  0.0714  0.1733
    6MOL   C123 3033   3.751   0.731   2.031  0.2688  0.0969  0.8269
    6MOL   C124 3034   3.610   0.752   2.088  0.9397  0.2579 -0.0783
    6MOL   C125 3035   3.600   0.855   2.199 -0.0283  0.1807 -0.1213
    6MOL   O126 3036   3.484   0.831   2.281 -0.2863  0.9005  0.2684
    6MOL   C127 3037   3.444   0.936   2.369 -0.0106 -0.0426  0.0105
    6MOL   O128 3038   3.545   0.949   2.465 -0.3042 -0.2164  0.2893
    6MOL   C129 3039   3.319   0.893   2.449 -0.6955 -0.1611  0.0792
    6MOL   O130 3040   3.214   0.925   2.367  0.0590 -0.4142 -0.2198
    6MOL   H131 3041   3.936   0.449   2.250  0.2759  0.0132  1.2560
    6MOL   H132 3042   4.095   0.388   2.225 -0.3613 -0.4867  0.2514
    6MOL   H133 3043   4.152   0.604   2.106 -1.8211  0.5081 -0.3828
    6MOL   H134 3044   4.017   0.673   2.342  0.9465  0.4688  2.1085
    6MOL   H135 3045   3.981   0.784   2.078  0.3954 -0.1287 -1.3311
    6MOL   H136 3046   3.964   0.648   1.984 -2.1013  0.8561  0.0032
    6MOL   H137 3047   3.752   0.667   1.943  0.2314  1.8218 -0.4614
    6MOL   H138 3048   3.784   0.833   2.010 -1.1070  0.3662 -0.0956
    6MOL   H139 3049   3.571   0.659   2.129 -1.3020  1.1281 -0.2077
    6MOL   H140 3050   3.546   0.776   2.004  1.1912 -0.3224 -0.4425
    6MOL   H141 3051   3.690   0.843   2.260  1.1689  2.4982 -1.3479
    6MOL   H142 3052   3.581   0.951   2.152 -1.8218  0.3325  0.8701
    6MOL   H143 3053   3.435   1.035   2.324 -1.9917  0.2901  1.0927
    6MOL   H144 3054   3.554   1.043   2.478  0.1970 -0.3252  0.7673
    6MOL   H145 3055   3.312   0.787   2.474  2.5824 -0.3125  0.6433
    6MOL   H146 3056   3.332   0.941   2.546  0.0884  0.1482 -0.1771
    6MOL   C147 3057   3.092   0.931   2.433 -1.7241 -0.0588  1.1530
    6MOL   C148 3058   2.975   0.912   2.345  0.4579  0.3654  0.1179
    6MOL   O149 3059   2.995   1.003   2.247 -0.0561 -0.4138  0.2273
    6MOL   C150 3060   2.845   0.925   2.427 -0.0147  0.0003 -0.3909
    6MOL   O151 3061   2.724   0.886   2.360  0.0946  0.3701 -0.0042
    6MOL   C152 3062   2.608   0.861   2.444  0.1422 -0.5031 -0.6621
    6MOL   C153 3063   2.483   0.827   2.354 -0.3490 -0.6485  0.2267
    6MOL   C154 3064   2.352   0.803   2.434  0.5246  0.0433  0.2884
    6MOL   O155 3065   2.250   0.782   2.334  0.6522 -0.4643 -0.0622
    6MOL   C156 3066   2.126   0.768   2.396  0.9485 -0.3072 -0.1793
    6MOL   O157 3067   2.111   0.640   2.453  0.0587 -0.3053 -0.0204
    6MOL   C158 3068   2.018   0.785   2.293 -0.2625  0.4214 -0.4107
    6MOL   O159 3069   2.022   0.676   2.198 -0.1062 -0.2882 -0.1117
    6MOL   H160 3070   3.078   1.025   2.486 -1.4446  0.9006 -0.4516
    6MOL   H161 3071   3.093   0.863   2.519 -0.7300  0.7636  1.8046
    6MOL   H162 3072   2.991   0.814   2.298  0.4063  0.7265 -0.6627
    6MOL   H163 3073   3.088   1.003   2.229  0.4657  2.0453  2.5410
    6MOL   H164 3074   2.848   0.858   2.513 -2.5113  1.3210  0.7909
    6MOL   H165 3075   2.840   1.027   2.465 -0.9862 -0.0519 -0.3555
    6MOL   H166 3076   2.581   0.939   2.515 -0.9088  0.6139 -2.2569
    6MOL   H167 3077   2.635   0.766   2.490 -0.6649  0.0368  0.9725
    6MOL   H168 3078   2.503   0.752   2.278 -0.1014 -1.1565  0.7898
    6MOL   H169 3079   2.450   0.919   2.305  1.4276 -0.1736 -0.0916
    6MOL   H170 3080   2.357   0.719   2.504 -0.1734  1.2970  1.8674
    6MOL   H171 3081   2.330   0.893   2.491 -1.8183 -1.1485  1.3412
    6MOL   H172 3082   2.109   0.842   2.474  2.1638 -0.4584  0.2526
    6MOL   H173 3083   2.078   0.579   2.388 -0.2545 -0.4595  0.2805
    6MOL   H174 3084   1.926   0.794   2.350 -2.5655  0.0691 -3.9254
    6MOL   H175 3085   2.024   0.878   2.238 -3.6311  1.4529  0.8252
    6MOL   C176 3086   1.908   0.665   2.112 -0.2157  0.0519 -0.1818
    6MOL   C177 3087   1.785   0.622   2.190  0.5751  0.1498 -0.3953
    6MOL   O178 3088   1.759   0.484   2.175  0.2855  0.2036 -0.0612
    6MOL   C179 3089   1.655   0.695   2.152 -0.3902 -0.8415  0.0815
    6MOL   O180 3090   1.642   0.800   2.243 -0.6154 -0.0297  0.1478
    6MOL   C181 3091   1.635   0.925   2.180 -0.4183 -0.0931 -0.3438
    6MOL   C182 3092   1.597   1.020   2.290 -0.0169  0.5281 -1.1419
    6MOL   C183 3093   1.587   1.164   2.241 -0.3974 -0.4674  0.1770
    6MOL   O184 3094   1.729   1.201   2.217  0.7743 -0.0053  0.2025
    6MOL   C185 3095   1.740   1.330   2.174  0.8931 -0.6337 -0.7790
    6MOL   O186 3096   1.691   1.356   2.046 -0.3364 -0.5599  0.0073
    6MOL   C187 3097   1.887   1.369   2.168 -0.4689  0.3597 -0.4878
    6MOL   O188 3098   1.940   1.385   2.299 -0.1392  0.3262 -0.2410
    6MOL   H189 3099   1.934   0.589   2.040 -1.0255 -2.3925  2.0286
    6MOL   H190 3100   1.893   0.757   2.055  0.1272  0.0482 -0.2741
    6MOL   H191 3101   1.786   0.635   2.298 -0.5997 -1.2360 -0.2004
    6MOL   H192 3102   1.713   0.476   2.093  0.3871 -0.2700 -0.0769
    6MOL   H193 3103   1.648   0.711   2.045 -2.6046  2.3496  0.6125
    6MOL   H194 3104   1.569   0.631   2.172 -2.4312  1.6284 -0.4783
    6MOL   H195 3105   1.565   0.927   2.097 -0.3755  2.5676 -0.3472
    6MOL   H196 3106   1.734   0.946   2.140  0.2821  2.0081  2.3565
    6MOL   H197 3107   1.655   1.003   2.381 -0.0288  0.7543 -1.0904
    6MOL   H198 3108   1.500   0.999   2.336  0.9089 -1.1407  0.1106
    6MOL   H199 3109   1.526   1.188   2.154 -0.6798  0.7405  0.6877
    6MOL   H200 3110   1.564   1.224   2.330  1.4321 -0.5147  0.6968
    6MOL   H201 3111   1.694   1.393   2.250  2.9001  0.9430 -0.8398
    6MOL   H202 3112   1.754   1.322   1.984 -0.8881  1.2975 -1.6541
    6MOL   H203 3113   1.943   1.290   2.119 -2.6788 -1.8391  0.4634
    6MOL   H204 3114   1.902   1.468   2.124  1.9930 -0.6154 -1.9603
    6MOL   C205 3115   2.069   1.330   2.320  0.2855  0.1387  0.1008
    6MOL   C206 3116   2.062   1.210   2.418  0.6279  0.2519  0.8166
    6MOL   O207 3117   2.007   1.108   2.339  0.2583  0.1079 -0.0044
    6MOL   C208 3118   2.200   1.166   2.483 -0.0668  0.0464  0.5292
    6MOL   O209 3119   2.179   1.101   2.612 -0.2889 -1.1532 -0.1349
    6MOL   C210 3120   2.294   1.077   2.686 -0.3587 -0.2490  1.0737
    6MOL   C211 3121   2.278   0.941   2.759 -0.2463  0.6983  0.3796
    6MOL   C212 3122   2.417   0.896   2.818 -0.7905 -0.3874 -0.0047
    6MOL   O213 3123   2.485   0.991   2.902  0.2275  0.1124 -0.4614
    6MOL   C214 3124   2.419   1.008   3.022  0.2071  0.0586 -0.4365
    6MOL   O215 3125   2.324   1.105   3.010 -0.6483 -0.2048  0.2009
    6MOL   C216 3126   2.512   1.076   3.120  0.5743 -0.3539  0.6543
    6MOL   O217 3127   2.581   1.177   3.065 -0.0657 -0.2089  0.1798
    6MOL   H218 3128   2.131   1.410   2.360  1.2355  1.0552 -3.0470
    6MOL   H219 3129   2.124   1.298   2.231  0.4473 -0.5957  0.4610
    6MOL   H220 3130   1.993   1.224   2.501 -2.1447  0.5802 -1.4482
    6MOL   H221 3131   1.922   1.142   2.316  0.2105 -0.5053 -0.7429
    6MOL   H222 3132   2.270   1.110   2.420  0.1635  0.8280  0.0940
    6MOL   H223 3133   2.247   1.261   2.506  1.1088 -0.7029  1.3288
    6MOL   H224 3134   2.315   1.160   2.754 -0.1561  0.6823 -0.1068
    6MOL   H225 3135   2.380   1.062   2.621 -1.0442  0.4854 -0.0196
    6MOL   H226 3136   2.236   0.866   2.691 -0.3606  0.9081  0.2201
    6MOL   H227 3137   2.203   0.961   2.837  0.3766 -1.2244  1.5086
    6MOL   H228 3138   2.414   0.802   2.872 -0.0826 -0.3924  0.0243
    6MOL   H229 3139   2.479   0.876   2.731 -2.7749 -0.7859 -1.3510
    6MOL   H230 3140   2.372   0.915   3.055  0.0038  0.0834 -0.6541
    6MOL   H231 3141   2.367   1.189   3.017 -1.3658  0.1124  0.8150
    6MOL   H232 3142   2.456   1.108   3.208 -1.7076  0.9820 -1.2307
    6MOL   H233 3143   2.581   0.997   3.147  0.4036 -0.8413 -0.3067
    6MOL   C234 3144   2.675   1.240   3.154  0.2434 -0.2541  0.0109
    6MOL   C235 3145   2.616   1.341   3.254 -0.3383  0.2415  0.2609
    6MOL   O236 3146   2.576   1.455   3.179 -0.0981 -0.2715 -0.9700
    6MOL   C237 3147   2.721   1.387   3.356  0.1464 -0.6238  0.6156
    6MOL   O238 3148   2.651   1.469   3.453  0.3816  0.3072 -0.3175
    6MOL   C239 3149   2.616   1.386   3.567  0.1812 -0.0532 -0.1653
    6MOL   C240 3150   2.553   1.472   3.676 -0.8323 -0.4432  0.3753
    6MOL   C241 3151   2.540   1.410   3.812  0.6299  0.1326  0.4953
    6MOL   O242 3152   2.476   1.282   3.792 -0.0267 -0.2047 -0.3561
    6MOL   C243 3153   2.470   1.208   3.915 -0.2059 -0.4264 -0.1016
    6MOL   O244 3154   2.588   1.144   3.947 -0.2609 -0.4861 -0.4798
    6MOL   C245 3155   2.359   1.110   3.899 -0.3922 -0.2568  0.2198
    6MOL   O246 3156   2.303   1.084   4.028 -0.1607  0.3753 -0.0494
    6MOL   H247 3157   2.737   1.176   3.215 -1.6655 -0.7502  1.4936
    6MOL   H248 3158   2.750   1.287   3.091 -2.5522 -0.0154 -3.3019
    6MOL   H249 3159   2.524   1.298   3.294 -0.1851 -0.0818  0.2670
    6MOL   H250 3160   2.623   1.534   3.199 -0.5231 -0.2167 -0.1816
    6MOL   H251 3161   2.776   1.310   3.410  0.8320 -0.1528  0.5974
    6MOL   H252 3162   2.794   1.444   3.299 -2.0900  0.0655 -1.6540
    6MOL   H253 3163   2.708   1.344   3.606  0.3607 -0.8459 -1.4168
    6MOL   H254 3164   2.559   1.299   3.532 -0.3033 -0.1328  0.8081
    6MOL   H255 3165   2.455   1.500   3.637  0.2998  1.4847 -1.1409
    6MOL   H256 3166   2.606   1.565   3.691  0.3413 -1.4135  2.5770
    6MOL   H257 3167   2.639   1.388   3.853  0.3842  2.0355  2.1926
    6MOL   H258 3168   2.479   1.477   3.873  0.7307  0.4819  0.2148
    6MOL   H259 3169   2.445   1.278   3.995  0.1971 -0.9775  0.5109
    6MOL   H260 3170   2.572   1.059   3.984  0.5624 -0.7086 -0.6205
    6MOL   H261 3171   2.287   1.158   3.833  0.1994 -1.0792 -1.0537
    6MOL   H262 3172   2.382   1.028   3.831 -1.8290 -0.6807  0.2308
    6MOL   C263 3173   2.298   0.947   4.066 -0.3073  0.0381  0.1823
    6MOL   C264 3174   2.432   0.901   4.130  0.4215  0.4523  0.7065
    6MOL   O265 3175   2.526   0.878   4.027 -0.3486 -0.2437 -0.1863
    6MOL   C266 3176   2.486   1.010   4.224 -0.3683  0.3173  0.5623
    6MOL   O267 3177   2.585   0.929   4.285  0.3866 -0.8703  0.7621
    6MOL   C268 3178   2.657   1.001   4.385 -0.0499 -0.3165  0.6284
    6MOL   C269 3179   2.747   0.922   4.476 -0.4037 -0.0215  0.3610
    6MOL   C270 3180   2.846   0.840   4.402  0.7185  0.1236  0.2877
    6MOL   O271 3181   2.913   0.751   4.484  0.3641 -0.2155  0.4077
    6MOL   C272 3182   2.997   0.664   4.414  0.4245 -0.7577  0.3733
    6MOL   O273 3183   3.115   0.731   4.377 -0.5834  0.8180 -0.1566
    6MOL   C274 3184   3.040   0.550   4.499 -0.1584  0.3747 -0.7690
    6MOL   O275 3185   2.958   0.438   4.471  0.0153 -0.1416  0.0777
    6MOL   H276 3186   2.261   0.892   3.980  2.2761 -0.8034 -0.4411
    6MOL   H277 3187   2.226   0.939   4.148  0.4609 -1.1559  0.7540
    6MOL   H278 3188   2.408   0.808   4.181 -0.1599 -0.0399 -0.4358
    6MOL   H279 3189   2.598   0.830   4.066  1.6303  1.3132 -1.7708
    6MOL   H280 3190   2.539   1.089   4.172  0.1796 -0.6691 -0.4060
    6MOL   H281 3191   2.404   1.043   4.289  0.7953  2.6299  0.9039
    6MOL   H282 3192   2.577   1.047   4.443  0.8087  3.8146 -1.2912
    6MOL   H283 3193   2.712   1.089   4.353  1.1010 -0.3327  2.4506
    6MOL   H284 3194   2.680   0.853   4.529 -1.4875 -0.1659 -1.1922
    6MOL   H285 3195   2.801   0.985   4.547  2.4156 -1.0749 -0.7825
    6MOL   H286 3196   2.794   0.796   4.317  2.8094  1.0119 -1.4983
    6MOL   H287 3197   2.913   0.911   4.353  2.6538 -2.4625 -0.9198
    6MOL   H288 3198   2.955   0.630   4.320 -2.2423  2.1707  0.3899
    6MOL   H289 3199   3.152   0.672   4.313  1.5218 -0.9652  2.6146
    6MOL   H290 3200   3.136   0.508   4.470  0.4057  1.7268 -0.9059
    6MOL   H291 3201   3.051   0.579   4.604  0.3396 -0.1671 -0.6722
    6MOL   C292 3202   3.006   0.326   4.549  0.2085  0.2548  0.5672
    6MOL   C293 3203   2.951   0.199   4.484  0.2752 -0.0227  0.5226
    6MOL   O294 3204   3.032   0.168   4.371 -0.1650  0.0213 -0.0013
    6MOL   C295 3205   2.979   0.078   4.580 -0.1304 -0.4554 -0.0990
    6MOL   O296 3206   2.915   7.653   4.523  0.4283  0.1668 -0.4786
    6MOL   C297 3207   2.951   7.531   4.582 -0.1997  0.2644  0.0512
    6MOL   C298 3208   2.846   7.425   4.571 -1.2913 -0.3128  0.1383
    6MOL   C299 3209   2.733   7.413   4.678 -0.4157 -0.0277  0.5157
    6MOL   O300 3210   2.779   7.332   4.780  0.0592 -0.2415 -0.0187
    6MOL   C301 3211   2.692   7.322   4.893 -0.2203 -0.8161  0.7034
    6MOL   O302 3212   2.572   7.259   4.875  0.5857 -0.3537  0.5441
    6MOL   C303 3213   2.764   7.265   5.012 -0.1907 -0.3344  0.6746
    6MOL   O304 3214   2.774   7.123   5.002  0.5217  0.0794  0.3047
    6MOL   H305 3215   3.114   0.322   4.562  0.9469  2.5746 -3.8606
    6MOL   H306 3216   2.970   0.334   4.652  0.4273 -0.3014  0.6958
    6MOL   H307 3217   2.844   0.211   4.471  0.4497  2.2503  1.0447
    6MOL   H308 3218   3.000   0.084   4.343 -0.8693  0.2528  0.1033
    6MOL   H309 3219   3.087   0.066   4.589 -0.0978 -1.7335 -1.8779
    6MOL   H310 3220   2.941   0.098   4.680 -3.1420 -0.2047 -1.2563
    6MOL   H311 3221   2.973   7.529   4.689  0.8370 -1.6897 -0.1793
    6MOL   H312 3222   3.041   7.499   4.530 -0.3178 -0.1305  0.0846
    6MOL   H313 3223   2.914   7.339   4.572 -0.5419  0.2118 -2.5862
    6MOL   H314 3224   2.803   7.422   4.471  0.8855 -0.1711 -0.8357
    6MOL   H315 3225   2.714   7.518   4.701 -2.2831 -0.3915  0.7200
    6MOL   H316 3226   2.644   7.365   4.637  0.9284 -1.8887 -0.2912
    6MOL   H317 3227   2.673   7.424   4.926 -0.9033 -0.5043 -0.6144
    6MOL   H318 3228   2.578   7.180   4.926 -0.8977  0.1552  1.5435
    6MOL   H319 3229   2.721   7.280   5.111  0.1650  0.7575  0.6672
    6MOL   H320 3230   2.856   7.324   5.017 -1.9527  2.5391  0.2914
    6MOL   C321 3231   2.902   7.075   5.017  0.7195 -0.0301 -0.1674
    6MOL   C322 3232   2.983   7.059   4.879 -0.1665 -0.5047  0.7357
    6MOL   O323 3233   3.017   7.185   4.833 -0.0660 -0.1540  0.0075
    6MOL   C324 3234   3.105   6.972   4.884 -0.3078 -0.0476  0.1346
    6MOL   O325 3235   3.071   6.835   4.923  0.1952  0.3623  0.0666
    6MOL   C326 3236   3.160   6.774   5.020 -0.3103 -0.3856 -0.7349
    6MOL   C327 3237   3.147   6.852   5.153  0.1411  0.2822 -0.7861
    6MOL   C328 3238   3.222   6.788   5.274 -0.1305 -0.3927  0.0156
    6MOL   O329 3239   3.360   6.809   5.264 -0.5999 -0.1163 -0.1174
    6MOL   C330 3240   3.425   6.774   5.392  0.0334 -0.3313  0.8904
    6MOL   O331 3241   3.421   6.636   5.407 -0.2835  0.3851  0.4002
    6MOL   C332 3242   3.568   6.815   5.364 -0.2860 -0.9158 -0.2213
    6MOL   O333 3243   3.584   6.953   5.399  0.0684  0.5778 -0.5352
    6MOL   H334 3244   2.882   6.972   5.049 -0.1146  0.1140 -0.2188
    6MOL   H335 3245   2.950   7.128   5.100 -0.4002  0.0604  0.4294
    6MOL   H336 3246   2.925   7.020   4.796  0.9950  2.1282 -1.4052
    6MOL   H337 3247   2.934   7.226   4.820  0.8097  2.1594  1.3879
    6MOL   H338 3248   3.178   7.016   4.953 -0.8009  0.0948  0.5648
    6MOL   H339 3249   3.150   6.960   4.785 -0.0424  1.2134  0.0829
    6MOL   H340 3250   3.256   6.777   4.969 -1.3945 -1.2678 -2.8993
    6MOL   H341 3251   3.133   6.670   5.036 -1.3623 -0.0099  0.0466
    6MOL   H342 3252   3.171   6.958   5.148  1.1773  0.0223 -1.5450
    6MOL   H343 3253   3.042   6.849   5.181  0.1388  1.5975 -0.6473
    6MOL   H344 3254   3.184   6.821   5.370  1.5631  0.6314  0.3515
    6MOL   H345 3255   3.203   6.682   5.255 -1.7104  0.3668 -2.9626
    6MOL   H346 3256   3.380   6.816   5.482  0.9555  1.8222  0.3766
    6MOL   H347 3257   3.427   6.603   5.495 -0.5832  0.6517  0.5202
    6MOL   H348 3258   3.631   6.758   5.433  0.1376 -0.4995 -0.2540
    6MOL   H349 3259   3.607   6.799   5.264 -0.7335  0.8758 -0.7058
    6MOL   C350 3260   3.718   7.008   5.409 -0.6204  0.1135 -0.5952
    6MOL   C351 3261   3.719   7.156   5.433 -0.1935 -0.0564 -0.1333
    6MOL   O352 3262   3.666   7.184   5.558 -1.0047  0.0750  0.3397
    6MOL   C353 3263   3.851   7.238   5.416 -0.7805 -0.9622  0.3834
    6MOL   O354 3264   3.892   7.225   5.278 -0.6778 -0.1879 -0.1168
    6MOL   C355 3265   4.014   7.300   5.245  0.0354 -0.2924  0.2179
    6MOL   C356 3266   4.139   7.242   5.313  0.0266  0.7467  0.2731
    6MOL   C357 3267   4.261   7.296   5.246 -0.2100  0.2368  0.7058
    6MOL   O358 3268   4.370   7.236   5.319 -0.2270 -0.2201 -0.7626
    6MOL   C359 3269   4.499   7.248   5.264 -0.4673  0.3781 -0.2689
    6MOL   O360 3270   4.545   7.379   5.256  0.1788  0.2856  0.2520
    6MOL   C361 3271   4.596   7.172   5.355 -1.0324 -0.2432 -1.1587
    6MOL   O362 3272   4.579   7.029   5.344 -0.1361  0.1643  0.7613
    6MOL   H363 3273   3.770   6.981   5.317 -0.6269 -0.5254 -0.4087
    6MOL   H364 3274   3.774   6.959   5.488 -2.5435  0.8323  1.2790
    6MOL   H365 3275   3.653   7.197   5.358 -1.5606 -0.1989  0.9773
    6MOL   H366 3276   3.579   7.148   5.557 -0.9523 -0.0563  0.8220
    6MOL   H367 3277   3.840   7.346   5.428 -1.2802 -0.8432 -1.1037
    6MOL   H368 3278   3.927   7.199   5.484  1.7446  0.3146 -1.5955
    6MOL   H369 3279   4.000   7.406   5.263 -1.6784 -0.1684 -1.6243
    6MOL   H370 3280   4.014   7.291   5.136 -0.5949 -1.5784  0.3060
    6MOL   H371 3281   4.144   7.133   5.302 -0.2105  0.8971 -1.6411
    6MOL   H372 3282   4.136   7.272   5.417 -0.8013  0.8388  0.2289
    6MOL   H373 3283   4.266   7.263   5.143 -0.4719 -0.2730  0.8589
    6MOL   H374 3284   4.260   7.405   5.242  1.7399  0.2874  0.7478
    6MOL   H375 3285   4.505   7.205   5.164 -0.6676 -0.1416 -0.0567
    6MOL   H376 3286   4.624   7.386   5.309  1.7645 -0.4598 -1.9444
    6MOL   H377 3287   4.700   7.195   5.331  0.3596 -2.0312  2.7982
    6MOL   H378 3288   4.577   7.202   5.458  0.8002 -1.1249 -0.5377
    6MOL   C379 3289   4.492   6.977   5.441 -0.1965 -0.2250  0.3614
    6MOL   C380 3290   4.506   6.826   5.438  0.0074  0.2217 -0.3578
    6MOL   O381 3291   4.597   6.808   5.547  0.3446 -0.1362  0.1840
    6MOL   C382 3292   4.382   6.747   5.479 -0.2944 -0.1941  0.3343
    6MOL   O383 3293   4.388   6.615   5.426  0.3797  0.3292 -0.1832
    6MOL   C384 3294   4.258   6.550   5.445 -0.7316 -0.1048 -0.0187
    6MOL   C385 3295   4.234   6.454   5.334 -0.2502  0.2967  0.4498
    6MOL   C386 3296   4.114   6.352   5.357 -0.1522 -0.3147 -0.4817
    6MOL   O387 3297   4.100   6.262   5.252 -0.2031  0.8264 -0.4768
    6MOL   C388 3298   3.996   6.173   5.267 -0.5830  0.2359  0.2374
    6MOL   O389 3299   3.868   6.232   5.274 -0.0505  0.0218 -0.1845
    6MOL   C390 3300   4.001   6.062   5.153 -0.0676  0.1883  0.2524
    6MOL   O391 3301   4.037   5.936   5.211 -0.2727 -0.4045 -0.6859
    6MOL   H392 3302   4.390   7.005   5.414 -1.1282  0.3504  4.1544
    6MOL   H393 3303   4.528   7.013   5.538  3.8815 -2.5310 -0.1849
    6MOL   H394 3304   4.545   6.795   5.341  2.3917 -2.5727  1.3807
    6MOL   H395 3305   4.651   6.885   5.551 -1.0713  0.8545  0.6276
    6MOL   H396 3306   4.365   6.748   5.587  0.4983  1.2928  0.4628
    6MOL   H397 3307   4.297   6.792   5.429 -0.0885 -2.3169 -2.0265
    6MOL   H398 3308   4.182   6.627   5.430  0.7824  0.8491 -3.3991
    6MOL   H399 3309   4.249   6.502   5.542  1.3282 -1.0118 -0.2527
    6MOL   H400 3310   4.325   6.399   5.314 -0.0382  0.9776 -0.4810
    6MOL   H401 3311   4.212   6.506   5.241 -2.9379 -0.6092  0.5186
    6MOL   H402 3312   4.136   6.290   5.444 -0.2206  1.4496  0.8160
    6MOL   H403 3313   4.019   6.404   5.370  0.2458  0.3793 -0.3418
    6MOL   H404 3314   4.012   6.115   5.358  0.6017 -0.0457 -0.1486
    6MOL   H405 3315   3.808   6.160   5.261 -0.7012  0.7570 -1.3874
    6MOL   H406 3316   3.900   6.043   5.116 -0.3957  0.3250  1.0723
    6MOL   H407 3317   4.067   6.100   5.074 -0.3255  2.0621  0.9262
    6MOL   C408 3318   4.133   5.872   5.131 -0.2932 -0.4046 -0.2170
    6MOL   C409 3319   4.191   5.748   5.199  0.7436 -0.0428 -0.1038
    6MOL   O410 3320   4.304   5.698   5.129 -0.4492  0.2884  0.2067
    6MOL   C411 3321   4.077   5.639   5.201 -0.5383  0.5765 -0.0972
    6MOL   O412 3322   4.072   5.571   5.331 -0.2471  0.1627 -0.1679
    6MOL   C413 3323   4.192   5.490   5.353 -0.6394 -0.1797  0.1699
    6MOL   C414 3324   4.164   5.424   5.489  0.4299 -0.1150 -0.2310
    6MOL   C415 3325   4.285   5.337   5.524 -0.1734  0.0641  0.1238
    6MOL   O416 3326   4.268   5.215   5.449 -0.2500 -0.1127 -0.4954
    6MOL   C417 3327   4.372   5.118   5.486  0.0134 -0.4998 -0.1376
    6MOL   O418 3328   4.495   5.167   5.438  0.2957 -0.2823 -0.6199
    6MOL   C419 3329   4.337   4.978   5.419 -0.0673 -0.6812  0.1145
    6MOL   O420 3330   4.446   4.886   5.453 -0.0936 -0.1503 -0.0263
    6MOL   H421 3331   4.216   5.941   5.116  0.1956 -0.7372  0.9241
    6MOL   H422 3332   4.079   5.847   5.040  0.5380 -3.2640  0.0224
    6MOL   H423 3333   4.216   5.768   5.303 -1.9039 -1.1928  0.7989
    6MOL   H424 3334   4.371   5.764   5.130 -0.9984  0.8536  0.4385
    6MOL   H425 3335   3.979   5.678   5.175 -0.2378  0.6817 -1.0791
    6MOL   H426 3336   4.101   5.571   5.120  2.6993 -0.9332  1.9976
    6MOL   H427 3337   4.190   5.403   5.287  2.6406 -1.8198  2.0973
    6MOL   H428 3338   4.292   5.532   5.341  1.0547 -3.9395  0.4575
    6MOL   H429 3339   4.070   5.368   5.487 -0.3461  1.1711 -0.0631
    6MOL   H430 3340   4.146   5.497   5.568 -1.7338  0.0847 -0.8722
    6MOL   H431 3341   4.373   5.391   5.490 -0.2343 -0.0834 -0.2642
    6MOL   H432 3342   4.295   5.325   5.632  1.3972  2.2210  0.2358
    6MOL   H433 3343   4.387   5.105   5.593 -3.2810 -1.6802  0.2223
    6MOL   H434 3344   4.542   5.193   5.516 -1.1426 -2.0097  0.8902
    6MOL   H435 3345   4.233   4.952   5.436 -0.5925  1.0559 -0.3434
    6MOL   H436 3346   4.332   4.982   5.310 -2.0523 -0.6384  0.1912
    6MOL   C437 3347   4.426   4.767   5.388  0.0730 -0.0786 -0.8299
    6MOL   C438 3348   4.552   4.675   5.396  0.0400  0.7790 -0.6849
    6MOL   O439 3349   4.572   4.641   5.533  0.2785 -0.1234  0.7255
    6MOL   C440 3350   4.662   4.758   5.334  0.2217  0.9342 -0.3178
    6MOL   O441 3351   4.771   4.674   5.304  0.2050 -0.0884 -0.2152
    6MOL   C442 3352   4.868   4.742   5.229 -0.3569  0.1135  0.4863
    6MOL   C443 3353   5.000   4.662   5.230  0.1558  0.6496  0.0795
    6MOL   C444 3354   5.013   4.543   5.125 -0.2385 -0.0326  0.2030
    6MOL   O445 3355   5.144   4.479   5.147 -0.6649 -0.1348 -0.1340
    6MOL   C446 3356   5.153   4.339   5.139 -0.4265  0.5768  0.2712
    6MOL   O447 3357   5.132   4.277   5.261 -0.1743 -0.1725  0.0183
    6MOL   C448 3358   5.294   4.309   5.086  0.0059  0.6149  0.2256
    6MOL   O449 3359   5.289   4.330   4.945 -0.6966  0.3531  0.7972
    6MOL   H450 3360   4.335   4.720   5.426  1.6373 -0.8197  2.1605
    6MOL   H451 3361   4.396   4.785   5.285 -1.3966 -0.9240 -0.5766
    6MOL   H452 3362   4.551   4.580   5.344  0.3991  0.7989 -0.7276
    6MOL   H453 3363   4.635   4.571   5.540 -2.0441 -2.3344  0.4288
    6MOL   H454 3364   4.644   4.816   5.243 -0.4601  0.7805 -0.2861
    6MOL   H455 3365   4.700   4.828   5.408  0.5323  1.3875 -0.8987
    6MOL   H456 3366   4.877   4.844   5.266  2.9430  0.3450 -0.8211
    6MOL   H457 3367   4.838   4.756   5.125  1.0615  1.1499  0.2187
    6MOL   H458 3368   5.023   4.614   5.325 -0.7407 -4.3105 -2.0671
    6MOL   H459 3369   5.078   4.732   5.203  0.2431 -0.2004 -1.9260
    6MOL   H460 3370   4.928   4.477   5.143 -0.8851  1.2656  2.0776
    6MOL   H461 3371   5.002   4.571   5.020  1.9339  0.1813  0.0182
    6MOL   H462 3372   5.085   4.302   5.063 -0.9122  2.3343 -0.1744
    6MOL   H463 3373   5.218   4.281   5.299  0.6346  0.4015 -1.8184
    6MOL   H464 3374   5.354   4.387   5.133 -0.5504  2.1907 -1.6418
    6MOL   H465 3375   5.326   4.207   5.108  0.4792  0.7548  0.1886
    6MOL   C466 3376   5.357   4.446   4.903  0.0520  0.2138  0.1089
    6MOL   C467 3377   5.366   4.463   4.749 -0.9783 -0.0959 -0.1271
    6MOL   O468 3378   5.278   4.553   4.703  0.1798 -0.3416 -0.3901
    6MOL   C469 3379   5.510   4.485   4.706 -0.3087 -0.1278 -0.4391
    6MOL   O470 3380   5.533   4.419   4.582 -0.0406 -0.1821 -0.1840
    6MOL   C471 3381   5.498   4.499   4.469 -0.9315 -0.5251  0.0619
    6MOL   C472 3382   5.492   4.398   4.352  0.2970  0.4871  0.4710
    6MOL   C473 3383   5.461   4.463   4.210  0.3076  0.2393 -0.1174
    6MOL   O474 3384   5.489   4.361   4.115 -0.2254  0.1911  0.4061
    6MOL   C475 3385   5.512   4.410   3.986 -0.3223  0.4029 -0.0065
    6MOL   O476 3386   5.401   4.477   3.934  0.1712 -0.2085  0.1334
    6MOL   C477 3387   5.532   4.283   3.903  0.0826 -0.0153  0.1961
    6MOL   O478 3388   5.626   4.306   3.798 -0.3761  1.0726 -0.1184
    6MOL   H479 3389   5.456   4.450   4.948  1.0120  1.0486 -2.0209
    6MOL   H480 3390   5.302   4.529   4.946 -2.2391 -0.5067 -1.3084
    6MOL   H481 3391   5.347   4.368   4.699 -0.9257  0.2011 -0.7067
    6MOL   H482 3392   5.189   4.524   4.717  0.6577 -0.9321  1.4675
    6MOL   H483 3393   5.541   4.589   4.699  2.2549 -0.9724 -2.9057
    6MOL   H484 3394   5.574   4.443   4.784  0.1999  0.2338 -0.6563
    6MOL   H485 3395   5.576   4.573   4.452 -0.5541 -0.5467  1.6539
    6MOL   H486 3396   5.402   4.547   4.487 -0.1869  0.9176  0.2458
    6MOL   H487 3397   5.409   4.330   4.373 -0.2718  1.2100  0.5573
    6MOL   H488 3398   5.581   4.336   4.338  0.4263  1.0359 -1.2077
    6MOL   H489 3399   5.359   4.497   4.194  0.4550  1.2168  0.9209
    6MOL   H490 3400   5.526   4.546   4.182 -0.5657  1.1468  0.4946
    6MOL   H491 3401   5.596   4.480   3.988  0.2053 -0.2406  0.7314
    6MOL   H492 3402   5.425   4.500   3.846  0.9892  0.0176  0.4088
    6MOL   H493 3403   5.565   4.205   3.970  0.4759  0.3176  0.3953
    6MOL   H494 3404   5.430   4.250   3.881 -0.4690  2.5962 -1.4127
    6MOL   C495 3405   5.661   4.194   3.714 -0.0215  0.2438 -0.6649
    6MOL   C496 3406   5.768   4.227   3.603  1.0681 -0.1095  0.2266
    6MOL   O497 3407   5.886   4.275   3.656 -0.4614 -0.4979  0.5162
    6MOL   C498 3408   5.809   4.108   3.512  0.0931 -0.1112 -0.6233
    6MOL   O499 3409   5.699   4.040   3.452 -0.0183  0.3681  0.0695
    6MOL   C500 3410   5.720   3.906   3.416 -0.1341 -0.1294 -0.0000
    6MOL   C501 3411   5.613   3.853   3.318 -0.2763  0.1220  0.2227
    6MOL   C502 3412   5.631   3.701   3.316 -0.0298 -0.4120 -0.2256
    6MOL   O503 3413   5.543   3.647   3.217  0.3663 -0.1337 -0.2339
    6MOL   C504 3414   5.549   3.508   3.193 -0.7224 -0.5413  0.3511
    6MOL   O505 3415   5.666   3.466   3.130  0.3621  0.5441  0.4467
    6MOL   C506 3416   5.427   3.468   3.102 -0.3220 -0.0460 -0.6651
    6MOL   O507 3417   5.302   3.487   3.170  0.6146 -0.2581 -0.6107
    6MOL   H508 3418   5.564   4.165   3.674  0.6258 -1.1391 -1.2544
    6MOL   H509 3419   5.694   4.110   3.774  3.4991  1.7657 -0.3714
    6MOL   H510 3420   5.728   4.305   3.538  1.2170 -0.5268 -0.3636
    6MOL   H511 3421   5.916   4.209   3.717 -1.0802  1.2910  2.8017
    6MOL   H512 3422   5.870   4.134   3.426 -1.7312  1.7365 -1.3889
    6MOL   H513 3423   5.862   4.039   3.579 -1.5017  0.2678  1.0471
    6MOL   H514 3424   5.704   3.846   3.505 -1.3823  1.7226  1.0514
    6MOL   H515 3425   5.812   3.892   3.359  0.9890  1.3168  1.4297
    6MOL   H516 3426   5.630   3.895   3.219 -0.0477 -0.6634 -0.0770
    6MOL   H517 3427   5.514   3.874   3.357 -0.6582  1.0395 -1.2087
    6MOL   H518 3428   5.737   3.691   3.296  0.2796 -0.1158  1.2073
    6MOL   H519 3429   5.606   3.653   3.411 -1.6389 -0.9664 -0.8986
    6MOL   H520 3430   5.542   3.445   3.281  1.7837  1.3204  1.9253
    6MOL   H521 3431   5.719   3.413   3.188  0.1751 -1.8499 -1.4578
    6MOL   H522 3432   5.442   3.527   3.012  3.3435  0.4084  0.1929
    6MOL   H523 3433   5.434   3.360   3.090  1.3046  0.1235 -1.3016
    6MOL   C524 3434   5.183   3.468   3.091  0.0166  0.1235  0.1762
    6MOL   C525 3435   5.060   3.437   3.184  0.0467 -0.5004  0.9874
    6MOL   O526 3436   5.047   3.296   3.202 -0.0341  0.4384  0.0596
    6MOL   C527 3437   4.925   3.483   3.122  0.2958  0.0333  0.4632
    6MOL   O528 3438   4.915   3.619   3.107  0.2468  0.0841  0.0021
    6MOL   C529 3439   4.780   3.666   3.088  0.4676 -0.0794 -0.3942
    6MOL   C530 3440   4.748   3.647   2.937 -0.3995  0.3184 -0.0584
    6MOL   C531 3441   4.843   3.729   2.846 -0.0982 -0.0599 -0.2212
    6MOL   O532 3442   4.789   3.718   2.715 -0.2777 -0.1041  0.6096
    6MOL   C533 3443   4.875   3.756   2.612  0.4480  0.2056 -0.6192
    6MOL   O534 3444   4.983   3.673   2.600 -0.4859  0.1890 -0.2083
    6MOL   C535 3445   4.788   3.751   2.489 -0.3006  0.2503 -0.2711
    6MOL   O536 3446   4.706   3.867   2.491  0.4838 -0.1405  0.1122
    6MOL   H537 3447   5.203   3.390   3.017  1.0458 -0.1547  0.7417
    6MOL   H538 3448   5.164   3.558   3.033  2.1479  0.0251 -0.7029
    6MOL   H539 3449   5.076   3.486   3.280  1.8355 -3.4346  2.2524
    6MOL   H540 3450   5.015   3.257   3.122 -1.6751  0.6318  0.5978
    6MOL   H541 3451   4.908   3.437   3.025 -0.9082  0.2691  0.5473
    6MOL   H542 3452   4.846   3.446   3.188  0.0694 -2.3556 -1.1173
    6MOL   H543 3453   4.780   3.772   3.115  0.9717 -0.0775 -0.4117
    6MOL   H544 3454   4.695   3.624   3.143  1.4848  0.5168  1.6887
    6MOL   H545 3455   4.645   3.679   2.922 -0.8366  0.3121  2.6506
    6MOL   H546 3456   4.753   3.541   2.914  3.8275  0.6190 -1.0485
    6MOL   H547 3457   4.852   3.834   2.874  0.4503 -0.4955  1.2932
    6MOL   H548 3458   4.946   3.694   2.854 -0.1664 -0.3574 -0.6584
    6MOL   H549 3459   4.904   3.860   2.629  1.5144  0.0686 -1.6012
    6MOL   H550 3460   4.942   3.597   2.563 -0.5015  0.1863 -0.1855
    6MOL   H551 3461   4.851   3.747   2.400 -0.6499  2.6573 -0.6478
    6MOL   H552 3462   4.740   3.653   2.485  1.5078 -0.7899  2.0065
    6MOL   C553 3463   4.609   3.862   2.386  0.1512 -0.1580  0.1804
    6MOL   C554 3464   4.612   4.005   2.314  0.5025 -0.5004  0.5721
    6MOL   O555 3465   4.530   4.013   2.205  0.0828 -0.0938  0.0790
    6MOL   C556 3466   4.752   4.036   2.253 -0.3621  0.4460  0.0962
    6MOL   O557 3467   4.766   3.958   2.138 -0.2265 -0.4293  0.1182
    6MOL   C558 3468   4.843   4.013   2.030  0.9657  0.2105  0.2238
    6MOL   C559 3469   4.756   4.113   1.958  0.6462  0.2604 -0.5981
    6MOL   C560 3470   4.831   4.227   1.894 -0.0883  0.1617  0.1133
    6MOL   O561 3471   4.738   4.331   1.870  0.1315 -0.2558 -0.5847
    6MOL   C562 3472   4.797   4.453   1.843  0.7647  0.1281  0.4337
    6MOL   O563 3473   4.899   4.442   1.746 -0.0824 -0.5448 -0.1354
    6MOL   C564 3474   4.690   4.539   1.780 -0.6045  0.3632 -0.5903
    6MOL   O565 3475   4.668   4.526   1.646  0.1462  0.1259  0.2066
    6MOL   H566 3476   4.507   3.851   2.421 -0.0604  0.9974 -0.0274
    6MOL   H567 3477   4.645   3.783   2.320  1.4828  0.5376  0.0420
    6MOL   H568 3478   4.607   4.078   2.394  2.4296  0.6399 -0.3133
    6MOL   H569 3479   4.581   3.989   2.130 -2.0438 -1.3719 -1.0107
    6MOL   H570 3480   4.749   4.140   2.223  3.0557  0.7014  0.4377
    6MOL   H571 3481   4.833   4.019   2.324 -1.9027 -0.8391  1.5975
    6MOL   H572 3482   4.937   4.047   2.074  0.2958 -0.4283  2.2265
    6MOL   H573 3483   4.864   3.929   1.965 -0.5018 -0.1135  0.1534
    6MOL   H574 3484   4.685   4.151   2.031  1.9300 -1.8417  1.8010
    6MOL   H575 3485   4.700   4.071   1.875 -2.0392  0.6653  0.9576
    6MOL   H576 3486   4.912   4.258   1.961  2.8263 -1.6398 -2.4232
    6MOL   H577 3487   4.877   4.189   1.803  0.2730  0.2988  0.2345
    6MOL   H578 3488   4.838   4.497   1.934 -2.2318  1.9017  0.9927
    6MOL   H579 3489   4.857   4.461   1.664 -3.2965  0.4029  1.6460
    6MOL   H580 3490   4.596   4.525   1.834  0.6910 -0.3401  1.5476
    6MOL   H581 3491   4.725   4.641   1.797 -2.4300  0.7578  0.9939
    6MOL   H582 3492   4.599   4.584   1.619  0.2742  0.0153 -0.3677
    7MOL     C1 3493   4.332   2.855   4.154 -0.1954  0.3879 -0.4717
    7MOL     C2 3494   4.406   2.873   4.018 -0.2980 -1.2223 -0.3205
    7MOL     O3 3495   4.396   3.010   3.983  0.4529  0.3315  0.0595
    7MOL     C4 3496   4.560   2.838   4.012 -0.2839 -0.0439  0.7950
    7MOL     O5 3497   4.595   2.824   3.876  0.5915  0.1300  0.6109
    7MOL     C6 3498   4.734   2.810   3.859 -0.0602 -0.5324 -0.0585
    7MOL     C7 3499   4.765   2.666   3.811 -0.1437 -0.7361 -0.4552
    7MOL     C8 3500   4.715   2.553   3.900  0.4104  0.2657 -0.7768
    7MOL     O9 3501   4.734   2.431   3.838 -0.0034  0.3527 -0.1834
    7MOL    C10 3502   4.705   2.323   3.929 -0.5455  0.5353  0.9629
    7MOL    O11 3503   4.808   2.296   4.018 -0.0632 -0.0845 -0.1052
    7MOL    C12 3504   4.682   2.203   3.823  0.3744 -0.2568 -0.2533
    7MOL    O13 3505   4.569   2.234   3.744  1.1003  0.4581  0.0214
    7MOL    H14 3506   4.382   2.905   4.237 -0.4388  0.8351 -0.5917
    7MOL    H15 3507   4.328   2.749   4.178  1.8099  0.9033  2.4421
    7MOL    H16 3508   4.353   2.808   3.948  0.7638 -2.7805  0.2929
    7MOL    H17 3509   4.451   3.031   3.908  0.1103 -0.5538 -0.4467
    7MOL    H18 3510   4.614   2.924   4.052  0.5418 -0.5232  0.7005
    7MOL    H19 3511   4.583   2.745   4.063  0.1057 -1.3218 -1.6743
    7MOL    H20 3512   4.785   2.824   3.955 -1.1878 -2.2992  0.8346
    7MOL    H21 3513   4.786   2.881   3.794  1.9818 -1.1833  0.7953
    7MOL    H22 3514   4.873   2.662   3.802  0.0690 -0.8179  1.8602
    7MOL    H23 3515   4.716   2.653   3.714  2.0622 -1.7339 -1.4653
    7MOL    H24 3516   4.774   2.558   3.991 -0.7698 -1.2181  0.0873
    7MOL    H25 3517   4.608   2.557   3.918  0.1141 -1.5055 -2.0032
    7MOL    H26 3518   4.613   2.338   3.986 -0.1105  1.5275  1.4257
    7MOL    H27 3519   4.891   2.304   3.972 -0.0613 -0.2169 -0.1229
    7MOL    H28 3520   4.780   2.184   3.779 -0.1399 -0.7750 -1.1908
    7MOL    H29 3521   4.651   2.116   3.880  0.8335 -0.2788 -0.0336
    7MOL    H30 3522   4.230   2.892   4.142  0.6795  2.4427 -1.9440
    7MOL    C31 3523   4.580   2.215   3.605  0.3062 -0.1066 -0.6806
    7MOL    C32 3524   4.621   2.345   3.532  0.0343 -0.2333  0.0723
    7MOL    O33 3525   4.745   2.382   3.579  0.1718 -0.1273  0.0797
    7MOL    C34 3526   4.524   2.458   3.581  0.2583 -0.6651  0.1600
    7MOL    O35 3527   4.563   2.581   3.520  0.1742  0.0522 -0.1229
    7MOL    C36 3528   4.473   2.691   3.545 -0.1888 -0.3459  0.1474
    7MOL    C37 3529   4.516   2.830   3.491 -0.3215  0.3637 -0.3336
    7MOL    C38 3530   4.446   2.941   3.562  0.3240 -0.0038  0.2568
    7MOL    O39 3531   4.511   3.070   3.564 -0.2774 -0.3430  0.3962
    7MOL    C40 3532   4.494   3.160   3.666  0.1694  0.1826 -0.0931
    7MOL    O41 3533   4.566   3.130   3.788 -0.1396  0.5898  0.2126
    7MOL    C42 3534   4.336   3.175   3.710 -0.0525 -0.3731 -0.0698
    7MOL    O43 3535   4.270   3.261   3.618 -0.3038 -0.4885  0.1929
    7MOL    H44 3536   4.651   2.132   3.600  1.8752  1.2174 -0.8970
    7MOL    H45 3537   4.483   2.182   3.568  0.1159  0.5073 -0.7317
    7MOL    H46 3538   4.614   2.330   3.424 -0.0951 -2.4613  0.3696
    7MOL    H47 3539   4.735   2.395   3.672  0.3315 -2.5316  0.4665
    7MOL    H48 3540   4.422   2.443   3.546  1.0826  1.3889 -3.3629
    7MOL    H49 3541   4.528   2.471   3.689 -0.8742  0.9374  0.0275
    7MOL    H50 3542   4.473   2.696   3.654  1.1159  0.0872  0.1382
    7MOL    H51 3543   4.382   2.659   3.495 -0.7031  1.8404 -0.3355
    7MOL    H52 3544   4.502   2.832   3.383  1.2307 -1.7674 -0.6160
    7MOL    H53 3545   4.622   2.842   3.516 -0.3173 -1.5296  0.6838
    7MOL    H54 3546   4.346   2.951   3.521  0.8335  1.6602 -0.6276
    7MOL    H55 3547   4.436   2.918   3.668 -0.6950  0.1465  0.1920
    7MOL    H56 3548   4.528   3.260   3.639  0.3558  0.0446 -0.3779
    7MOL    H57 3549   4.657   3.113   3.765 -0.5263 -2.5757  0.7082
    7MOL    H58 3550   4.288   3.077   3.704  0.1286 -0.5186  0.8362
    7MOL    H59 3551   4.332   3.208   3.813  1.6921 -2.9424  0.8818
    7MOL    C60 3552   4.135   3.277   3.656 -0.2290 -0.3763  0.4749
    7MOL    C61 3553   4.072   3.387   3.567  0.8337  0.4242 -0.7765
    7MOL    O62 3554   3.950   3.428   3.639 -0.2547 -0.3279  0.0197
    7MOL    C63 3555   4.024   3.348   3.419 -0.1574 -0.1361  0.2436
    7MOL    O64 3556   3.994   3.456   3.333  0.0073 -0.3306 -0.1063
    7MOL    C65 3557   3.948   3.414   3.200 -0.1513 -0.0309  0.2581
    7MOL    C66 3558   3.969   3.527   3.098  0.6190  0.3197  0.4956
    7MOL    C67 3559   3.953   3.486   2.954  0.2728  0.0450 -0.1448
    7MOL    O68 3560   4.054   3.393   2.925 -0.2204  0.0953  0.7616
    7MOL    C69 3561   4.050   3.306   2.824 -0.1643  0.8293 -0.0056
    7MOL    O70 3562   4.088   3.380   2.713 -0.0142 -0.0519  0.1353
    7MOL    C71 3563   4.149   3.201   2.863  0.8282  0.0792 -0.2150
    7MOL    O72 3564   4.086   3.116   2.959 -0.5475  0.0782 -0.0312
    7MOL    H73 3565   4.135   3.306   3.761  0.3234  2.6328 -0.3072
    7MOL    H74 3566   4.077   3.185   3.648 -0.0222 -0.5578  1.0276
    7MOL    H75 3567   4.138   3.473   3.557 -1.0829  2.1031  0.5221
    7MOL    H76 3568   3.930   3.514   3.606  3.8090  0.4440 -0.7482
    7MOL    H77 3569   4.098   3.297   3.357 -1.4817 -1.9688  0.1237
    7MOL    H78 3570   3.939   3.279   3.414 -0.6293  0.5549 -1.8693
    7MOL    H79 3571   3.840   3.400   3.186 -0.1332 -0.6246  0.6879
    7MOL    H80 3572   3.997   3.326   3.158 -1.1006  0.7263 -2.5713
    7MOL    H81 3573   4.072   3.560   3.107  1.8729 -3.6122  1.3315
    7MOL    H82 3574   3.902   3.612   3.116 -1.1152 -1.2052  1.4184
    7MOL    H83 3575   3.951   3.569   2.883  0.3590  1.0182  0.9697
    7MOL    H84 3576   3.855   3.438   2.954 -0.3477  1.2737 -2.0368
    7MOL    H85 3577   3.953   3.258   2.808  0.6512 -0.7747 -0.2430
    7MOL    H86 3578   4.067   3.332   2.634  0.9374  0.6342 -0.5471
    7MOL    H87 3579   4.170   3.153   2.767  0.4293 -0.6502  0.0541
    7MOL    H88 3580   4.234   3.251   2.908  0.4516  1.4996 -1.0479
    7MOL    C89 3581   4.183   3.050   3.039 -0.1335 -0.2629  0.5260
    7MOL    C90 3582   4.102   3.009   3.169 -0.5417 -0.7245 -0.1330
    7MOL    O91 3583   3.984   2.947   3.109  0.0549 -0.2296 -0.1120
    7MOL    C92 3584   4.195   2.906   3.238  0.0007 -0.0349 -0.1189
    7MOL    O93 3585   4.155   2.890   3.377 -0.1228 -0.0033  0.4312
    7MOL    C94 3586   4.050   2.802   3.390  0.5236  0.3613 -0.2313
    7MOL    C95 3587   4.044   2.781   3.542 -0.0143 -0.5236  0.5190
    7MOL    C96 3588   3.938   2.681   3.580 -0.5493  0.5940 -0.1376
    7MOL    O97 3589   3.956   2.553   3.518  0.1128 -0.8277 -0.2807
    7MOL    C98 3590   3.867   2.457   3.557  0.4185 -0.1118 -0.0171
    7MOL    O99 3591   3.731   2.489   3.537 -0.1279 -0.1543 -0.0890
    7MOL   C100 3592   3.886   2.321   3.485  0.4768  0.5891  0.2518
    7MOL   O101 3593   4.001   2.246   3.524  0.0722  0.0885  0.0972
    7MOL   H102 3594   4.255   3.116   3.087  0.2697 -0.8375  0.7104
    7MOL   H103 3595   4.236   2.969   2.989  0.2705  0.1160  0.3320
    7MOL   H104 3596   4.083   3.102   3.224 -1.5187 -0.5178 -0.8078
    7MOL   H105 3597   3.985   2.976   3.019  1.2349  1.6633  0.4724
    7MOL   H106 3598   4.197   2.810   3.187  0.5219  0.6469 -1.3923
    7MOL   H107 3599   4.298   2.944   3.239  0.2383 -0.6481  1.5162
    7MOL   H108 3600   4.073   2.715   3.329  3.4720 -0.7383  2.3296
    7MOL   H109 3601   3.955   2.838   3.349 -0.9367 -0.6466  2.1821
    7MOL   H110 3602   4.021   2.867   3.603 -3.5309 -0.0759 -1.3320
    7MOL   H111 3603   4.143   2.743   3.568  0.7607  0.3456 -1.0468
    7MOL   H112 3604   3.941   2.670   3.688 -3.0191 -3.1767 -0.3515
    7MOL   H113 3605   3.837   2.717   3.563 -1.0225 -1.1456 -1.2326
    7MOL   H114 3606   3.889   2.436   3.662  0.2203 -0.4628 -0.0478
    7MOL   H115 3607   3.728   2.520   3.448  0.5919  1.5657  0.4607
    7MOL   H116 3608   3.803   2.260   3.520  0.9823 -0.1289  0.2014
    7MOL   H117 3609   3.882   2.323   3.376  0.7287  0.6214  0.2418
    7MOL   C118 3610   3.967   2.108   3.543 -0.3113  0.3024  0.5841
    7MOL   C119 3611   4.076   2.025   3.623 -1.0871 -0.2662 -0.8796
    7MOL   O120 3612   4.040   1.891   3.640 -0.0621  0.2531  0.3606
    7MOL   C121 3613   4.094   2.071   3.769  0.1085  0.6176 -0.1667
    7MOL   O122 3614   4.194   2.162   3.783  0.4932 -0.2213 -0.2581
    7MOL   C123 3615   4.152   2.295   3.783  0.3948  0.0015 -0.1414
    7MOL   C124 3616   4.239   2.398   3.862 -0.2684 -0.1842 -0.2079
    7MOL   C125 3617   4.206   2.545   3.835 -1.2442  0.4665  0.7029
    7MOL   O126 3618   4.077   2.572   3.882  0.0841  0.3463  0.2204
    7MOL   C127 3619   4.074   2.666   3.985 -0.0886 -0.1457  0.5960
    7MOL   O128 3620   4.110   2.609   4.108  0.4246  0.9173 -0.4210
    7MOL   C129 3621   3.937   2.739   3.988 -0.6621  0.0214  0.4614
    7MOL   O130 3622   3.841   2.643   4.020  0.3215  0.0239  0.0254
    7MOL   H131 3623   3.878   2.102   3.605  0.3466 -0.7289  1.4474
    7MOL   H132 3624   3.946   2.065   3.445 -0.4406 -0.9943  1.1691
    7MOL   H133 3625   4.174   2.032   3.576 -0.6584 -1.2667 -0.1362
    7MOL   H134 3626   4.115   1.835   3.651  0.2098  0.5551  0.0202
    7MOL   H135 3627   3.998   2.100   3.811  0.3773  0.6295  0.4400
    7MOL   H136 3628   4.122   1.981   3.823  1.1793  1.1404  0.1630
    7MOL   H137 3629   4.051   2.303   3.823  1.1226  1.4343  1.5011
    7MOL   H138 3630   4.160   2.326   3.679 -0.0480  4.9457  1.1656
    7MOL   H139 3631   4.346   2.394   3.840 -0.2253 -0.1626 -0.0035
    7MOL   H140 3632   4.236   2.374   3.968  0.1351  2.0430  0.3387
    7MOL   H141 3633   4.285   2.609   3.875  1.1661  0.1081 -3.1957
    7MOL   H142 3634   4.210   2.567   3.728 -1.1351 -1.4264  0.3118
    7MOL   H143 3635   4.149   2.744   3.974  1.3380 -1.5553  0.2142
    7MOL   H144 3636   4.032   2.581   4.154  1.1845 -3.2998 -1.5449
    7MOL   H145 3637   3.944   2.822   4.058 -3.9996 -0.5800  1.5874
    7MOL   H146 3638   3.926   2.770   3.884 -0.4074  1.4232  0.8447
    7MOL   C147 3639   3.706   2.685   4.005  0.7424 -0.1189 -0.0401
    7MOL   C148 3640   3.625   2.555   4.012  0.2616 -0.1983 -0.5442
    7MOL   O149 3641   3.603   2.517   4.148  0.2343 -0.2743  0.0264
    7MOL   C150 3642   3.689   2.440   3.931 -0.6427  0.0140 -0.1955
    7MOL   O151 3643   3.614   2.323   3.954  0.7025 -0.2172  0.0455
    7MOL   C152 3644   3.654   2.210   3.879  0.3420  0.3307 -0.5844
    7MOL   C153 3645   3.557   2.092   3.895 -0.1908 -0.0487  0.1207
    7MOL   C154 3646   3.435   2.125   3.816  0.2170  0.3741  0.6659
    7MOL   O155 3647   3.331   2.033   3.845 -0.0722 -0.7546 -0.2197
    7MOL   C156 3648   3.215   2.052   3.769 -0.0875  0.2181  0.0930
    7MOL   O157 3649   3.143   2.164   3.813  0.0215 -0.0779  0.5753
    7MOL   C158 3650   3.119   1.932   3.785  0.5140  0.7085  0.2424
    7MOL   O159 3651   3.150   1.828   3.692  0.0142  0.0424 -0.0680
    7MOL   H160 3652   3.687   2.717   3.902  1.9687  0.1777 -0.1864
    7MOL   H161 3653   3.674   2.771   4.065 -0.1270  0.1173 -0.8336
    7MOL   H162 3654   3.522   2.551   3.977 -0.5904  1.3582  1.6515
    7MOL   H163 3655   3.588   2.424   4.141  0.0613 -0.0971 -2.4950
    7MOL   H164 3656   3.709   2.467   3.827  0.6914  1.4674  0.4226
    7MOL   H165 3657   3.785   2.413   3.975 -0.3889  0.9979 -0.1389
    7MOL   H166 3658   3.746   2.171   3.922 -0.4907 -0.3315  0.5941
    7MOL   H167 3659   3.672   2.224   3.772  1.6196  1.9437 -0.1827
    7MOL   H168 3660   3.524   2.080   3.998 -1.4371 -0.9229 -0.3772
    7MOL   H169 3661   3.596   1.999   3.853 -2.0222 -1.4119  1.3896
    7MOL   H170 3662   3.404   2.227   3.838 -0.0307  0.4530 -0.0415
    7MOL   H171 3663   3.461   2.113   3.711 -1.3667 -3.0360  0.5764
    7MOL   H172 3664   3.238   2.069   3.664 -0.9833  0.4446 -0.0737
    7MOL   H173 3665   3.099   2.140   3.893 -1.5680 -0.2997 -0.3311
    7MOL   H174 3666   3.125   1.896   3.888 -0.6637 -0.3621 -0.0515
    7MOL   H175 3667   3.017   1.968   3.775  0.9040  2.1227  1.2001
    7MOL   C176 3668   3.083   1.705   3.717  0.6885 -0.4230  0.3555
    7MOL   C177 3669   3.120   1.599   3.615  0.0455  0.6688 -0.2467
    7MOL   O178 3670   3.036   1.487   3.618 -0.2183  0.1579  0.9767
    7MOL   C179 3671   3.266   1.562   3.624  0.1011  0.4647  0.0188
    7MOL   O180 3672   3.312   1.484   3.508 -0.0463 -0.2959 -0.2487
    7MOL   C181 3673   3.451   1.464   3.501 -0.3748  0.1693 -0.2749
    7MOL   C182 3674   3.471   1.377   3.374  0.5355  0.1273 -0.6520
    7MOL   C183 3675   3.613   1.375   3.319 -0.0669  0.2713 -0.1269
    7MOL   O184 3676   3.620   1.315   3.188  0.2770 -0.5151 -0.3542
    7MOL   C185 3677   3.746   1.319   3.126  0.2685 -0.1017  0.2065
    7MOL   O186 3678   3.784   1.451   3.090  0.0513 -0.2272 -0.5404
    7MOL   C187 3679   3.748   1.244   2.999  0.2393  0.1990  0.2403
    7MOL   O188 3680   3.659   1.294   2.898  0.2592 -0.8928 -0.3431
    7MOL   H189 3681   2.974   1.719   3.720  0.8015  0.2925  1.2378
    7MOL   H190 3682   3.125   1.666   3.809 -0.9710  2.0204  2.2354
    7MOL   H191 3683   3.103   1.644   3.517 -1.5717  1.4131  0.3436
    7MOL   H192 3684   3.078   1.423   3.563  0.1432  0.5065  0.8458
    7MOL   H193 3685   3.332   1.647   3.640 -0.3622  0.3678  2.7795
    7MOL   H194 3686   3.298   1.500   3.708  0.6296 -0.2462 -0.6968
    7MOL   H195 3687   3.510   1.437   3.588 -1.1163  1.3532  0.6163
    7MOL   H196 3688   3.492   1.562   3.478  1.5796 -0.5033  0.2555
    7MOL   H197 3689   3.408   1.415   3.293 -0.6469 -2.3407 -0.9316
    7MOL   H198 3690   3.433   1.276   3.387  2.3036 -0.4671  0.0036
    7MOL   H199 3691   3.641   1.480   3.311  1.1103 -0.0155  0.1363
    7MOL   H200 3692   3.689   1.341   3.389 -0.2395 -1.3053 -0.6830
    7MOL   H201 3693   3.816   1.272   3.195 -0.1906  0.5632  1.1346
    7MOL   H202 3694   3.715   1.474   3.030  1.8046  1.6565 -1.8971
    7MOL   H203 3695   3.848   1.235   2.958  0.4571 -2.2537  1.2236
    7MOL   H204 3696   3.725   1.139   3.016 -0.4048  0.5032  1.2770
    7MOL   C205 3697   3.661   1.216   2.779  0.5053 -0.3910  0.3582
    7MOL   C206 3698   3.538   1.257   2.686 -0.2428 -0.2073 -1.0183
    7MOL   O207 3699   3.548   1.193   2.559  0.3517 -0.7487 -0.0743
    7MOL   C208 3700   3.402   1.224   2.741  1.3154 -0.2715  0.1734
    7MOL   O209 3701   3.306   1.299   2.669 -0.2017 -0.5549 -0.2957
    7MOL   C210 3702   3.180   1.302   2.733 -0.0657  0.3453  0.0257
    7MOL   C211 3703   3.074   1.392   2.657  0.0808 -0.4292 -0.6282
    7MOL   C212 3704   2.945   1.406   2.731 -0.7017 -0.2610 -0.3600
    7MOL   O213 3705   2.844   1.325   2.677  0.5488 -0.6216  0.2836
    7MOL   C214 3706   2.735   1.293   2.753  0.1090 -0.2628  0.2239
    7MOL   O215 3707   2.763   1.219   2.863  0.1120 -0.6303 -0.1168
    7MOL   C216 3708   2.632   1.227   2.663 -1.1626  0.0094  0.2904
    7MOL   O217 3709   2.581   1.323   2.569 -0.5355 -0.1071 -0.7720
    7MOL   H218 3710   3.658   1.108   2.793 -3.3313 -0.2763  1.1196
    7MOL   H219 3711   3.753   1.229   2.722 -0.7504 -1.2770 -1.9296
    7MOL   H220 3712   3.555   1.364   2.679  0.9398 -0.2284  1.0922
    7MOL   H221 3713   3.498   1.246   2.498 -2.4391 -4.3329 -1.1199
    7MOL   H222 3714   3.380   1.118   2.724  1.1895 -0.6173  2.3410
    7MOL   H223 3715   3.398   1.234   2.849 -2.0935 -2.1860  0.2931
    7MOL   H224 3716   3.179   1.337   2.836 -1.3930 -0.9656  0.4823
    7MOL   H225 3717   3.141   1.200   2.743 -0.9620  0.8035  1.3223
    7MOL   H226 3718   3.050   1.354   2.558 -0.0181  0.3409 -0.8985
    7MOL   H227 3719   3.118   1.490   2.638  0.7440 -0.0935  2.3489
    7MOL   H228 3720   2.957   1.389   2.838  2.3631  2.8308 -0.0979
    7MOL   H229 3721   2.908   1.509   2.728  0.9888  0.3786 -0.0905
    7MOL   H230 3722   2.695   1.384   2.795  1.4416  1.0417 -1.2503
    7MOL   H231 3723   2.685   1.213   2.916 -0.1933  1.0060 -0.3821
    7MOL   H232 3724   2.679   1.146   2.607 -0.2278 -0.2000  1.3677
    7MOL   H233 3725   2.549   1.190   2.723 -2.7908  1.5063 -0.9799
    7MOL   C234 3726   2.584   1.274   2.440 -0.3001  0.3696  0.2125
    7MOL   C235 3727   2.697   1.346   2.363  0.5096  0.0635  0.1325
    7MOL   O236 3728   2.666   1.476   2.315 -0.3253 -0.5527 -0.3387
    7MOL   C237 3729   2.739   1.280   2.225 -0.0059  0.1296  0.2666
    7MOL   O238 3730   2.624   1.267   2.142  0.5263 -0.1562  0.7036
    7MOL   C239 3731   2.650   1.208   2.019  0.0359  0.7770  0.2890
    7MOL   C240 3732   2.508   1.173   1.949  0.0344 -0.0779 -0.7695
    7MOL   C241 3733   2.440   1.066   2.023  0.3692 -0.1333 -0.2125
    7MOL   O242 3734   2.320   1.042   1.946  0.4140 -0.3443 -0.7808
    7MOL   C243 3735   2.258   0.917   1.955  0.6890 -0.1797 -0.8432
    7MOL   O244 3736   2.346   0.816   1.909 -0.0201 -0.2471  0.1291
    7MOL   C245 3737   2.138   0.915   1.857 -0.6831  0.4959  0.4011
    7MOL   O246 3738   2.033   1.007   1.905 -0.2594  0.7951 -0.2906
    7MOL   H247 3739   2.592   1.166   2.430 -2.5785  0.2963 -1.3428
    7MOL   H248 3740   2.498   1.294   2.376  1.2346  1.4260 -1.5682
    7MOL   H249 3741   2.787   1.357   2.423 -0.9106  0.0417  2.2999
    7MOL   H250 3742   2.581   1.477   2.274  0.4371 -1.0358 -2.0013
    7MOL   H251 3743   2.821   1.335   2.179  0.1382  0.1157  0.5077
    7MOL   H252 3744   2.776   1.180   2.248  0.7275  0.1952 -0.5946
    7MOL   H253 3745   2.705   1.116   2.039  0.1397  0.7249 -0.2444
    7MOL   H254 3746   2.713   1.280   1.967 -0.3067  0.2533 -0.8619
    7MOL   H255 3747   2.534   1.128   1.853  5.5924  1.1377 -0.0001
    7MOL   H256 3748   2.448   1.262   1.932 -0.6986 -0.3409  0.4144
    7MOL   H257 3749   2.487   0.969   2.038 -2.8243 -1.7950 -0.5765
    7MOL   H258 3750   2.423   1.094   2.127  0.0977 -0.9744 -0.0315
    7MOL   H259 3751   2.229   0.883   2.055 -1.6692 -0.1267 -1.4719
    7MOL   H260 3752   2.332   0.795   1.818  0.8338 -0.9295  0.1480
    7MOL   H261 3753   2.166   0.965   1.764 -2.5825  0.1695 -0.3845
    7MOL   H262 3754   2.109   0.810   1.848 -1.3607  0.6612  0.6065
    7MOL   C263 3755   1.920   0.999   1.816  0.3866  0.5000  0.4049
    7MOL   C264 3756   1.828   1.108   1.871 -0.3383  0.4858  0.3464
    7MOL   O265 3757   1.884   1.231   1.838  0.1212  0.5121 -0.1699
    7MOL   C266 3758   1.689   1.115   1.811 -0.2908  0.0374 -0.2903
    7MOL   O267 3759   1.614   0.991   1.839  0.2774  0.3455 -0.2429
    7MOL   C268 3760   1.534   0.934   1.729 -0.4013  0.8415  0.1303
    7MOL   C269 3761   1.628   0.835   1.655 -0.2878  0.6078 -0.0598
    7MOL   C270 3762   1.656   0.710   1.732  0.0868  0.2109 -0.3824
    7MOL   O271 3763   1.777   0.662   1.689 -0.0484 -0.2524 -0.1621
    7MOL   C272 3764   1.801   0.528   1.725 -0.1621  0.3836  0.0564
    7MOL   O273 3765   1.745   0.436   1.638 -0.2518 -0.4899 -0.0018
    7MOL   C274 3766   1.958   0.511   1.724 -0.4427  0.8238 -0.5457
    7MOL   O275 3767   2.023   0.598   1.628 -0.6004  0.2266 -0.3413
    7MOL   H276 3768   1.872   0.902   1.822  1.1625 -0.1435 -2.7740
    7MOL   H277 3769   1.947   1.016   1.712 -0.2379  0.1194  0.1792
    7MOL   H278 3770   1.804   1.098   1.976 -4.1308 -0.1510 -0.4929
    7MOL   H279 3771   1.963   1.210   1.790 -0.1386 -0.3787 -0.2241
    7MOL   H280 3772   1.634   1.199   1.855  3.0532  1.9005  0.4646
    7MOL   H281 3773   1.703   1.127   1.703  0.2048  1.5687 -0.0705
    7MOL   H282 3774   1.500   1.017   1.667 -1.0584  0.5323  0.0645
    7MOL   H283 3775   1.451   0.879   1.775 -0.5410  1.7937  1.0505
    7MOL   H284 3776   1.717   0.889   1.623 -1.3483  0.7289 -2.9834
    7MOL   H285 3777   1.575   0.815   1.562 -0.7954  0.6059  0.2309
    7MOL   H286 3778   1.660   0.737   1.837  1.0056  2.6034 -0.9820
    7MOL   H287 3779   1.573   0.640   1.721  0.5487 -0.6541  1.5190
    7MOL   H288 3780   1.764   0.504   1.825  0.7672 -1.1452  0.0535
    7MOL   H289 3781   1.802   0.442   1.563  1.1903  1.2421  1.1657
    7MOL   H290 3782   1.987   0.547   1.823  3.3164  0.2484 -1.3590
    7MOL   H291 3783   1.984   0.405   1.728  1.4999  1.3276  1.2443
    7MOL   C292 3784   2.160   0.578   1.634  0.1644 -0.5654 -0.0119
    7MOL   C293 3785   2.224   0.701   1.567  0.1700 -0.1079  0.1534
    7MOL   O294 3786   2.327   0.757   1.644 -0.1947 -0.6586 -0.1036
    7MOL   C295 3787   2.287   0.662   1.428 -0.3517  0.5425 -0.7665
    7MOL   O296 3788   2.286   0.778   1.350  0.7420  0.2336 -0.1127
    7MOL   C297 3789   2.341   0.754   1.215 -1.3330 -0.6795  0.7293
    7MOL   C298 3790   2.357   0.895   1.140 -0.0797 -0.1908 -0.7122
    7MOL   C299 3791   2.449   0.883   1.018  0.7050  0.1362  0.0464
    7MOL   O300 3792   2.484   1.010   0.975 -0.0177 -0.1752  0.0533
    7MOL   C301 3793   2.571   1.008   0.863  0.2630 -0.0080  0.0625
    7MOL   O302 3794   2.504   0.987   0.741 -0.3003  0.2953 -0.1336
    7MOL   C303 3795   2.641   1.149   0.864 -0.2959 -0.1888  0.0521
    7MOL   O304 3796   2.754   1.128   0.782 -0.0241  0.0827  0.0430
    7MOL   H305 3797   2.188   0.580   1.740 -1.0688  3.4303  0.3018
    7MOL   H306 3798   2.185   0.486   1.582  0.1023 -0.5477 -0.0737
    7MOL   H307 3799   2.145   0.776   1.556  0.1841 -0.2255 -0.7296
    7MOL   H308 3800   2.356   0.830   1.591  2.5332 -1.3462  0.3479
    7MOL   H309 3801   2.390   0.642   1.460  0.2018 -1.4529 -3.5617
    7MOL   H310 3802   2.238   0.575   1.383  0.8632 -0.4633 -0.1965
    7MOL   H311 3803   2.294   0.687   1.144 -1.7134 -0.6464  0.9467
    7MOL   H312 3804   2.440   0.713   1.235  1.0289  2.7585 -3.0892
    7MOL   H313 3805   2.419   0.959   1.203 -0.5964 -0.5509  0.1793
    7MOL   H314 3806   2.265   0.948   1.112 -1.3899 -1.5610  0.8672
    7MOL   H315 3807   2.539   0.834   1.058  0.4225 -0.1400  0.3493
    7MOL   H316 3808   2.416   0.812   0.942  1.9212 -0.7103  0.2936
    7MOL   H317 3809   2.642   0.929   0.885  0.7046 -0.6028 -3.2343
    7MOL   H318 3810   2.463   1.071   0.725 -0.9644  0.1483  0.7782
    7MOL   H319 3811   2.678   1.168   0.964 -4.6626  1.0547  1.5206
    7MOL   H320 3812   2.572   1.230   0.843 -0.1209 -0.1369 -0.3302
    7MOL   C321 3813   2.788   1.249   0.710 -0.4061  0.0970 -0.1830
    7MOL   C322 3814   2.929   1.219   0.645 -0.1255  0.6058 -0.3668
    7MOL   O323 3815   3.021   1.193   0.749 -0.6181 -0.1681 -0.0912
    7MOL   C324 3816   2.918   1.098   0.556  0.1116 -0.5869 -0.1882
    7MOL   O325 3817   2.840   1.109   0.436 -0.2472  0.3616 -0.6550
    7MOL   C326 3818   2.717   1.050   0.442 -0.6371  0.2630 -0.4281
    7MOL   C327 3819   2.637   1.111   0.321 -0.7154 -0.7569  0.2084
    7MOL   C328 3820   2.494   1.073   0.299 -0.8340  0.4003 -0.6339
    7MOL   O329 3821   2.438   1.153   0.195 -0.0460  0.0011  0.1995
    7MOL   C330 3822   2.308   1.115   0.149 -0.0804 -0.0047 -0.3680
    7MOL   O331 3823   2.195   1.160   0.227 -0.3204 -0.2842  0.0751
    7MOL   C332 3824   2.293   1.167   7.694  0.0994  0.5899 -0.4761
    7MOL   O333 3825   2.297   1.312   7.685  0.2423 -0.3127 -0.0051
    7MOL   H334 3826   2.791   1.337   0.775  0.7302 -1.4334  1.9201
    7MOL   H335 3827   2.710   1.276   0.640  1.2234  1.2969 -1.5598
    7MOL   H336 3828   2.948   1.303   0.578  1.6611 -1.3807 -2.4277
    7MOL   H337 3829   2.977   1.119   0.788  0.3526  0.2138  1.8129
    7MOL   H338 3830   2.868   1.021   0.615 -3.1624  2.5342  1.2537
    7MOL   H339 3831   3.018   1.073   0.521 -0.8556 -0.7713 -2.9420
    7MOL   H340 3832   2.663   1.086   0.529 -0.8916 -1.1042 -0.0090
    7MOL   H341 3833   2.719   0.941   0.448 -0.3061  0.2909 -0.0815
    7MOL   H342 3834   2.646   1.219   0.311  1.1634 -1.0129 -1.2848
    7MOL   H343 3835   2.684   1.085   0.226 -2.7423 -0.5180 -0.8969
    7MOL   H344 3836   2.484   0.967   0.273 -2.0772  0.6265 -1.1018
    7MOL   H345 3837   2.439   1.079   0.393 -0.0837  0.1163 -0.1692
    7MOL   H346 3838   2.309   1.007   0.138  0.2933 -0.0067 -0.2955
    7MOL   H347 3839   2.209   1.253   0.237  1.2753 -0.0792 -3.3060
    7MOL   H348 3840   2.368   1.116   7.633 -0.2800  0.8798 -1.1849
    7MOL   H349 3841   2.204   1.122   7.650  2.2760 -3.7187 -0.7763
    7MOL   C350 3842   2.251   1.381   7.571 -0.1909 -0.1771  0.2673
    7MOL   C351 3843   2.276   1.532   7.593  0.7238 -0.6995  0.1059
    7MOL   O352 3844   2.409   1.551   7.585 -0.2121 -0.0556  0.2268
    7MOL   C353 3845   2.197   1.612   7.485  0.3513  0.2013  0.3308
    7MOL   O354 3846   2.209   1.750   7.516  0.5277 -0.8373 -0.1693
    7MOL   C355 3847   2.138   1.831   7.426 -0.0589  0.1542 -0.2010
    7MOL   C356 3848   2.168   1.978   7.455 -1.1079  0.0891  0.5879
    7MOL   C357 3849   2.097   2.076   7.355  0.2066  0.2581 -0.5972
    7MOL   O358 3850   2.148   2.082   7.228  0.3357  0.5860  0.3210
    7MOL   C359 3851   2.115   2.182   7.137 -0.0374  0.4060 -0.2647
    7MOL   O360 3852   2.167   2.309   7.166  0.4400  0.3425 -0.7965
    7MOL   C361 3853   2.159   2.147   6.991 -0.3155 -0.7667 -0.2279
    7MOL   O362 3854   2.064   2.182   6.897  0.6990 -0.4265 -0.3982
    7MOL   H363 3855   2.144   1.367   7.554 -0.1205  0.1065 -0.4342
    7MOL   H364 3856   2.301   1.347   7.480 -1.6683  1.2480 -1.0851
    7MOL   H365 3857   2.251   1.568   7.692 -0.0095 -0.3166 -0.2149
    7MOL   H366 3858   2.455   1.520   7.661 -0.3939 -0.4521  0.1735
    7MOL   H367 3859   2.232   1.583   7.386 -1.3565  0.2452 -0.2849
    7MOL   H368 3860   2.097   1.572   7.496 -0.0191  1.8189  3.3231
    7MOL   H369 3861   2.033   1.813   7.447  0.1450  1.6619  2.4048
    7MOL   H370 3862   2.171   1.811   7.324 -0.8420 -2.3263  0.0116
    7MOL   H371 3863   2.277   1.985   7.446 -1.1221 -1.7137 -1.5199
    7MOL   H372 3864   2.146   1.995   7.560  0.8876 -1.0340  1.2336
    7MOL   H373 3865   1.989   2.067   7.364  0.4988 -1.8552  1.2514
    7MOL   H374 3866   2.121   2.173   7.400  0.5709  0.7507 -1.8463
    7MOL   H375 3867   2.007   2.185   7.146  0.1720  0.2979  2.8052
    7MOL   H376 3868   2.256   2.313   7.134  0.6785 -0.5980 -0.2855
    7MOL   H377 3869   2.254   2.193   6.964 -1.5685  1.5798 -0.7622
    7MOL   H378 3870   2.172   2.039   6.987 -3.6710 -1.3463  2.4309
    7MOL   C379 3871   2.109   2.178   6.761 -0.3570  0.5453  0.4850
    7MOL   C380 3872   1.984   2.202   6.670 -0.0826  0.3325 -0.9742
    7MOL   O381 3873   1.886   2.119   6.728 -0.0189 -0.3214  0.0690
    7MOL   C382 3874   1.937   2.342   6.666 -1.2291  0.2823 -0.0370
    7MOL   O383 3875   2.017   2.406   6.572  0.2565 -0.4378 -0.3896
    7MOL   C384 3876   1.970   2.538   6.542  0.0457 -0.5422 -0.2072
    7MOL   C385 3877   2.040   2.603   6.422 -0.0765  0.0460 -0.0817
    7MOL   C386 3878   2.029   2.512   6.299 -0.5184  0.5969  0.8035
    7MOL   O387 3879   2.111   2.566   6.191  0.5302 -0.0701 -0.6454
    7MOL   C388 3880   2.105   2.489   6.075 -0.1190 -0.8375 -0.1490
    7MOL   O389 3881   1.989   2.508   6.013 -0.1004  0.2118  0.7779
    7MOL   C390 3882   2.219   2.521   5.983 -0.2498 -0.2167  0.3507
    7MOL   O391 3883   2.337   2.440   6.025  0.4417  0.0892  0.1393
    7MOL   H392 3884   2.154   2.081   6.738 -2.8576 -0.6021  0.2935
    7MOL   H393 3885   2.187   2.253   6.749  0.4950 -0.4894 -0.5421
    7MOL   H394 3886   1.993   2.157   6.571 -0.1999 -3.1048  0.5089
    7MOL   H395 3887   1.910   2.121   6.819  1.2685 -0.0180 -0.2775
    7MOL   H396 3888   1.834   2.348   6.630 -1.1066  2.0392 -0.1063
    7MOL   H397 3889   1.952   2.387   6.764  1.0394 -0.7944  0.1472
    7MOL   H398 3890   1.985   2.609   6.623 -1.7014 -1.5582  1.0563
    7MOL   H399 3891   1.863   2.538   6.518 -0.3065  0.1197  1.3260
    7MOL   H400 3892   2.146   2.613   6.444 -0.0199 -1.1816  0.2522
    7MOL   H401 3893   1.993   2.700   6.408  0.4811  0.1673 -1.1238
    7MOL   H402 3894   2.057   2.409   6.317 -0.7654  0.2669 -0.6509
    7MOL   H403 3895   1.924   2.506   6.273 -0.4693  0.9693  0.5001
    7MOL   H404 3896   2.109   2.383   6.103 -0.4883 -0.6570  0.5967
    7MOL   H405 3897   1.994   2.591   5.968 -1.4423  0.0055  0.2211
    7MOL   H406 3898   2.188   2.490   5.883 -0.8138 -1.4185  0.8872
    7MOL   H407 3899   2.245   2.626   5.966 -1.0920 -0.1405 -0.5089
    7MOL   C408 3900   2.438   2.463   5.933  0.2058  0.1492  0.1932
    7MOL   C409 3901   2.557   2.371   5.980  1.3055 -0.3902 -0.0484
    7MOL   O410 3902   2.660   2.445   6.029 -0.3643  0.4374  0.3986
    7MOL   C411 3903   2.614   2.287   5.863  0.3431  0.4456  0.4121
    7MOL   O412 3904   2.509   2.197   5.824  0.4951 -0.1876 -0.5422
    7MOL   C413 3905   2.552   2.101   5.732  0.7312  0.2863 -0.4749
    7MOL   C414 3906   2.441   2.034   5.664 -0.3750  0.9072 -0.9902
    7MOL   C415 3907   2.488   1.936   5.561  0.0636  0.2052  0.5943
    7MOL   O416 3908   2.530   2.012   5.451 -0.1412 -0.2121  0.9197
    7MOL   C417 3909   2.577   1.947   5.343  0.4555 -0.0928  0.2722
    7MOL   O418 3910   2.699   1.880   5.369  0.0292  0.3340 -0.6622
    7MOL   C419 3911   2.603   2.046   5.228 -0.2262  0.4604  0.4571
    7MOL   O420 3912   2.554   1.994   5.109  0.0417 -0.1806 -0.2911
    7MOL   H421 3913   2.480   2.563   5.942  1.3584 -0.5028  2.5697
    7MOL   H422 3914   2.410   2.439   5.831  1.6176 -2.2711  0.3303
    7MOL   H423 3915   2.537   2.304   6.063 -0.3184  1.6456  1.2455
    7MOL   H424 3916   2.643   2.457   6.122  0.6147 -0.0280  0.6402
    7MOL   H425 3917   2.648   2.344   5.777  1.4279  0.7226  1.0211
    7MOL   H426 3918   2.703   2.234   5.895  0.2392  0.8164  1.3171
    7MOL   H427 3919   2.612   2.146   5.652  0.6090  0.1277 -0.6571
    7MOL   H428 3920   2.613   2.028   5.785  0.3959  0.6121  0.3720
    7MOL   H429 3921   2.370   2.107   5.624 -1.5798  1.2465  1.6672
    7MOL   H430 3922   2.372   1.991   5.737 -0.5456 -0.3239 -1.8636
    7MOL   H431 3923   2.573   1.878   5.597 -0.3709  0.6901  2.4920
    7MOL   H432 3924   2.405   1.873   5.530  0.8890 -0.5589 -0.0653
    7MOL   H433 3925   2.506   1.867   5.324  1.0609 -0.4592 -0.4728
    7MOL   H434 3926   2.725   1.835   5.290 -1.5655 -0.5276 -0.7122
    7MOL   H435 3927   2.546   2.135   5.257 -1.8429 -0.4220  0.0479
    7MOL   H436 3928   2.707   2.077   5.224 -0.8391  2.3974 -1.7129
    7MOL   C437 3929   2.584   2.084   5.005 -0.4832 -0.3356  0.2246
    7MOL   C438 3930   2.530   2.044   4.867 -0.8456 -0.4524  0.4642
    7MOL   O439 3931   2.638   1.973   4.807 -0.3199  1.2469 -0.5512
    7MOL   C440 3932   2.496   2.175   4.794  0.4548  0.0156  0.1003
    7MOL   O441 3933   2.390   2.248   4.853 -0.4098 -0.8906  0.3071
    7MOL   C442 3934   2.279   2.174   4.873 -0.4506 -0.1504  1.0408
    7MOL   C443 3935   2.164   2.273   4.888 -0.7537 -1.1358  0.2759
    7MOL   C444 3936   2.033   2.212   4.911  0.3379  0.2925 -0.7716
    7MOL   O445 3937   1.939   2.316   4.948 -0.2410 -0.0948  0.6504
    7MOL   C446 3938   1.812   2.302   4.887  0.1338 -0.0700 -0.6043
    7MOL   O447 3939   1.817   2.372   4.764  0.5916 -0.0769  0.1435
    7MOL   C448 3940   1.694   2.369   4.964 -0.0256 -0.3494 -0.3194
    7MOL   O449 3941   1.635   2.276   5.048 -0.0583  0.2552  0.2805
    7MOL   H450 3942   2.534   2.178   5.027 -1.5125 -0.5571 -1.1179
    7MOL   H451 3943   2.688   2.117   5.003 -0.6660  0.2323 -0.2228
    7MOL   H452 3944   2.455   1.966   4.875 -0.5444 -0.6615  1.2578
    7MOL   H453 3945   2.657   1.900   4.863 -2.0739  1.4347  0.3556
    7MOL   H454 3946   2.581   2.241   4.774  0.3879  0.3821  1.0055
    7MOL   H455 3947   2.478   2.144   4.691  2.3132 -4.0719  0.8676
    7MOL   H456 3948   2.293   2.118   4.965 -1.9751  0.7531  1.8416
    7MOL   H457 3949   2.263   2.097   4.797 -1.9887  2.7281 -1.6598
    7MOL   H458 3950   2.161   2.339   4.801  0.0541  1.2654  2.0186
    7MOL   H459 3951   2.189   2.338   4.972  1.2583 -0.0877 -1.0897
    7MOL   H460 3952   2.010   2.160   4.818 -1.8226  2.2134 -1.3843
    7MOL   H461 3953   2.049   2.143   4.993 -0.6266  0.9201 -0.0388
    7MOL   H462 3954   1.792   2.197   4.870 -1.1052 -0.3824  2.4389
    7MOL   H463 3955   1.862   2.320   4.700  3.5773 -0.8186  2.6978
    7MOL   H464 3956   1.738   2.453   5.017  2.4469 -1.2077 -0.9499
    7MOL   H465 3957   1.626   2.415   4.892  0.5914  2.4124  0.8018
    7MOL   C466 3958   1.514   2.320   5.103  0.0604  0.6980  1.1671
    7MOL   C467 3959   1.484   2.216   5.205  0.8940  0.3330  0.3312
    7MOL   O468 3960   1.463   2.086   5.158 -0.4830  0.4599  0.3586
    7MOL   C469 3961   1.582   2.214   5.323  0.2456  0.2069  0.8196
    7MOL   O470 3962   1.691   2.130   5.285 -0.1543 -0.2652  0.3645
    7MOL   C471 3963   1.776   2.084   5.388  0.1218  0.2227 -0.1428
    7MOL   C472 3964   1.894   2.016   5.316 -0.4297 -0.7442  0.4803
    7MOL   C473 3965   1.864   1.881   5.246 -0.3242  0.4937  0.2530
    7MOL   O474 3966   1.851   1.775   5.337  0.2662  0.3656  0.1318
    7MOL   C475 3967   1.731   1.707   5.308 -0.2008  0.8734  0.6905
    7MOL   O476 3968   1.614   1.784   5.343  0.2489  0.7077 -1.0365
    7MOL   C477 3969   1.723   1.577   5.401 -0.0406 -0.1627  0.6194
    7MOL   O478 3970   1.790   1.475   5.335 -0.1399 -0.1455 -0.2601
    7MOL   H479 3971   1.434   2.337   5.031  0.0771  1.5714  1.3514
    7MOL   H480 3972   1.537   2.416   5.149  0.2372  1.3101 -0.1940
    7MOL   H481 3973   1.393   2.249   5.256  0.3233  0.4551 -0.7519
    7MOL   H482 3974   1.549   2.048   5.164 -0.4992  0.7147  2.8116
    7MOL   H483 3975   1.608   2.309   5.370 -0.0308  1.1402 -0.8604
    7MOL   H484 3976   1.525   2.160   5.398 -1.0784 -0.6022 -0.7187
    7MOL   H485 3977   1.723   2.008   5.445 -2.6298  2.7330  0.7965
    7MOL   H486 3978   1.821   2.170   5.438 -0.8505  0.8121 -0.2580
    7MOL   H487 3979   1.967   2.002   5.396  1.3420 -0.4957 -1.0437
    7MOL   H488 3980   1.939   2.082   5.242  0.4185 -2.6877 -0.7782
    7MOL   H489 3981   1.776   1.902   5.185  0.7737  1.1290 -1.1523
    7MOL   H490 3982   1.946   1.853   5.179  0.0905  2.3794 -0.0516
    7MOL   H491 3983   1.723   1.685   5.201  2.1706 -0.6408  0.8051
    7MOL   H492 3984   1.615   1.787   5.437 -0.4095 -1.6434 -0.9196
    7MOL   H493 3985   1.758   1.604   5.501 -0.7193  2.2639  0.2384
    7MOL   H494 3986   1.618   1.548   5.407 -0.4912  0.8143 -2.0953
    7MOL   C495 3987   1.783   1.347   5.407  0.6551  0.2415 -1.0471
    7MOL   C496 3988   1.905   1.267   5.364 -0.9639  0.2506  0.0766
    7MOL   O497 3989   1.917   1.139   5.422  0.4928  0.0878 -0.3470
    7MOL   C498 3990   1.928   1.254   5.214 -0.2667 -0.4437 -0.3001
    7MOL   O499 3991   2.063   1.209   5.183 -0.2368 -0.0815  0.1633
    7MOL   C500 3992   2.105   1.260   5.061 -0.5960  0.7514  0.6550
    7MOL   C501 3993   2.246   1.206   5.042  0.0099 -0.3428  0.4213
    7MOL   C502 3994   2.312   1.249   4.910 -0.1130  0.0490 -0.2605
    7MOL   O503 3995   2.415   1.162   4.891 -0.2539  0.1160  0.5589
    7MOL   C504 3996   2.484   1.180   4.773 -0.7071  0.4373  0.7126
    7MOL   O505 3997   2.424   1.112   4.661 -0.4491 -0.3196  0.2422
    7MOL   C506 3998   2.619   1.118   4.802  0.1827 -0.2575  0.1849
    7MOL   O507 3999   2.699   1.211   4.872  0.0305 -0.3621 -0.4249
    7MOL   H508 4000   1.686   1.304   5.383  0.3917 -0.0788  0.5328
    7MOL   H509 4001   1.796   1.368   5.514  1.7547  0.3567 -1.2007
    7MOL   H510 4002   1.994   1.315   5.405 -0.5248 -0.0328 -0.5387
    7MOL   H511 4003   1.995   1.097   5.390  0.2233 -0.1825 -0.6604
    7MOL   H512 4004   1.849   1.202   5.160  0.8864 -1.9350 -0.5851
    7MOL   H513 4005   1.929   1.357   5.176  1.6110 -1.0070 -1.8838
    7MOL   H514 4006   2.120   1.367   5.073  0.2757  0.6659  0.3260
    7MOL   H515 4007   2.032   1.226   4.987  1.6701 -1.0748 -0.8125
    7MOL   H516 4008   2.260   1.099   5.059  1.4682 -0.3359 -0.5877
    7MOL   H517 4009   2.309   1.246   5.121 -1.0827 -0.3991  1.3355
    7MOL   H518 4010   2.235   1.251   4.832  0.9940 -0.5441 -1.3784
    7MOL   H519 4011   2.350   1.351   4.912  1.5405 -0.5275 -1.6514
    7MOL   H520 4012   2.506   1.285   4.753 -2.1273  1.1788  2.8486
    7MOL   H521 4013   2.434   1.019   4.678  2.4423  0.0302  0.7748
    7MOL   H522 4014   2.611   1.022   4.854  0.0725 -0.8235 -0.8753
    7MOL   H523 4015   2.677   1.108   4.710 -0.0720  2.6531 -0.3522
    7MOL   C524 4016   2.727   1.178   5.007  0.2722 -0.1678  0.0843
    7MOL   C525 4017   2.617   1.219   5.113  0.4978 -0.0575  0.7718
    7MOL   O526 4018   2.699   1.288   5.208 -0.7396  0.8503 -0.3954
    7MOL   C527 4019   2.561   1.091   5.183 -0.1094  0.2934  0.2090
    7MOL   O528 4020   2.462   1.129   5.279 -0.2413  0.0845 -0.2143
    7MOL   C529 4021   2.384   1.021   5.340 -0.3814  0.0802  0.0277
    7MOL   C530 4022   2.294   1.075   5.443 -0.0860 -0.4142  0.5353
    7MOL   C531 4023   2.233   0.966   5.526 -0.7416 -0.2219 -0.2606
    7MOL   O532 4024   2.334   0.884   5.589  0.1798 -0.5708 -0.3017
    7MOL   C533 4025   2.295   0.778   5.671  0.5673 -0.4444 -0.3668
    7MOL   O534 4026   2.255   0.660   5.601  0.1455 -0.0501  0.5454
    7MOL   C535 4027   2.410   0.741   5.769 -0.6004 -0.5466 -0.2804
    7MOL   O536 4028   2.361   0.724   5.898 -0.5333  0.1296  0.0681
    7MOL   H537 4029   2.812   1.245   5.011 -1.0585  1.4567  2.3878
    7MOL   H538 4030   2.762   1.076   5.026  1.2238  0.3661  1.2216
    7MOL   H539 4031   2.534   1.278   5.075 -0.0820 -1.2975  0.1012
    7MOL   H540 4032   2.641   1.300   5.282  0.1523 -0.0016  0.4669
    7MOL   H541 4033   2.518   1.022   5.110 -0.0442  1.3629 -0.8431
    7MOL   H542 4034   2.645   1.039   5.229  1.2696  3.1030  0.9649
    7MOL   H543 4035   2.461   0.958   5.385  0.9447  1.9743  0.4978
    7MOL   H544 4036   2.331   0.954   5.273  0.7155  0.3405 -1.1356
    7MOL   H545 4037   2.212   1.129   5.396 -0.0739 -0.2144  0.7401
    7MOL   H546 4038   2.345   1.146   5.509  0.4602  0.4690 -0.8169
    7MOL   H547 4039   2.173   1.011   5.605 -1.8601 -2.7692  0.4241
    7MOL   H548 4040   2.168   0.900   5.468  0.6819 -0.5981 -1.4611
    7MOL   H549 4041   2.211   0.812   5.732  1.3888  2.9880 -1.0142
    7MOL   H550 4042   2.331   0.615   5.568 -1.7651 -0.9860 -2.9378
    7MOL   H551 4043   2.473   0.658   5.739 -2.8226 -1.8242 -1.5089
    7MOL   H552 4044   2.469   0.832   5.764  0.5370 -1.2979 -0.5975
    7MOL   C553 4045   2.292   0.590   5.915 -0.4604 -0.1473  0.1369
    7MOL   C554 4046   2.257   0.582   6.062 -0.0489  0.0830 -0.2982
    7MOL   O555 4047   2.366   0.625   6.145  0.4543 -0.1744  0.3511
    7MOL   C556 4048   2.198   0.438   6.093  0.1918 -0.4194  0.2758
    7MOL   O557 4049   2.167   0.447   6.236  0.4559  0.2860 -0.0968
    7MOL   C558 4050   2.128   0.323   6.291 -0.4531  0.6426  0.3720
    7MOL   C559 4051   2.098   0.346   6.435  0.5057 -0.0868 -1.3298
    7MOL   C560 4052   2.052   0.217   6.487  0.2171 -0.0415 -0.5421
    7MOL   O561 4053   1.923   0.188   6.439 -0.1455  0.6235  0.6813
    7MOL   C562 4054   1.876   0.059   6.453  0.2795  0.1082  0.1893
    7MOL   O563 4055   1.930   0.006   6.572 -0.2230  0.0677 -0.0415
    7MOL   C564 4056   1.721   0.063   6.461 -0.4454  0.3892  0.1969
    7MOL   O565 4057   1.660   7.676   6.360  0.1508  0.5729  0.4040
    7MOL   H566 4058   2.355   0.506   5.886  0.1285 -0.5549  2.4450
    7MOL   H567 4059   2.202   0.573   5.857  0.4274  0.5377 -1.4562
    7MOL   H568 4060   2.191   0.665   6.088 -1.7676 -2.1857  2.9628
    7MOL   H569 4061   2.393   0.711   6.114 -0.5082  0.6793  1.8341
    7MOL   H570 4062   2.107   0.413   6.037  0.1320 -4.0478  1.8537
    7MOL   H571 4063   2.271   0.358   6.083  0.0025 -0.6801  0.9220
    7MOL   H572 4064   2.049   0.272   6.235 -1.7172  2.3258  0.5747
    7MOL   H573 4065   2.210   0.257   6.265 -0.9328  0.0231  0.4135
    7MOL   H574 4066   2.040   0.436   6.448  0.3720 -0.2995 -0.4133
    7MOL   H575 4067   2.194   0.362   6.485 -0.1420 -0.1168 -0.0584
    7MOL   H576 4068   2.115   0.141   6.440 -1.7058 -1.6009 -0.6722
    7MOL   H577 4069   2.057   0.205   6.595 -0.9520 -1.0534 -0.5945
    7MOL   H578 4070   1.919   7.691   6.375  0.6587  0.4403  0.1310
    7MOL   H579 4071   1.933   7.606   6.567  1.6645  0.1164 -0.2479
    7MOL   H580 4072   1.694   0.040   6.564 -0.5568 -0.1817  0.0400
    7MOL   H581 4073   1.688   0.163   6.432 -3.4899 -0.6543 -0.1314
    7MOL   H582 4074   1.642   0.032   6.282  0.1624  1.4837  0.9789
    8MOL     C1 4075   1.196   5.277   5.366  0.3171  0.5997 -0.4301
    8MOL     C2 4076   1.092   5.167   5.392  0.1568  0.5075 -0.1399
    8MOL     O3 4077   1.121   5.062   5.299 -0.0070 -0.2190  0.1652
    8MOL     C4 4078   1.080   5.104   5.532  0.1905  0.2873 -0.3240
    8MOL     O5 4079   0.946   5.067   5.531 -0.4275 -0.4985  0.1008
    8MOL     C6 4080   0.898   5.041   5.661  0.8209  0.2865  0.0321
    8MOL     C7 4081   0.743   5.039   5.654  0.6757  0.1361  0.0179
    8MOL     C8 4082   0.674   5.054   5.794  0.1554 -0.2409  0.1218
    8MOL     O9 4083   0.539   5.069   5.760  0.7594 -0.2102 -0.4266
    8MOL    C10 4084   0.454   5.002   5.840  0.2744 -0.3578  0.1745
    8MOL    O11 4085   0.471   4.862   5.819  0.1558 -0.4338  0.2759
    8MOL    C12 4086   0.309   5.043   5.808  0.2262 -0.2545 -0.2997
    8MOL    O13 4087   0.270   5.004   5.678  0.5546 -0.2563 -0.0489
    8MOL    H14 4088   1.209   5.302   5.261  0.3082  1.6705 -0.1762
    8MOL    H15 4089   1.290   5.255   5.418 -0.5180  0.5544  1.1153
    8MOL    H16 4090   0.998   5.213   5.363 -1.0019 -2.3213 -1.0308
    8MOL    H17 4091   1.049   5.002   5.310  0.7445 -1.3546 -0.8992
    8MOL    H18 4092   1.131   5.014   5.566 -0.0481  0.5053  0.6203
    8MOL    H19 4093   1.099   5.185   5.602  1.9519 -1.3818  1.1873
    8MOL    H20 4094   0.941   5.110   5.733 -2.1094  1.2754  0.9195
    8MOL    H21 4095   0.925   4.941   5.696 -3.0331 -1.6678 -2.2193
    8MOL    H22 4096   0.707   4.952   5.598 -0.2901 -0.3180  1.3317
    8MOL    H23 4097   0.714   5.114   5.581 -0.4798 -0.1727  0.1577
    8MOL    H24 4098   0.692   4.972   5.863 -2.7384 -0.8325  0.2585
    8MOL    H25 4099   0.711   5.146   5.839  0.9235 -0.2545 -0.4855
    8MOL    H26 4100   0.481   5.006   5.946  1.4568 -0.6866 -0.1009
    8MOL    H27 4101   0.402   4.839   5.758 -1.1232 -2.1346  2.3011
    8MOL    H28 4102   0.244   4.986   5.874  0.5338  0.2115  0.4122
    8MOL    H29 4103   0.288   5.149   5.824 -2.9952 -0.8493 -0.1503
    8MOL    H30 4104   1.160   5.366   5.417 -0.3339  0.2436 -0.2641
    8MOL    C31 4105   0.315   5.092   5.572  0.0041 -0.7042  0.0547
    8MOL    C32 4106   0.232   5.075   5.447  0.9622  0.0688  0.2786
    8MOL    O33 4107   0.297   4.976   5.365  0.1541  0.8684  0.5075
    8MOL    C34 4108   0.228   5.196   5.368 -0.4326  0.9363  0.2351
    8MOL    O35 4109   0.136   5.181   5.265 -0.0731  0.3473  0.1800
    8MOL    C36 4110   0.188   5.170   5.136  0.0117  0.6037 -0.8195
    8MOL    C37 4111   0.193   5.299   5.069  0.2622 -0.4168  0.3268
    8MOL    C38 4112   0.215   5.288   4.918 -0.2392  0.1112  0.2664
    8MOL    O39 4113   0.338   5.221   4.891  0.3149 -0.5273  0.0231
    8MOL    C40 4114   0.377   5.216   4.759  0.0417 -0.0629  0.7643
    8MOL    O41 4115   0.307   5.110   4.692 -0.0905 -0.2643 -0.4208
    8MOL    C42 4116   0.530   5.184   4.761 -0.2173 -0.4119  0.3687
    8MOL    O43 4117   0.578   5.219   4.626 -0.0327  0.1744  0.3474
    8MOL    H44 4118   0.305   5.197   5.601 -0.2324 -0.6761 -0.1314
    8MOL    H45 4119   0.420   5.067   5.552  0.5120  1.1868  0.2227
    8MOL    H46 4120   0.137   5.034   5.481  0.7901 -0.3396 -0.6761
    8MOL    H47 4121   0.238   4.974   5.291  0.6386  0.7719  0.1155
    8MOL    H48 4122   0.186   5.276   5.429  1.1542  0.4378  2.0351
    8MOL    H49 4123   0.329   5.222   5.336  0.2738 -1.9603  0.0217
    8MOL    H50 4124   0.119   5.114   5.073  2.1750 -1.9026 -1.0350
    8MOL    H51 4125   0.281   5.115   5.130  0.0543  0.7001 -1.0278
    8MOL    H52 4126   0.264   5.354   5.130 -1.2503  1.3744  0.5221
    8MOL    H53 4127   0.095   5.344   5.084  1.1520  1.0388  1.8695
    8MOL    H54 4128   0.128   5.242   4.871 -0.5452  0.8530  0.0978
    8MOL    H55 4129   0.221   5.389   4.878  0.6582 -0.1805 -0.3351
    8MOL    H56 4130   0.355   5.313   4.716 -1.9015 -0.0869  1.6793
    8MOL    H57 4131   0.359   5.094   4.615  1.7867  1.2969  0.4847
    8MOL    H58 4132   0.586   5.241   4.836 -0.6065 -1.7974  1.7388
    8MOL    H59 4133   0.550   5.079   4.785 -0.6627 -0.5396  0.1934
    8MOL    C60 4134   0.714   5.210   4.606  0.2887  0.1328 -0.2687
    8MOL    C61 4135   0.754   5.225   4.454  0.5291  0.6647  0.2194
    8MOL    O62 4136   0.749   5.093   4.402  0.2377  0.4130  0.4569
    8MOL    C63 4137   0.898   5.288   4.441 -0.2162  0.4345 -0.0800
    8MOL    O64 4138   0.893   5.327   4.303  0.3145  0.2242  0.0372
    8MOL    C65 4139   1.003   5.404   4.256 -0.5587 -0.6406  1.1434
    8MOL    C66 4140   1.004   5.413   4.099  0.4750 -0.6882 -0.1487
    8MOL    C67 4141   1.064   5.296   4.021  0.7585  0.7068  0.6450
    8MOL    O68 4142   1.206   5.315   4.021 -0.3443  0.0248 -0.3514
    8MOL    C69 4143   1.287   5.221   3.955 -0.6096  0.0999 -0.7851
    8MOL    O70 4144   1.267   5.222   3.816 -0.0460  0.2360  0.4568
    8MOL    C71 4145   1.437   5.245   3.990 -0.1779 -0.2127  0.2204
    8MOL    O72 4146   1.490   5.139   4.064 -0.2142 -0.2056 -0.2813
    8MOL    H73 4147   0.754   5.118   4.649  1.9516  0.6630 -0.6524
    8MOL    H74 4148   0.751   5.293   4.666  0.2052 -0.1532  0.1885
    8MOL    H75 4149   0.689   5.292   4.398 -1.7114 -1.1698  0.5420
    8MOL    H76 4150   0.783   5.107   4.315  0.1864  0.5508  0.4588
    8MOL    H77 4151   0.906   5.381   4.499  1.8816  0.9130 -1.0540
    8MOL    H78 4152   0.978   5.216   4.459  0.2142  0.8622 -0.2539
    8MOL    H79 4153   1.095   5.358   4.294  1.1522  0.6250 -1.3374
    8MOL    H80 4154   0.987   5.502   4.301 -0.2006  0.5852 -1.3469
    8MOL    H81 4155   1.053   5.502   4.059 -0.0923 -1.0516 -1.6973
    8MOL    H82 4156   0.899   5.433   4.075  0.9355  1.5947 -0.4354
    8MOL    H83 4157   1.036   5.303   3.916 -2.0923 -0.9773  1.2322
    8MOL    H84 4158   1.036   5.198   4.059  0.3785  0.3678 -0.5259
    8MOL    H85 4159   1.265   5.119   3.987  0.3498 -0.7812 -2.9060
    8MOL    H86 4160   1.223   5.141   3.795 -0.4040  0.2840  1.0369
    8MOL    H87 4161   1.499   5.266   3.902  1.8672 -2.2308  1.1196
    8MOL    H88 4162   1.440   5.328   4.060 -2.0678 -0.8144  1.0487
    8MOL    C89 4163   1.633   5.138   4.058  0.4472 -0.8952  0.3679
    8MOL    C90 4164   1.691   5.014   4.136 -0.4365  0.0833  1.2451
    8MOL    O91 4165   1.650   5.014   4.269 -0.2779  0.3035  0.0445
    8MOL    C92 4166   1.653   4.883   4.067 -0.9084 -0.4264  0.2226
    8MOL    O93 4167   1.711   4.772   4.132  0.3869 -0.0713  0.1783
    8MOL    C94 4168   1.692   4.642   4.065 -0.6322  0.8891 -0.1388
    8MOL    C95 4169   1.712   4.531   4.173  0.2225 -0.3230  0.4662
    8MOL    C96 4170   1.603   4.514   4.280 -0.2143  0.3116  0.4098
    8MOL    O97 4171   1.611   4.387   4.348  0.2891 -0.5995 -0.3823
    8MOL    C98 4172   1.491   4.322   4.358  0.0340  0.3188  1.0866
    8MOL    O99 4173   1.456   4.276   4.233 -0.4099  0.5618  0.3487
    8MOL   C100 4174   1.491   4.205   4.466 -0.5007  0.1177  0.5858
    8MOL   O101 4175   1.436   4.258   4.590  0.2431  0.0629 -0.4959
    8MOL   H102 4176   1.673   5.232   4.096 -2.9067  1.3341 -1.3205
    8MOL   H103 4177   1.668   5.129   3.956  0.0541  0.5321  0.0941
    8MOL   H104 4178   1.800   5.007   4.139 -0.2539  2.6237  1.9214
    8MOL   H105 4179   1.559   4.990   4.257  0.4116 -1.1571 -2.8601
    8MOL   H106 4180   1.545   4.868   4.060 -0.8650 -0.3575 -0.7509
    8MOL   H107 4181   1.688   4.883   3.963  0.0112  0.0500  0.5304
    8MOL   H108 4182   1.774   4.644   3.994 -1.0546 -0.2244 -0.6712
    8MOL   H109 4183   1.596   4.625   4.016 -1.1028 -0.2624  1.1457
    8MOL   H110 4184   1.808   4.546   4.221  1.0048  1.4015 -1.5577
    8MOL   H111 4185   1.726   4.443   4.110 -2.5470  0.6437 -1.6203
    8MOL   H112 4186   1.622   4.586   4.359 -3.7123  1.5160  0.2499
    8MOL   H113 4187   1.502   4.539   4.246  0.5662  0.4324 -1.9136
    8MOL   H114 4188   1.416   4.397   4.386 -2.2549 -2.3193  2.2017
    8MOL   H115 4189   1.496   4.194   4.206 -1.8898  0.1186 -0.5800
    8MOL   H116 4190   1.445   4.119   4.418  0.7567  0.3391 -1.0842
    8MOL   H117 4191   1.597   4.180   4.471 -0.3962  0.3919 -0.1607
    8MOL   C118 4192   1.478   4.172   4.695  0.4111 -0.7789  0.3761
    8MOL   C119 4193   1.422   4.227   4.826  0.5125  0.5587 -0.0759
    8MOL   O120 4194   1.493   4.345   4.852 -1.3343 -0.5386  0.0318
    8MOL   C121 4195   1.432   4.129   4.952  0.4852  0.1063 -0.5992
    8MOL   O122 4196   1.554   4.060   4.955 -0.0010 -0.4069 -0.2703
    8MOL   C123 4197   1.665   4.130   5.017 -0.0669 -0.4546  0.6817
    8MOL   C124 4198   1.795   4.039   5.024  0.3552 -0.0321  0.1330
    8MOL   C125 4199   1.838   4.005   4.881  0.1132  0.0516  0.5562
    8MOL   O126 4200   1.976   3.964   4.882 -0.4664 -0.2256  0.3134
    8MOL   C127 4201   2.019   3.918   4.754 -0.7941 -0.7731 -0.4765
    8MOL   O128 4202   1.971   3.789   4.722  0.0895 -0.1349  0.1162
    8MOL   C129 4203   2.172   3.919   4.761  0.5040 -0.5738  0.0212
    8MOL   O130 4204   2.213   3.833   4.867  0.4006  0.1238  0.4465
    8MOL   H131 4205   1.445   4.068   4.689 -0.0580 -0.6326  0.3788
    8MOL   H132 4206   1.585   4.157   4.708  0.3869 -0.3406  1.1211
    8MOL   H133 4207   1.316   4.249   4.812  0.0265 -1.9717 -0.6304
    8MOL   H134 4208   1.471   4.397   4.775 -0.5728  1.2271  0.9892
    8MOL   H135 4209   1.406   4.187   5.041 -1.7378 -0.1572 -1.0610
    8MOL   H136 4210   1.356   4.052   4.964  0.6295  0.0443 -0.0747
    8MOL   H137 4211   1.636   4.158   5.118 -2.2177  0.3060 -0.1157
    8MOL   H138 4212   1.684   4.225   4.966  2.2027 -0.3252  1.7097
    8MOL   H139 4213   1.796   3.949   5.085  0.0938  0.0081  0.1973
    8MOL   H140 4214   1.874   4.092   5.078  0.4470  2.0924 -2.0193
    8MOL   H141 4215   1.776   3.926   4.840  2.0118 -2.2276  1.9445
    8MOL   H142 4216   1.829   4.085   4.807 -2.4309  0.4930  1.2720
    8MOL   H143 4217   1.994   3.991   4.677  1.6236  1.6923  0.9506
    8MOL   H144 4218   2.011   3.724   4.777  0.0949 -0.1524  0.0912
    8MOL   H145 4219   2.222   3.891   4.668 -1.3570  0.8330 -1.4145
    8MOL   H146 4220   2.200   4.021   4.787 -0.6196 -0.2080 -0.1980
    8MOL   C147 4221   2.354   3.833   4.884  0.3208 -0.6218  0.6321
    8MOL   C148 4222   2.377   3.727   4.985 -0.2895 -0.4986  0.1531
    8MOL   O149 4223   2.328   3.774   5.109 -0.1291 -0.2424 -0.3072
    8MOL   C150 4224   2.531   3.688   5.004 -0.1939 -0.1426  0.6870
    8MOL   O151 4225   2.543   3.556   5.056  0.1132  0.0513  0.2188
    8MOL   C152 4226   2.662   3.528   5.123 -0.8943  0.2707  0.1298
    8MOL   C153 4227   2.680   3.376   5.133  0.5601  0.5629  0.1896
    8MOL   C154 4228   2.686   3.299   4.997 -0.1559 -0.5936 -0.7318
    8MOL   O155 4229   2.803   3.354   4.928  0.4955  0.3649  0.0072
    8MOL   C156 4230   2.824   3.293   4.812  0.5992 -0.0426  0.2082
    8MOL   O157 4231   2.877   3.159   4.829  0.1388  0.6434  0.6627
    8MOL   C158 4232   2.927   3.385   4.733  0.4492  0.0589  0.2821
    8MOL   O159 4233   2.938   3.351   4.595 -0.1586  0.3727  0.2728
    8MOL   H160 4234   2.394   3.930   4.912  0.1668 -0.7602  1.3599
    8MOL   H161 4235   2.400   3.805   4.790  0.5106 -1.6766  1.0333
    8MOL   H162 4236   2.311   3.644   4.959  0.9541 -0.9337 -1.6982
    8MOL   H163 4237   2.237   3.750   5.113 -0.4363  0.9019 -0.2737
    8MOL   H164 4238   2.575   3.679   4.905  0.5597  0.4200  0.9632
    8MOL   H165 4239   2.581   3.765   5.063 -0.6673  1.3216 -0.7843
    8MOL   H166 4240   2.670   3.578   5.219 -0.2574 -0.7376  0.6049
    8MOL   H167 4241   2.747   3.568   5.067 -0.9329  0.3737  0.1439
    8MOL   H168 4242   2.611   3.327   5.202  0.9117 -0.9178 -0.4839
    8MOL   H169 4243   2.774   3.354   5.184  0.7381  0.3749 -0.2157
    8MOL   H170 4244   2.698   3.192   5.016 -0.3368 -0.7711 -1.6331
    8MOL   H171 4245   2.593   3.328   4.949 -0.0784  2.6300  0.9206
    8MOL   H172 4246   2.738   3.290   4.745 -0.4301  2.6756  1.3617
    8MOL   H173 4247   2.916   3.136   4.746 -1.6124  1.3413 -0.3739
    8MOL   H174 4248   2.890   3.485   4.755  0.3926 -0.2575  1.6749
    8MOL   H175 4249   3.027   3.375   4.776  0.0959 -0.0468  1.0951
    8MOL   C176 4250   3.028   3.434   4.533 -0.4027  0.2272  0.2092
    8MOL   C177 4251   3.068   3.382   4.391  0.1111 -0.0858 -1.0484
    8MOL   O178 4252   3.157   3.271   4.389 -0.1650 -0.1863 -0.0154
    8MOL   C179 4253   3.152   3.496   4.322  0.1774 -0.5217 -0.5248
    8MOL   O180 4254   3.071   3.613   4.284 -0.0094 -0.4444 -0.0867
    8MOL   C181 4255   3.149   3.718   4.229  0.3027 -0.2030 -0.5391
    8MOL   C182 4256   3.045   3.817   4.160 -0.3454  0.4489  0.4380
    8MOL   C183 4257   3.116   3.946   4.119  0.0235  0.0629 -0.3429
    8MOL   O184 4258   3.113   4.028   4.229 -0.6886  0.5942 -0.1329
    8MOL   C185 4259   3.153   4.156   4.216  0.3643  0.1604 -0.3812
    8MOL   O186 4260   3.293   4.169   4.189  0.3551 -0.1635  0.1433
    8MOL   C187 4261   3.105   4.219   4.351 -0.7417  0.5241  0.0380
    8MOL   O188 4262   2.980   4.279   4.338  0.3693 -0.1405  0.2092
    8MOL   H189 4263   3.123   3.435   4.586 -0.1868 -0.4716 -0.1662
    8MOL   H190 4264   3.002   3.540   4.533 -0.1496  0.2947  0.7505
    8MOL   H191 4265   2.979   3.365   4.330 -0.4014  3.2945 -1.3559
    8MOL   H192 4266   3.161   3.238   4.478  0.0284  1.3340  0.5486
    8MOL   H193 4267   3.236   3.522   4.387  0.4755  1.9980 -1.8479
    8MOL   H194 4268   3.205   3.465   4.232  3.6649  2.7714  0.2772
    8MOL   H195 4269   3.215   3.683   4.150 -0.4941 -1.3544 -0.7058
    8MOL   H196 4270   3.194   3.761   4.319 -0.1499  0.9714 -0.8663
    8MOL   H197 4271   2.959   3.835   4.224  1.0005 -0.1773  2.4896
    8MOL   H198 4272   3.016   3.773   4.065 -1.2320  1.6499  0.1474
    8MOL   H199 4273   3.220   3.922   4.097  0.4517 -0.6173  2.2067
    8MOL   H200 4274   3.062   4.005   4.045 -0.5352  1.9725  1.5390
    8MOL   H201 4275   3.106   4.209   4.132 -0.1116 -0.0722 -0.2652
    8MOL   H202 4276   3.334   4.131   4.265  0.4924 -0.8140 -0.2516
    8MOL   H203 4277   3.114   4.146   4.431  1.3596 -0.2225 -0.8505
    8MOL   H204 4278   3.177   4.294   4.382 -0.2558 -0.6029  1.6872
    8MOL   C205 4279   2.936   4.357   4.454 -0.7676  0.3324 -0.0348
    8MOL   C206 4280   2.814   4.441   4.401  0.1630  0.0918 -0.0627
    8MOL   O207 4281   2.713   4.354   4.355 -0.4135 -0.1678  0.1994
    8MOL   C208 4282   2.752   4.530   4.512 -0.1237 -0.4010 -0.1882
    8MOL   O209 4283   2.740   4.462   4.635 -0.3271 -0.1823  0.2040
    8MOL   C210 4284   2.676   4.537   4.738  0.3073 -0.4017 -0.2398
    8MOL   C211 4285   2.681   4.459   4.861 -0.0673  0.4203  0.1072
    8MOL   C212 4286   2.637   4.311   4.851  0.5868  0.5836  0.0688
    8MOL   O213 4287   2.644   4.246   4.978  0.1485 -0.2257 -0.4075
    8MOL   C214 4288   2.520   4.202   5.023  0.4827 -0.5455 -0.0078
    8MOL   O215 4289   2.439   4.298   5.083  0.4142 -0.5389 -0.2100
    8MOL   C216 4290   2.536   4.098   5.133 -0.2598 -0.2067 -0.0699
    8MOL   O217 4291   2.631   4.141   5.237  0.3637 -0.0822  0.0198
    8MOL   H218 4292   3.009   4.427   4.494 -0.8974 -0.6036  1.8993
    8MOL   H219 4293   2.902   4.286   4.529  1.4918 -0.0496  0.6633
    8MOL   H220 4294   2.840   4.505   4.317  2.4943 -0.1903  0.4124
    8MOL   H221 4295   2.758   4.276   4.327  2.0793  1.9489 -2.0319
    8MOL   H222 4296   2.821   4.612   4.533  1.8084 -2.2502  0.8407
    8MOL   H223 4297   2.664   4.585   4.477 -1.2727 -0.5961  2.3171
    8MOL   H224 4298   2.573   4.566   4.716  0.1923 -0.4062  0.2874
    8MOL   H225 4299   2.726   4.632   4.755  1.3721 -1.1645  0.9634
    8MOL   H226 4300   2.608   4.499   4.931  1.7856  1.0521  1.7418
    8MOL   H227 4301   2.783   4.458   4.900  1.2457  1.2734 -3.1625
    8MOL   H228 4302   2.544   4.301   4.795  0.4877 -0.0873  0.3458
    8MOL   H229 4303   2.700   4.249   4.786  2.0310 -1.1580  3.0049
    8MOL   H230 4304   2.460   4.158   4.943  1.7028 -1.4804 -0.4203
    8MOL   H231 4305   2.489   4.337   5.153  0.7194  1.8589 -1.6686
    8MOL   H232 4306   2.439   4.068   5.173 -0.3699  0.8897  0.5042
    8MOL   H233 4307   2.583   4.020   5.075 -0.2023  0.8471 -1.4445
    8MOL   C234 4308   2.621   4.055   5.348 -0.8279  0.5887  0.6973
    8MOL   C235 4309   2.726   4.107   5.452 -0.2971  0.4274  0.1095
    8MOL   O236 4310   2.856   4.075   5.416 -0.1413 -0.2646 -0.0527
    8MOL   C237 4311   2.701   4.049   5.590 -0.4024 -0.2181 -0.5431
    8MOL   O238 4312   2.705   3.902   5.582 -0.1735 -0.5639  0.0909
    8MOL   C239 4313   2.649   3.854   5.706 -0.0719  0.0526  0.0807
    8MOL   C240 4314   2.760   3.787   5.776 -0.1853 -0.2715  0.4594
    8MOL   C241 4315   2.703   3.724   5.909  0.0508 -0.2346 -0.3161
    8MOL   O242 4316   2.811   3.648   5.969 -0.5100 -0.9266  0.2629
    8MOL   C243 4317   2.764   3.573   6.075 -0.5986  0.1718  0.1498
    8MOL   O244 4318   2.709   3.645   6.181 -0.2210 -0.0389  0.4765
    8MOL   C245 4319   2.881   3.477   6.127 -0.3931  0.2145 -0.1777
    8MOL   O246 4320   2.813   3.362   6.173  0.8313 -0.3396 -0.5929
    8MOL   H247 4321   2.523   4.057   5.397 -1.3909  0.0523 -0.3990
    8MOL   H248 4322   2.643   3.951   5.328  0.7637  1.1087 -0.3374
    8MOL   H249 4323   2.723   4.215   5.463  0.0399  0.7742 -2.8903
    8MOL   H250 4324   2.880   3.997   5.465  0.9756  0.9832  1.4473
    8MOL   H251 4325   2.770   4.088   5.665 -2.1520  0.1428  0.9215
    8MOL   H252 4326   2.600   4.080   5.617 -0.1018 -0.1982  0.5896
    8MOL   H253 4327   2.593   3.772   5.662  0.2505  1.3787 -3.0031
    8MOL   H254 4328   2.591   3.923   5.767 -1.4010 -0.4102 -0.6536
    8MOL   H255 4329   2.834   3.863   5.801 -0.8519  0.4284  0.3221
    8MOL   H256 4330   2.813   3.721   5.707 -0.9994 -1.2374  0.7482
    8MOL   H257 4331   2.650   3.803   5.962  1.9465  1.0421 -0.2364
    8MOL   H258 4332   2.624   3.656   5.879 -0.4164  0.6502 -1.1394
    8MOL   H259 4333   2.688   3.506   6.035 -0.9770  1.0739 -0.6737
    8MOL   H260 4334   2.627   3.605   6.206 -0.4638  0.5342  0.6023
    8MOL   H261 4335   2.951   3.447   6.049 -0.1989 -1.2572  0.5475
    8MOL   H262 4336   2.934   3.527   6.207 -2.1022  0.9686  0.5099
    8MOL   C263 4337   2.817   3.343   6.315 -0.1225 -0.2482 -0.0670
    8MOL   C264 4338   2.799   3.201   6.373  1.0640 -0.0291 -0.2823
    8MOL   O265 4339   2.905   3.124   6.327 -0.0540  0.5894  0.1116
    8MOL   C266 4340   2.804   3.211   6.530  0.0409 -0.0194 -0.2458
    8MOL   O267 4341   2.685   3.281   6.568  0.1838 -0.2762  0.1382
    8MOL   C268 4342   2.675   3.314   6.708  0.4225  0.3600 -0.4502
    8MOL   C269 4343   2.767   3.434   6.730  0.6702  0.2058  0.7685
    8MOL   C270 4344   2.742   3.490   6.869  0.2247 -0.2925 -0.5191
    8MOL   O271 4345   2.615   3.549   6.875  0.0043  0.0743  0.2536
    8MOL   C272 4346   2.555   3.567   7.002  0.3495  0.2500 -0.0455
    8MOL   O273 4347   2.631   3.661   7.072 -0.5282  0.1421 -0.9339
    8MOL   C274 4348   2.406   3.612   6.998 -0.2422 -0.3960 -0.4034
    8MOL   O275 4349   2.327   3.494   7.008 -0.3327 -0.5671  0.3243
    8MOL   H276 4350   2.738   3.405   6.358 -0.0927 -1.7408  2.2608
    8MOL   H277 4351   2.913   3.372   6.356 -0.8795 -0.1506  1.6831
    8MOL   H278 4352   2.702   3.159   6.346  0.3535  1.5290 -0.2197
    8MOL   H279 4353   2.939   3.161   6.247 -2.1137 -2.5692 -2.3616
    8MOL   H280 4354   2.796   3.113   6.579 -0.5275 -0.1100 -0.5208
    8MOL   H281 4355   2.904   3.243   6.559 -0.0263  0.2744 -0.3400
    8MOL   H282 4356   2.688   3.232   6.779  0.9724  1.3879  0.6428
    8MOL   H283 4357   2.576   3.353   6.730  1.1201  0.6174  2.4002
    8MOL   H284 4358   2.746   3.514   6.659  0.7245 -2.2669 -2.1654
    8MOL   H285 4359   2.872   3.412   6.710  0.6009  1.3104 -0.9402
    8MOL   H286 4360   2.746   3.407   6.940 -0.4325 -0.3856 -0.5885
    8MOL   H287 4361   2.820   3.559   6.900  0.0036 -0.0372 -0.5242
    8MOL   H288 4362   2.562   3.475   7.059  0.5971  0.6731  0.6174
    8MOL   H289 4363   2.629   3.742   7.023 -0.0627  0.1785 -0.8985
    8MOL   H290 4364   2.386   3.677   7.083 -0.4004 -0.3294 -0.4922
    8MOL   H291 4365   2.391   3.660   6.901  1.5352  1.3333  0.1507
    8MOL   C292 4366   2.301   3.432   6.882  0.5931  0.6987 -0.7064
    8MOL   C293 4367   2.200   3.495   6.781 -0.1875  0.0002 -0.2909
    8MOL   O294 4368   2.262   3.602   6.709  0.1145 -0.0164 -0.3033
    8MOL   C295 4369   2.155   3.399   6.672  0.0848  0.5073  0.4711
    8MOL   O296 4370   2.059   3.471   6.600  0.0051 -0.0422  0.5840
    8MOL   C297 4371   2.009   3.389   6.493 -0.4575  0.8802 -0.1643
    8MOL   C298 4372   1.901   3.470   6.435  0.1712  1.2740 -0.2943
    8MOL   C299 4373   1.817   3.388   6.331  0.2230  0.3517 -0.3809
    8MOL   O300 4374   1.712   3.477   6.281 -0.1078 -0.4606 -0.3478
    8MOL   C301 4375   1.624   3.425   6.194  0.7362 -0.0359  0.3841
    8MOL   O302 4376   1.555   3.314   6.245 -0.1361 -0.1333 -0.0689
    8MOL   C303 4377   1.527   3.541   6.149  0.1918  0.1331  0.2620
    8MOL   O304 4378   1.523   3.560   6.013 -0.4659  0.7827 -0.2159
    8MOL   H305 4379   2.392   3.404   6.829  0.1526  0.7279 -1.4707
    8MOL   H306 4380   2.253   3.342   6.922  0.2485  1.6677  1.1313
    8MOL   H307 4381   2.112   3.528   6.836 -0.8224  1.4674 -2.1379
    8MOL   H308 4382   2.198   3.629   6.644  2.0888  0.1932 -2.2239
    8MOL   H309 4383   2.234   3.354   6.612 -1.2778  1.0239 -1.7722
    8MOL   H310 4384   2.095   3.317   6.711 -1.5221  1.8553  0.8732
    8MOL   H311 4385   1.963   3.297   6.530 -0.8229  1.3800  0.6245
    8MOL   H312 4386   2.083   3.355   6.420 -1.9070 -0.6775 -0.9467
    8MOL   H313 4387   1.933   3.569   6.402  0.9187  1.2769  0.4099
    8MOL   H314 4388   1.832   3.495   6.515 -0.4556 -1.4759  0.0712
    8MOL   H315 4389   1.885   3.346   6.256 -3.1352 -3.0606 -1.6417
    8MOL   H316 4390   1.759   3.309   6.378  1.8689  0.1795  1.4540
    8MOL   H317 4391   1.672   3.388   6.103  1.2015  0.9995  0.2078
    8MOL   H318 4392   1.471   3.347   6.275 -0.1271 -0.6534  0.5411
    8MOL   H319 4393   1.558   3.634   6.196 -0.1130  1.3037 -1.7979
    8MOL   H320 4394   1.425   3.523   6.181 -1.4914  3.4097 -2.9893
    8MOL   C321 4395   1.429   3.477   5.950  0.1977  0.3893  0.7568
    8MOL   C322 4396   1.432   3.524   5.803 -1.0600 -0.1563  0.1248
    8MOL   O323 4397   1.541   3.474   5.727  0.1159  0.0122 -0.3543
    8MOL   C324 4398   1.309   3.480   5.732 -0.2272 -0.4610  0.1265
    8MOL   O325 4399   1.319   3.534   5.598 -0.1075  0.4424  0.3271
    8MOL   C326 4400   1.203   3.508   5.520 -0.3636 -0.1374 -0.0457
    8MOL   C327 4401   1.085   3.600   5.550 -0.9581  0.2623 -0.1950
    8MOL   C328 4402   1.122   3.747   5.560 -0.2419 -0.0203 -0.6936
    8MOL   O329 4403   0.996   3.799   5.586  0.1740  0.3930 -0.2228
    8MOL   C330 4404   0.989   3.934   5.625  0.1044 -0.3346  0.5121
    8MOL   O331 4405   0.970   4.015   5.514  0.3112 -0.0124 -0.2072
    8MOL   C332 4406   0.867   3.960   5.721  0.4561 -0.3221  0.4696
    8MOL   O333 4407   0.886   3.909   5.852 -0.0527  0.3495  0.0259
    8MOL   H334 4408   1.327   3.480   5.990  0.0518 -2.1029  0.6602
    8MOL   H335 4409   1.464   3.375   5.943  1.2460  0.8743 -1.2350
    8MOL   H336 4410   1.431   3.633   5.808  0.4697 -0.1086 -0.1118
    8MOL   H337 4411   1.547   3.516   5.643 -0.8912  2.6893  0.8702
    8MOL   H338 4412   1.224   3.529   5.781 -1.0063 -1.9042  0.2423
    8MOL   H339 4413   1.298   3.372   5.732  0.3927 -0.5340 -2.0971
    8MOL   H340 4414   1.172   3.403   5.526 -1.4653  0.2130  0.6596
    8MOL   H341 4415   1.226   3.525   5.415  0.6641  1.1014  0.3703
    8MOL   H342 4416   1.018   3.584   5.465 -2.4663  1.2301  0.7938
    8MOL   H343 4417   1.040   3.557   5.639  1.5767 -3.7461 -0.7046
    8MOL   H344 4418   1.183   3.769   5.648  0.8124  0.0716 -1.4439
    8MOL   H345 4419   1.144   3.781   5.459  1.0586  0.9366 -0.0995
    8MOL   H346 4420   1.084   3.974   5.660  0.9171 -0.7326 -1.1940
    8MOL   H347 4421   1.016   4.096   5.525  0.4308 -0.0656 -0.3215
    8MOL   H348 4422   0.843   4.066   5.722  0.0285 -0.4060 -0.6724
    8MOL   H349 4423   0.777   3.917   5.678  0.7168  1.5977 -2.1384
    8MOL   C350 4424   0.900   3.767   5.855  0.3767  0.3228  0.8601
    8MOL   C351 4425   0.857   3.710   5.997 -0.1897 -0.1192  0.0447
    8MOL   O352 4426   0.722   3.657   5.972  0.9932  0.8354 -0.3303
    8MOL   C353 4427   0.950   3.607   6.069  0.0658  0.1632  0.7613
    8MOL   O354 4428   0.945   3.631   6.210 -0.8066  0.2191 -0.5834
    8MOL   C355 4429   1.026   3.543   6.283 -0.1747  0.0195  0.6867
    8MOL   C356 4430   0.982   3.553   6.427  0.0350  0.9713 -0.3131
    8MOL   C357 4431   0.847   3.504   6.462 -0.2749  0.1268  0.4954
    8MOL   O358 4432   0.809   3.544   6.599 -0.2746 -0.2787 -0.0327
    8MOL   C359 4433   0.680   3.557   6.623  0.3234  0.0986 -0.7509
    8MOL   O360 4434   0.612   3.438   6.590  0.3232 -0.5365 -0.1546
    8MOL   C361 4435   0.649   3.601   6.766  0.0564 -0.4913 -0.5757
    8MOL   O362 4436   0.580   3.727   6.762 -0.0241 -0.4897  0.1970
    8MOL   H363 4437   1.006   3.742   5.857  0.4193  0.4889  0.5673
    8MOL   H364 4438   0.848   3.723   5.770 -0.3279  2.4836  0.1219
    8MOL   H365 4439   0.851   3.793   6.067  0.9035 -1.0703  1.2979
    8MOL   H366 4440   0.680   3.704   5.902  0.6890  0.1953 -0.5886
    8MOL   H367 4441   0.926   3.505   6.041  1.3796  0.0996 -0.1872
    8MOL   H368 4442   1.052   3.621   6.032  0.3909 -0.5368  1.3788
    8MOL   H369 4443   1.132   3.569   6.276 -0.6929  1.8443 -0.7247
    8MOL   H370 4444   1.014   3.443   6.243 -0.9053  1.0741 -1.8469
    8MOL   H371 4445   1.000   3.653   6.467 -0.2546  1.4706 -1.4373
    8MOL   H372 4446   1.062   3.505   6.485  0.0003  0.1803 -0.9073
    8MOL   H373 4447   0.785   3.546   6.383  0.4403  1.4406  0.6164
    8MOL   H374 4448   0.837   3.395   6.460 -0.3530  0.1341  0.5207
    8MOL   H375 4449   0.653   3.643   6.561  0.1533 -0.2382 -1.1460
    8MOL   H376 4450   0.634   3.408   6.503  1.1416 -0.5271  0.0455
    8MOL   H377 4451   0.577   3.535   6.815  0.8633  0.2643  1.6721
    8MOL   H378 4452   0.727   3.606   6.843  1.3136  1.4655 -1.9374
    8MOL   C379 4453   0.656   3.835   6.805 -0.1028 -0.5210 -0.4525
    8MOL   C380 4454   0.587   3.969   6.770  0.0418  0.1068  0.1455
    8MOL   O381 4455   0.463   3.990   6.841  0.5290 -0.4893  0.0291
    8MOL   C382 4456   0.680   4.090   6.802 -0.0506 -0.5716 -0.4178
    8MOL   O383 4457   0.683   4.192   6.699  0.4248  0.4804  0.2947
    8MOL   C384 4458   0.573   4.281   6.690 -0.1463 -0.0520  0.2636
    8MOL   C385 4459   0.576   4.373   6.571  0.2546  0.2626  0.2162
    8MOL   C386 4460   0.668   4.497   6.581  0.2667 -0.3428 -0.2718
    8MOL   O387 4461   0.692   4.561   6.458  0.2228  0.3206 -0.2093
    8MOL   C388 4462   0.815   4.535   6.391  0.3486 -0.2064 -0.4608
    8MOL   O389 4463   0.812   4.402   6.343  0.1869 -0.8659  0.0597
    8MOL   C390 4464   0.832   4.633   6.277  0.3815 -0.0439  0.2699
    8MOL   O391 4465   0.708   4.634   6.210 -0.3910 -0.3521  0.3055
    8MOL   H392 4466   0.752   3.831   6.754  0.1627 -3.1864  0.1737
    8MOL   H393 4467   0.672   3.839   6.912  0.6080  2.1622 -0.6311
    8MOL   H394 4468   0.573   3.963   6.662  2.3745  1.1019 -0.2435
    8MOL   H395 4469   0.391   3.937   6.811 -2.1402  2.0913  1.5921
    8MOL   H396 4470   0.659   4.146   6.893  3.2965  0.4867 -0.2458
    8MOL   H397 4471   0.782   4.057   6.820 -0.1292 -0.5297  0.0971
    8MOL   H398 4472   0.575   4.338   6.783 -0.2425 -0.0952  0.2922
    8MOL   H399 4473   0.482   4.222   6.690 -0.0527 -0.3358 -3.4636
    8MOL   H400 4474   0.480   4.420   6.552  0.7787  1.0333 -0.5912
    8MOL   H401 4475   0.603   4.310   6.486  4.8276  0.7542  1.1471
    8MOL   H402 4476   0.618   4.575   6.638  0.3361  0.2765 -1.0488
    8MOL   H403 4477   0.763   4.480   6.632 -0.2649 -0.1738  0.7715
    8MOL   H404 4478   0.893   4.554   6.465 -0.7269  2.3131  0.1153
    8MOL   H405 4479   0.727   4.389   6.305 -0.7320 -0.8625  2.0320
    8MOL   H406 4480   0.855   4.731   6.319 -0.6160  0.9946 -1.5396
    8MOL   H407 4481   0.923   4.602   6.225  1.4530 -0.1997  2.1792
    8MOL   C408 4482   0.701   4.663   6.072  0.1213  0.2470 -0.1522
    8MOL   C409 4483   0.721   4.539   5.983  0.5717  0.1505 -0.7618
    8MOL   O410 4484   0.855   4.514   5.959 -0.7407 -0.0960  0.5434
    8MOL   C411 4485   0.659   4.535   5.839  0.2882 -0.4634  0.5337
    8MOL   O412 4486   0.643   4.398   5.803  0.0062  0.7183  0.1672
    8MOL   C413 4487   0.597   4.372   5.668  0.2812  0.0763  0.2922
    8MOL   C414 4488   0.608   4.225   5.629  0.1545 -0.2255  0.0072
    8MOL   C415 4489   0.634   4.220   5.478  0.2690 -0.0812  0.6870
    8MOL   O416 4490   0.635   4.081   5.448  0.1260  0.0843 -0.6045
    8MOL   C417 4491   0.683   4.050   5.320  0.2999  0.4067  0.2551
    8MOL   O418 4492   0.582   4.072   5.223  0.2024 -0.6769  0.1655
    8MOL   C419 4493   0.716   3.900   5.317  0.0800 -0.0667  0.2029
    8MOL   O420 4494   0.783   3.862   5.197  0.3848  0.0719  0.2261
    8MOL   H421 4495   0.781   4.734   6.050  0.0118  0.9029  1.5164
    8MOL   H422 4496   0.604   4.708   6.048 -1.0486 -3.5659 -3.0493
    8MOL   H423 4497   0.680   4.458   6.043 -0.0360  0.4278 -0.8021
    8MOL   H424 4498   0.854   4.434   5.908  0.3418  0.9373 -1.1755
    8MOL   H425 4499   0.565   4.590   5.838  1.4986  1.6831  0.8648
    8MOL   H426 4500   0.734   4.587   5.778 -0.1511 -2.8072 -2.1299
    8MOL   H427 4501   0.491   4.398   5.666  0.1825 -0.4031 -1.1729
    8MOL   H428 4502   0.640   4.447   5.602  0.9609 -1.1666 -0.6967
    8MOL   H429 4503   0.511   4.180   5.646 -1.4818  3.5601  1.1799
    8MOL   H430 4504   0.690   4.181   5.686  1.5108 -0.4637 -2.0642
    8MOL   H431 4505   0.552   4.253   5.416  0.3965  2.1662  1.6734
    8MOL   H432 4506   0.733   4.262   5.457 -0.8140  1.8907 -0.5628
    8MOL   H433 4507   0.772   4.109   5.298  0.3063 -0.0432 -1.0071
    8MOL   H434 4508   0.619   4.038   5.143 -0.5944  0.3200 -0.6244
    8MOL   H435 4509   0.763   3.888   5.415 -1.6690  0.5453  1.1466
    8MOL   H436 4510   0.625   3.843   5.333 -1.5458  1.9293 -1.5974
    8MOL   C437 4511   0.810   3.725   5.201  0.5112  0.0608 -0.4895
    8MOL   C438 4512   0.902   3.693   5.081 -0.1222  0.2626 -0.5434
    8MOL   O439 4513   0.834   3.725   4.964  0.0721 -0.1811  0.1195
    8MOL   C440 4514   0.916   3.543   5.074 -0.6441 -0.0845  0.9195
    8MOL   O441 4515   1.005   3.500   5.177  0.4964  0.1810  0.5483
    8MOL   C442 4516   1.013   3.359   5.176 -0.2223  0.5828  0.1155
    8MOL   C443 4517   1.129   3.300   5.091  0.2549  0.2577  0.2825
    8MOL   C444 4518   1.161   3.150   5.108 -1.0499  0.1616  0.3170
    8MOL   O445 4519   1.285   3.095   5.063  0.5414 -0.2562  0.1043
    8MOL   C446 4520   1.297   2.958   5.060 -0.0023 -0.0614 -0.8029
    8MOL   O447 4521   1.238   2.885   5.168  0.0990 -0.1482  0.0260
    8MOL   C448 4522   1.445   2.919   5.061 -0.1163  0.4407 -0.0066
    8MOL   O449 4523   1.498   2.945   4.936  0.0127  0.4358  0.1313
    8MOL   H450 4524   0.839   3.689   5.300 -0.8499 -1.2978 -0.5586
    8MOL   H451 4525   0.710   3.681   5.190  0.3741  0.5128 -1.0958
    8MOL   H452 4526   1.001   3.739   5.084  0.2760 -0.6165  0.0738
    8MOL   H453 4527   0.845   3.818   4.954  0.7701 -0.2875 -0.1320
    8MOL   H454 4528   0.820   3.493   5.085 -0.7196 -0.1856 -0.1949
    8MOL   H455 4529   0.956   3.529   4.974 -0.3573 -0.8692  1.1382
    8MOL   H456 4530   0.923   3.305   5.148  1.7923 -1.0046 -3.6563
    8MOL   H457 4531   1.039   3.341   5.280  0.6359  2.9469  0.3540
    8MOL   H458 4532   1.223   3.349   5.118  0.4121  0.1801 -0.1082
    8MOL   H459 4533   1.108   3.336   4.990 -0.9497  0.8412  0.7293
    8MOL   H460 4534   1.158   3.123   5.214 -2.4402 -1.6020 -0.1474
    8MOL   H461 4535   1.090   3.088   5.054 -0.3924 -1.9217  1.7576
    8MOL   H462 4536   1.258   2.906   4.972  0.7110 -0.4668 -0.8879
    8MOL   H463 4537   1.165   2.834   5.135 -1.5673  2.8066 -0.9837
    8MOL   H464 4538   1.499   2.975   5.138 -0.6286  0.2116  0.5254
    8MOL   H465 4539   1.454   2.815   5.094 -0.0739  0.6875  0.7729
    8MOL   C466 4540   1.623   2.885   4.908  0.0097 -0.1373  0.5018
    8MOL   C467 4541   1.676   2.961   4.782 -0.4324 -0.5700 -0.1275
    8MOL   O468 4542   1.672   3.090   4.831 -0.1215 -0.1824  0.1874
    8MOL   C469 4543   1.826   2.940   4.744  0.0303  0.6563 -0.3400
    8MOL   O470 4544   1.846   2.988   4.613  0.1413 -0.3428  0.6458
    8MOL   C471 4545   1.974   2.965   4.560 -0.2639 -0.2623  0.8286
    8MOL   C472 4546   1.970   3.053   4.438 -0.3649 -0.0169  0.2916
    8MOL   C473 4547   1.963   3.203   4.467 -0.4600  0.1733  0.2698
    8MOL   O474 4548   1.823   3.228   4.471 -0.2593  0.3507 -0.0884
    8MOL   C475 4549   1.790   3.367   4.468 -0.3731  0.0260  0.6406
    8MOL   O476 4550   1.825   3.430   4.587  0.4173 -0.3445 -0.3337
    8MOL   C477 4551   1.641   3.384   4.448 -0.2940  0.1158  0.5290
    8MOL   O478 4552   1.612   3.413   4.313 -0.3786  0.0341 -0.1806
    8MOL   H479 4553   1.616   2.777   4.896  1.3802 -0.4032  1.8792
    8MOL   H480 4554   1.699   2.912   4.982  0.4483  0.7646 -0.2656
    8MOL   H481 4555   1.611   2.950   4.696 -0.5276 -0.5431 -0.0592
    8MOL   H482 4556   1.597   3.100   4.887 -0.4272 -2.6075  0.2646
    8MOL   H483 4557   1.897   2.983   4.815 -0.3774  3.5436 -1.6243
    8MOL   H484 4558   1.859   2.836   4.747  0.6274  0.8668  1.5774
    8MOL   H485 4559   1.998   2.862   4.536 -1.3808  0.0550 -1.8245
    8MOL   H486 4560   2.057   2.996   4.624  0.1533 -3.1236  1.7338
    8MOL   H487 4561   1.902   3.026   4.357 -0.9104 -1.6948  1.2871
    8MOL   H488 4562   2.067   3.042   4.391 -0.6692  1.9094 -0.8421
    8MOL   H489 4563   2.009   3.240   4.558 -1.5710  1.6417  0.2609
    8MOL   H490 4564   2.000   3.266   4.387 -0.7305 -2.8060 -2.3222
    8MOL   H491 4565   1.836   3.414   4.381 -1.2937 -0.3892 -0.0793
    8MOL   H492 4566   1.778   3.383   4.654  0.6278  0.5733  0.4732
    8MOL   H493 4567   1.578   3.300   4.477  0.9365 -1.1357 -0.3755
    8MOL   H494 4568   1.604   3.467   4.508  1.6007  0.9170  0.6207
    8MOL   C495 4569   1.603   3.295   4.230  0.3262 -0.8603  0.1452
    8MOL   C496 4570   1.572   3.330   4.082  0.1085  0.5266  0.4573
    8MOL   O497 4571   1.677   3.418   4.041  0.2445 -0.3723  0.1658
    8MOL   C498 4572   1.548   3.209   3.986 -0.1393 -0.2284  0.0444
    8MOL   O499 4573   1.425   3.225   3.925  0.4276 -0.1508 -0.1419
    8MOL   C500 4574   1.383   3.120   3.837 -0.5420  0.2450 -0.1965
    8MOL   C501 4575   1.254   3.152   3.759  0.3862 -0.4185 -0.5529
    8MOL   C502 4576   1.262   3.117   3.607  0.4057  0.1933 -0.0128
    8MOL   O503 4577   1.125   3.112   3.565 -0.2756 -0.4920 -0.8356
    8MOL   C504 4578   1.107   3.076   3.438  0.4140 -0.4543  0.3737
    8MOL   O505 4579   1.164   3.172   3.343  0.1512 -0.3611 -0.6091
    8MOL   C506 4580   0.964   3.060   3.403  0.2696  0.1007  0.6113
    8MOL   O507 4581   0.920   2.925   3.432 -0.3057  0.1433 -0.4848
    8MOL   H508 4582   1.518   3.236   4.265 -0.6723  0.0298 -0.7329
    8MOL   H509 4583   1.690   3.233   4.252 -0.3101 -1.4088  1.1127
    8MOL   H510 4584   1.483   3.393   4.079  0.2558  0.7279  0.2542
    8MOL   H511 4585   1.695   3.478   4.111  2.5505  1.7857 -2.1661
    8MOL   H512 4586   1.633   3.203   3.917  0.1477 -1.0691  0.4710
    8MOL   H513 4587   1.544   3.115   4.041 -4.8218  0.1828  0.5732
    8MOL   H514 4588   1.387   3.022   3.885  2.5554  1.3245  1.9365
    8MOL   H515 4589   1.467   3.112   3.769 -1.8800  2.2164 -2.1355
    8MOL   H516 4590   1.228   3.256   3.780  0.4960 -0.2471 -1.2734
    8MOL   H517 4591   1.170   3.100   3.806 -0.6317 -0.3807 -2.2972
    8MOL   H518 4592   1.319   3.193   3.553 -1.0484  1.0259 -0.4110
    8MOL   H519 4593   1.311   3.020   3.599 -0.9329 -0.3357 -2.0016
    8MOL   H520 4594   1.155   2.979   3.427 -0.2604 -0.8573  0.9036
    8MOL   H521 4595   1.142   3.258   3.373  1.0983 -0.7430  1.3341
    8MOL   H522 4596   0.904   3.138   3.449 -3.4738 -1.9993 -0.4696
    8MOL   H523 4597   0.952   3.074   3.296  1.2354 -0.8091  0.3768
    8MOL   C524 4598   0.777   2.924   3.444  0.3978 -0.2374 -0.3283
    8MOL   C525 4599   0.740   2.786   3.494 -0.2273  0.5116  0.2284
    8MOL   O526 4600   0.743   2.704   3.376  0.5973  0.3385  0.3525
    8MOL   C527 4601   0.609   2.773   3.578 -0.5041 -0.6676  0.8863
    8MOL   O528 4602   0.635   2.664   3.665 -0.0922  1.0336 -0.3903
    8MOL   C529 4603   0.527   2.640   3.758  0.0884 -0.2921 -0.0969
    8MOL   C530 4604   0.566   2.515   3.839  0.2473 -0.3230 -0.4155
    8MOL   C531 4605   0.479   2.501   3.967 -0.0385 -0.0690 -0.3794
    8MOL   O532 4606   0.502   2.379   4.031  0.2475 -0.0731  0.2913
    8MOL   C533 4607   0.408   2.343   4.126  0.3779  0.6744 -0.2853
    8MOL   O534 4608   0.278   2.321   4.062  0.2001  0.3698 -0.5016
    8MOL   C535 4609   0.449   2.215   4.202  0.2867  0.3943 -0.0702
    8MOL   O536 4610   0.499   2.117   4.111  0.0550  0.0233 -0.6467
    8MOL   H537 4611   0.716   2.960   3.361  0.0244  1.2582  0.5779
    8MOL   H538 4612   0.745   2.989   3.525 -2.2633  1.2619 -2.4833
    8MOL   H539 4613   0.824   2.752   3.554 -1.1999 -1.9242  0.2684
    8MOL   H540 4614   0.831   2.682   3.352  0.3969  1.3162 -1.4087
    8MOL   H541 4615   0.593   2.859   3.643  0.6673  1.1400 -1.1637
    8MOL   H542 4616   0.528   2.755   3.508  2.4886 -1.1102 -2.6180
    8MOL   H543 4617   0.442   2.637   3.691  0.2968  0.8896 -0.4153
    8MOL   H544 4618   0.521   2.725   3.826 -4.2772 -1.7046  1.5014
    8MOL   H545 4619   0.671   2.530   3.864  0.3422 -1.2573 -0.2526
    8MOL   H546 4620   0.545   2.428   3.776 -1.3245  0.4137 -0.9334
    8MOL   H547 4621   0.506   2.585   4.031 -0.3735 -1.3129  1.4322
    8MOL   H548 4622   0.375   2.505   3.934  0.0259 -0.7471 -0.6848
    8MOL   H549 4623   0.403   2.427   4.195 -0.4336  1.3352 -1.1334
    8MOL   H550 4624   0.276   2.234   4.025  0.8202  0.3773 -0.5589
    8MOL   H551 4625   0.523   2.225   4.281 -1.7070  0.9266  1.7813
    8MOL   H552 4626   0.353   2.191   4.249  0.3458  1.7623  0.7577
    8MOL   C553 4627   0.497   1.982   4.171  0.2261 -0.2364  0.1796
    8MOL   C554 4628   0.528   1.867   4.074 -0.3562 -0.6178  0.1278
    8MOL   O555 4629   0.406   1.853   3.992 -0.1872 -0.2198  0.3690
    8MOL   C556 4630   0.525   1.732   4.147 -0.7731 -0.1560  0.2467
    8MOL   O557 4631   0.589   1.653   4.049  1.2365 -0.0595  0.6569
    8MOL   C558 4632   0.627   1.530   4.100 -0.1014 -0.1982  0.9778
    8MOL   C559 4633   0.711   1.477   3.981 -0.0056 -0.4360 -0.0404
    8MOL   C560 4634   0.826   1.571   3.949  0.5925  0.6597  0.2195
    8MOL   O561 4635   0.921   1.592   4.058  0.0920  0.3808 -0.0479
    8MOL   C562 4636   1.037   1.658   4.033  0.5371  0.1981 -0.5038
    8MOL   O563 4637   1.011   1.794   3.994  0.4335  0.1656  0.0324
    8MOL   C564 4638   1.119   1.643   4.164  0.1915 -0.3594  0.0851
    8MOL   O565 4639   1.162   1.506   4.181  0.1596  0.1588  0.3095
    8MOL   H566 4640   0.401   1.973   4.222  1.1048 -1.1210  1.6991
    8MOL   H567 4641   0.570   1.978   4.252  0.9193 -0.9067 -0.4708
    8MOL   H568 4642   0.625   1.882   4.026 -0.9782  2.5134 -0.2812
    8MOL   H569 4643   0.430   1.789   3.928 -2.1858 -0.1911 -0.4494
    8MOL   H570 4644   0.564   1.730   4.249  0.4261 -1.4374 -0.2312
    8MOL   H571 4645   0.430   1.688   4.179 -1.1641  0.9357  0.6217
    8MOL   H572 4646   0.684   1.546   4.191 -1.2218  0.3128  1.5960
    8MOL   H573 4647   0.547   1.460   4.127 -1.7174  0.9201 -0.8137
    8MOL   H574 4648   0.651   1.454   3.893  0.7308  0.7088 -0.8564
    8MOL   H575 4649   0.747   1.379   4.012 -1.0458 -0.6861  0.4026
    8MOL   H576 4650   0.878   1.533   3.861  2.1630  0.0872  1.3658
    8MOL   H577 4651   0.796   1.672   3.922  1.2331  0.5867 -0.8178
    8MOL   H578 4652   1.077   1.609   3.945 -1.8560 -0.5451 -1.2329
    8MOL   H579 4653   0.944   1.825   4.054  0.5696  1.9893 -0.7133
    8MOL   H580 4654   1.205   1.711   4.160 -1.0463  1.3234  1.5362
    8MOL   H581 4655   1.064   1.682   4.250  0.3083 -0.8465  0.3807
    8MOL   H582 4656   1.085   1.464   4.217  0.0844  2.0053  2.4697
    9MOL     C1 4657   1.318   3.298   2.572  0.1319  0.1174  0.3340
    9MOL     C2 4658   1.469   3.315   2.582 -0.0221 -0.1403 -0.4678
    9MOL     O3 4659   1.486   3.389   2.701 -0.1153 -0.2078  0.1469
    9MOL     C4 4660   1.548   3.180   2.589  0.3487 -0.1363 -0.1088
    9MOL     O5 4661   1.494   3.060   2.649 -0.1275  0.0061  0.0300
    9MOL     C6 4662   1.538   3.048   2.783 -0.2178 -0.4843  0.5355
    9MOL     C7 4663   1.447   2.949   2.855  0.2266  0.8346 -0.6813
    9MOL     C8 4664   1.303   3.001   2.851  0.5141 -0.8751  0.0565
    9MOL     O9 4665   1.230   2.922   2.947 -0.1574 -0.3702 -0.5099
    9MOL    C10 4666   1.106   2.976   2.988 -0.2306  0.2833 -0.4838
    9MOL    O11 4667   1.124   3.098   3.063  0.3195 -0.1880 -0.2394
    9MOL    C12 4668   1.023   2.866   3.072  0.0218 -0.1390 -0.1898
    9MOL    O13 4669   1.099   2.814   3.179 -0.1517  0.2099  0.6069
    9MOL    H14 4670   1.301   3.262   2.471  0.5453  0.4131  0.1562
    9MOL    H15 4671   1.267   3.393   2.591  2.2813  1.3488  0.1192
    9MOL    H16 4672   1.509   3.381   2.506 -0.2950  1.0131  0.3777
    9MOL    H17 4673   1.457   3.333   2.772 -1.4778 -1.8341 -1.6271
    9MOL    H18 4674   1.582   3.153   2.489 -0.6935  1.4770 -0.9254
    9MOL    H19 4675   1.638   3.213   2.640  0.1517  0.2160  0.0132
    9MOL    H20 4676   1.547   3.149   2.823  4.2098 -1.0096  1.1091
    9MOL    H21 4677   1.641   3.012   2.776  0.8620  2.2119  2.0259
    9MOL    H22 4678   1.478   2.943   2.959  1.5591  1.2378 -1.0460
    9MOL    H23 4679   1.459   2.850   2.812  3.0765  1.1358 -0.6598
    9MOL    H24 4680   1.306   3.106   2.880 -1.7800 -1.0696  1.1602
    9MOL    H25 4681   1.264   2.981   2.752  1.0880  0.6114 -0.4868
    9MOL    H26 4682   1.047   3.003   2.901  0.1964 -1.7539 -1.4492
    9MOL    H27 4683   1.145   3.079   3.153  0.8001 -0.1283 -0.3365
    9MOL    H28 4684   0.932   2.908   3.115  0.7785 -0.3643  1.6623
    9MOL    H29 4685   1.001   2.785   3.002 -1.8338 -1.0085  1.3581
    9MOL    H30 4686   1.286   3.216   2.636 -1.8243  0.4933 -0.1177
    9MOL    C31 4687   1.062   2.672   3.220  0.0236  0.5741 -0.3261
    9MOL    C32 4688   1.150   2.638   3.347 -1.0248 -0.1046 -0.0726
    9MOL    O33 4689   1.277   2.650   3.298  0.0408 -0.1238  0.0106
    9MOL    C34 4690   1.126   2.496   3.400  0.4487  0.1318 -0.0087
    9MOL    O35 4691   1.000   2.490   3.463 -0.2538  0.4392 -0.2916
    9MOL    C36 4692   0.984   2.372   3.538 -0.0011 -0.5419  0.7005
    9MOL    C37 4693   0.837   2.347   3.574  0.2408 -0.6034 -0.0460
    9MOL    C38 4694   0.820   2.222   3.658  0.3070 -0.2248  0.4296
    9MOL    O39 4695   0.686   2.186   3.682  0.2202  0.2684  0.2014
    9MOL    C40 4696   0.661   2.089   3.780  0.4417 -0.0527 -0.3927
    9MOL    O41 4697   0.707   2.130   3.906  0.0865 -0.2093 -0.2253
    9MOL    C42 4698   0.727   1.952   3.748  0.3122  0.1535 -0.2680
    9MOL    O43 4699   0.711   1.942   3.607 -0.0003  0.6666  0.1587
    9MOL    H44 4700   0.954   2.664   3.235  0.0669  2.0122  0.8673
    9MOL    H45 4701   1.082   2.606   3.136 -0.5489 -1.9680  1.4853
    9MOL    H46 4702   1.133   2.711   3.426 -0.4751 -1.5707  1.4396
    9MOL    H47 4703   1.281   2.731   3.250 -0.2586  0.4150  0.8889
    9MOL    H48 4704   1.129   2.426   3.317  1.0765 -1.0195  0.9819
    9MOL    H49 4705   1.208   2.473   3.468  2.1138  2.9002 -0.9905
    9MOL    H50 4706   1.033   2.378   3.635 -1.9179 -0.1617  1.6743
    9MOL    H51 4707   1.017   2.292   3.471  1.2204  1.6087 -1.3219
    9MOL    H52 4708   0.779   2.336   3.482  0.9629  2.8995 -0.9724
    9MOL    H53 4709   0.794   2.431   3.628  2.9518  0.9262 -0.2132
    9MOL    H54 4710   0.866   2.143   3.598  1.3207  0.7596 -0.1018
    9MOL    H55 4711   0.882   2.236   3.747  1.5493  2.8927 -0.8419
    9MOL    H56 4712   0.553   2.080   3.780  0.6348 -2.7647 -1.5362
    9MOL    H57 4713   0.638   2.172   3.955  1.3124  1.6114  0.0131
    9MOL    H58 4714   0.834   1.971   3.760  0.3075 -0.2399  0.4352
    9MOL    H59 4715   0.680   1.871   3.804  0.2079  2.3586  2.9476
    9MOL    C60 4716   0.775   1.825   3.556 -0.0064 -0.3134  0.3891
    9MOL    C61 4717   0.756   1.802   3.408  0.0481  0.3111 -0.0618
    9MOL    O62 4718   0.849   1.703   3.370 -0.0630 -0.2993 -0.0284
    9MOL    C63 4719   0.768   1.912   3.303  0.0209 -0.1444 -0.2175
    9MOL    O64 4720   0.797   1.857   3.177 -0.1360  0.4599  0.0382
    9MOL    C65 4721   0.858   1.950   3.087  0.2825  0.4029  0.0887
    9MOL    C66 4722   0.875   1.868   2.960  0.2526 -0.4989 -0.5000
    9MOL    C67 4723   0.747   1.891   2.872  0.6252 -0.2357 -0.6496
    9MOL    O68 4724   0.760   1.837   2.751  0.3825 -0.4013  0.0759
    9MOL    C69 4725   0.642   1.813   2.681  0.7590 -0.0591 -0.2651
    9MOL    O70 4726   0.581   1.932   2.647  0.0350 -1.1197 -1.0177
    9MOL    C71 4727   0.681   1.733   2.554 -0.3047 -0.0546  0.0127
    9MOL    O72 4728   0.687   1.593   2.577  0.3127  0.0912  0.6257
    9MOL    H73 4729   0.767   1.735   3.616  0.0048 -0.7378 -0.2407
    9MOL    H74 4730   0.881   1.846   3.569 -0.1855 -0.3180  2.0257
    9MOL    H75 4731   0.667   1.747   3.376  0.0116 -0.1587  0.8292
    9MOL    H76 4732   0.861   1.733   3.281  0.7528  1.9555  0.8013
    9MOL    H77 4733   0.671   1.963   3.306  0.7966  1.4270 -1.5015
    9MOL    H78 4734   0.841   1.986   3.335 -1.6016  1.6353 -0.5195
    9MOL    H79 4735   0.957   1.967   3.130 -0.4282  1.3152  1.4243
    9MOL    H80 4736   0.797   2.040   3.078 -0.4156 -0.1256 -0.5836
    9MOL    H81 4737   0.895   1.761   2.971  1.7432  0.0587  2.6058
    9MOL    H82 4738   0.957   1.917   2.908  3.0396 -2.6101  1.7340
    9MOL    H83 4739   0.744   1.998   2.851 -0.3005 -0.2146 -0.4302
    9MOL    H84 4740   0.657   1.868   2.928  1.1850  1.4041  0.9884
    9MOL    H85 4741   0.569   1.770   2.749  0.6676  1.2234  0.4655
    9MOL    H86 4742   0.641   1.972   2.586 -0.2030 -0.0421 -0.5740
    9MOL    H87 4743   0.607   1.737   2.473 -0.1896  1.1410 -0.0457
    9MOL    H88 4744   0.779   1.770   2.525  0.3277 -0.1370  1.9790
    9MOL    C89 4745   0.566   1.515   2.596 -0.3414  0.1339 -0.2842
    9MOL    C90 4746   0.603   1.378   2.662  0.1768 -0.0556 -0.5559
    9MOL    O91 4747   0.676   1.314   2.557  0.3323 -0.5710 -0.3685
    9MOL    C92 4748   0.703   1.388   2.780  0.9187  0.0553  0.3044
    9MOL    O93 4749   0.623   1.398   2.896  0.0205  0.4056 -0.0972
    9MOL    C94 4750   0.704   1.403   3.014  0.2131  0.3395 -0.4749
    9MOL    C95 4751   0.622   1.462   3.127 -0.0466 -0.4697  0.6270
    9MOL    C96 4752   0.579   1.611   3.105 -0.2354 -0.0092 -0.7434
    9MOL    O97 4753   0.495   1.668   3.205  0.3769  0.8952  0.2451
    9MOL    C98 4754   0.444   1.796   3.175  0.5625 -0.5465  0.0848
    9MOL    O99 4755   0.350   1.793   3.071 -0.0450  0.2551 -0.3804
    9MOL   C100 4756   0.382   1.858   3.306  0.3016 -0.1438 -0.4255
    9MOL   O101 4757   0.431   1.990   3.307  0.3644  0.1301 -0.1445
    9MOL   H102 4758   0.512   1.495   2.504  1.0761 -3.3086 -0.4587
    9MOL   H103 4759   0.498   1.572   2.659  2.3144  0.6726  2.1968
    9MOL   H104 4760   0.512   1.324   2.687 -0.6652  2.1604  1.2293
    9MOL   H105 4761   0.731   1.382   2.522  0.7444 -1.2758 -1.0981
    9MOL   H106 4762   0.775   1.308   2.767  0.8322  0.1800 -1.1025
    9MOL   H107 4763   0.751   1.485   2.764 -0.8852  0.7018 -1.5334
    9MOL   H108 4764   0.806   1.441   3.011  0.8695 -1.3802 -0.3088
    9MOL   H109 4765   0.727   1.299   3.035 -0.4685  0.1054 -0.8694
    9MOL   H110 4766   0.680   1.470   3.220 -0.4070  0.3299  0.7836
    9MOL   H111 4767   0.535   1.406   3.163 -0.2131 -1.2728 -0.9897
    9MOL   H112 4768   0.663   1.677   3.129 -2.5511  2.7225  0.1793
    9MOL   H113 4769   0.554   1.614   2.999 -1.2241 -0.9510 -0.5493
    9MOL   H114 4770   0.523   1.859   3.134  1.4866 -2.4124 -1.0294
    9MOL   H115 4771   0.297   1.872   3.075 -0.4807 -0.0936  1.2124
    9MOL   H116 4772   0.273   1.854   3.305  0.2955  0.1421 -1.1109
    9MOL   H117 4773   0.416   1.798   3.390  0.2617  1.5079  0.7936
    9MOL   C118 4774   0.390   2.065   3.421 -0.1664 -0.0364  0.1480
    9MOL   C119 4775   0.458   2.201   3.418  0.6299  0.6070  0.2415
    9MOL   O120 4776   0.593   2.183   3.420  0.0006 -0.0653 -0.0398
    9MOL   C121 4777   0.413   2.298   3.536 -0.5834  0.3080  0.6044
    9MOL   O122 4778   0.269   2.311   3.516  0.2957  0.2605  0.0413
    9MOL   C123 4779   0.230   2.438   3.559 -0.6088  0.4151  0.3278
    9MOL   C124 4780   0.236   2.540   3.436 -0.6748 -0.3668 -0.2058
    9MOL   C125 4781   0.128   2.659   3.451  0.1893 -0.1394 -0.4163
    9MOL   O126 4782   0.118   2.752   3.341 -0.0850  0.0396 -0.0870
    9MOL   C127 4783   0.222   2.842   3.334  0.1418  0.3899  0.4276
    9MOL   O128 4784   0.203   2.952   3.421 -0.1016  0.0026 -0.1816
    9MOL   C129 4785   0.229   2.894   3.192  0.4034  0.9301  0.7740
    9MOL   O130 4786   0.301   2.791   3.111  0.2944 -0.3556  0.2583
    9MOL   H131 4787   0.282   2.068   3.426 -0.1232  0.0178  1.0960
    9MOL   H132 4788   0.416   2.005   3.508  1.1894 -0.8163 -0.7668
    9MOL   H133 4789   0.428   2.246   3.324 -0.0947 -1.4079 -0.5137
    9MOL   H134 4790   0.628   2.155   3.503  2.3417  1.0269 -0.6235
    9MOL   H135 4791   0.443   2.257   3.632 -1.1550  0.9653  1.0669
    9MOL   H136 4792   0.467   2.392   3.535 -1.8284  1.0375 -0.4114
    9MOL   H137 4793   0.286   2.473   3.645  1.1219  0.1163 -0.6448
    9MOL   H138 4794   0.129   2.417   3.592 -0.0390 -0.6602  1.4150
    9MOL   H139 4795   0.227   2.499   3.336 -3.1713  0.2187 -0.2516
    9MOL   H140 4796   0.334   2.587   3.426 -1.4207  1.0690 -0.8809
    9MOL   H141 4797   0.029   2.614   3.452  1.2626 -2.6061 -0.4317
    9MOL   H142 4798   0.149   2.705   3.547  2.0488  1.8253 -1.7186
    9MOL   H143 4799   0.318   2.796   3.351  0.9546  1.9716  0.2612
    9MOL   H144 4800   0.125   2.991   3.386  1.1141  2.4354 -0.3327
    9MOL   H145 4801   0.135   2.906   3.139  1.4530 -0.4714 -1.5022
    9MOL   H146 4802   0.282   2.988   3.195  1.7435  0.2005  0.3113
    9MOL   C147 4803   0.221   2.688   3.066 -0.1702  0.3417 -0.0790
    9MOL   C148 4804   0.289   2.657   2.930  0.4271  0.7706  0.1385
    9MOL   O149 4805   0.268   2.766   2.840 -0.1397 -0.3581 -0.1363
    9MOL   C150 4806   0.231   2.529   2.870  0.3547  0.5362 -0.2519
    9MOL   O151 4807   0.313   2.478   2.772 -0.1142 -0.5818 -0.4581
    9MOL   C152 4808   0.290   2.528   2.638  0.5905 -0.0096 -0.3878
    9MOL   C153 4809   0.382   2.457   2.532 -0.5378  0.2727 -0.2551
    9MOL   C154 4810   0.332   2.510   2.393  0.5028 -0.2551  0.4294
    9MOL   O155 4811   0.400   2.443   2.290  0.0117  0.2851 -0.5717
    9MOL   C156 4812   0.529   2.490   2.253  0.8780  0.1512  0.1307
    9MOL   O157 4813   0.522   2.606   2.169 -0.4444  0.1686 -0.1768
    9MOL   C158 4814   0.602   2.380   2.172 -0.3733 -0.7434 -0.0699
    9MOL   O159 4815   0.619   2.265   2.251  0.9281 -0.0925  0.0559
    9MOL   H160 4816   0.117   2.719   3.062 -0.0946  0.8567  1.5092
    9MOL   H161 4817   0.224   2.609   3.142  2.0066 -0.5160 -0.9979
    9MOL   H162 4818   0.390   2.642   2.969  0.3583 -3.5367 -0.9944
    9MOL   H163 4819   0.264   2.840   2.898 -2.9288 -0.0919 -0.6388
    9MOL   H164 4820   0.231   2.461   2.955 -0.4771 -0.7416 -1.2579
    9MOL   H165 4821   0.129   2.543   2.834  0.5325  2.4265 -0.0812
    9MOL   H166 4822   0.310   2.635   2.633  1.4546 -0.0891  0.8911
    9MOL   H167 4823   0.187   2.514   2.606  1.3433 -2.6201 -1.7756
    9MOL   H168 4824   0.389   2.350   2.548 -0.6067  0.3072  0.0132
    9MOL   H169 4825   0.480   2.497   2.557  0.4425 -0.8375 -2.2758
    9MOL   H170 4826   0.229   2.475   2.383  0.3042  0.5220 -0.3549
    9MOL   H171 4827   0.335   2.619   2.386  2.0273 -0.1848  1.8293
    9MOL   H172 4828   0.588   2.518   2.340 -0.8114  2.8341  0.4487
    9MOL   H173 4829   0.500   2.680   2.224  0.1242 -0.8705  1.4852
    9MOL   H174 4830   0.542   2.352   2.086  0.9195 -0.5122 -1.0628
    9MOL   H175 4831   0.695   2.421   2.133 -0.1900 -0.5901  0.5202
    9MOL   C176 4832   0.739   2.193   2.226 -0.1260  0.3571 -0.1606
    9MOL   C177 4833   0.729   2.056   2.288  0.4159 -0.3426 -0.0985
    9MOL   O178 4834   0.701   2.075   2.424 -0.5133  0.4475  0.1150
    9MOL   C179 4835   0.860   1.975   2.287  0.4844  0.2447  0.0972
    9MOL   O180 4836   0.895   1.943   2.155  0.1284  0.0147 -0.1231
    9MOL   C181 4837   1.030   1.897   2.146  0.5143  0.0094  0.2762
    9MOL   C182 4838   1.065   1.854   1.997  0.0932  0.2424 -0.6230
    9MOL   C183 4839   0.988   1.719   1.960  0.7063 -0.3028  0.2533
    9MOL   O184 4840   1.013   1.695   1.814 -0.5081 -0.6216 -0.6812
    9MOL   C185 4841   0.946   1.587   1.774  0.2831  0.0661 -0.1328
    9MOL   O186 4842   0.993   1.472   1.836 -0.2237  0.2310 -0.0535
    9MOL   C187 4843   0.961   1.586   1.622 -0.6506  0.7646  0.0622
    9MOL   O188 4844   0.884   1.692   1.571 -0.2463  0.2529  0.1129
    9MOL   H189 4845   0.834   2.229   2.264  0.3850 -0.1561 -0.9423
    9MOL   H190 4846   0.740   2.181   2.118  1.2582 -0.1114 -0.0977
    9MOL   H191 4847   0.643   2.006   2.246 -1.9326  2.7887  0.7932
    9MOL   H192 4848   0.639   2.146   2.421  1.5787  2.5130  3.2464
    9MOL   H193 4849   0.931   2.039   2.340  0.8946  0.1153 -0.2914
    9MOL   H194 4850   0.845   1.882   2.342 -1.0514  0.7829  0.6123
    9MOL   H195 4851   1.049   1.818   2.220 -0.4056 -1.9833 -1.5590
    9MOL   H196 4852   1.097   1.981   2.163  0.2223  0.3306 -0.1516
    9MOL   H197 4853   1.171   1.836   1.984 -0.1593 -0.2002 -2.0568
    9MOL   H198 4854   1.036   1.929   1.924 -1.0047  1.0332  0.5871
    9MOL   H199 4855   1.024   1.638   2.025  1.0514  0.0352  0.4864
    9MOL   H200 4856   0.881   1.738   1.970  0.6112 -0.0990 -1.1110
    9MOL   H201 4857   0.842   1.599   1.804  0.9508  0.2293  2.1803
    9MOL   H202 4858   1.056   1.437   1.775 -0.5705 -0.0521 -0.2522
    9MOL   H203 4859   1.070   1.586   1.610 -0.6963 -2.3546 -0.7838
    9MOL   H204 4860   0.932   1.489   1.582  0.7666  0.7063 -0.8461
    9MOL   C205 4861   0.899   1.698   1.428 -0.5255 -0.3328 -0.6095
    9MOL   C206 4862   0.806   1.813   1.391 -0.6604  0.2324  0.0066
    9MOL   O207 4863   0.871   1.932   1.432  0.0285 -0.3354  0.5665
    9MOL   C208 4864   0.767   1.828   1.242  0.3956 -0.9043 -0.6544
    9MOL   O209 4865   0.642   1.905   1.242  0.4865  0.0164 -0.2200
    9MOL   C210 4866   0.605   1.950   1.111 -0.1498  0.6150  0.2292
    9MOL   C211 4867   0.491   2.040   1.115  0.4358  0.2763  0.3969
    9MOL   C212 4868   0.419   2.074   0.985 -0.0561 -0.1900  0.3894
    9MOL   O213 4869   0.327   2.180   1.000  0.1384  0.7364  0.3859
    9MOL   C214 4870   0.222   2.190   0.907  0.2151  0.2655 -0.3109
    9MOL   O215 4871   0.271   2.180   0.776 -0.0211  0.3709  0.0060
    9MOL   C216 4872   0.149   2.332   0.919  0.4826  0.4448  0.2442
    9MOL   O217 4873   0.018   2.327   0.868  0.2655  0.0098  0.3360
    9MOL   H218 4874   0.868   1.606   1.378 -0.6942 -1.1686  0.9950
    9MOL   H219 4875   1.002   1.727   1.409 -0.5785  0.3797  0.1947
    9MOL   H220 4876   0.710   1.803   1.440 -1.0462  0.7699 -0.6249
    9MOL   H221 4877   0.907   1.915   1.517  1.3122  1.8657  0.4959
    9MOL   H222 4878   0.850   1.872   1.187  1.3864 -2.6111 -0.5333
    9MOL   H223 4879   0.741   1.732   1.199  3.6826 -1.0251 -2.5159
    9MOL   H224 4880   0.581   1.872   1.040  1.8310 -0.4628  0.7064
    9MOL   H225 4881   0.689   1.994   1.058 -0.1857  0.4440  0.0329
    9MOL   H226 4882   0.525   2.134   1.158  1.7200  0.5994 -1.2779
    9MOL   H227 4883   0.416   1.993   1.179 -1.9601  0.0301 -2.4589
    9MOL   H228 4884   0.501   2.108   0.922  0.8635 -0.8133  1.2273
    9MOL   H229 4885   0.381   1.992   0.924  3.1424  1.5723 -4.2401
    9MOL   H230 4886   0.154   2.108   0.931 -1.0648  1.7706  1.3079
    9MOL   H231 4887   0.193   2.188   0.724  0.0391  0.9323  0.0044
    9MOL   H232 4888   0.138   2.352   1.025  2.4827 -0.5413  0.6701
    9MOL   H233 4889   0.207   2.414   0.877  2.6114 -2.0377 -1.8936
    9MOL   C234 4890   7.647   2.450   0.892  0.3358  0.0358 -0.3258
    9MOL   C235 4891   7.541   2.475   0.783 -0.2776 -0.2707  0.5071
    9MOL   O236 4892   7.440   2.383   0.781  0.0273  0.0128  0.3946
    9MOL   C237 4893   7.591   2.474   0.636  0.1755 -0.1480 -0.6701
    9MOL   O238 4894   7.674   2.589   0.613  0.6900  0.3376  0.0890
    9MOL   C239 4895   0.077   2.564   0.509  0.5237 -0.1699  0.5298
    9MOL   C240 4896   0.193   2.487   0.561  0.0460  0.1105 -0.1092
    9MOL   C241 4897   0.258   2.392   0.464 -0.2902  0.2788 -0.4775
    9MOL   O242 4898   0.174   2.275   0.471 -0.1609  0.1717 -0.0937
    9MOL   C243 4899   0.230   2.153   0.442 -0.5716 -0.1363  0.2735
    9MOL   O244 4900   0.295   2.152   0.319 -0.2286  0.1138  0.4356
    9MOL   C245 4901   0.119   2.039   0.441 -0.4832 -0.1163  0.1173
    9MOL   O246 4902   0.070   2.037   0.576 -0.0106 -0.1449 -0.0551
    9MOL   H247 4903   7.602   2.455   0.991  1.1198  0.5459  0.0046
    9MOL   H248 4904   0.018   2.537   0.886 -0.6455  0.8108  0.0504
    9MOL   H249 4905   7.494   2.572   0.801  1.1167  0.2358  1.6033
    9MOL   H250 4906   7.474   2.297   0.764  0.9144  0.3211  0.5680
    9MOL   H251 4907   7.643   2.379   0.631  1.7742  0.5268  1.9290
    9MOL   H252 4908   7.513   2.474   0.560  1.5720  0.1066 -2.1321
    9MOL   H253 4909   0.128   2.654   0.475 -0.4043 -0.1030 -0.7014
    9MOL   H254 4910   0.039   2.517   0.419 -0.7118  2.1773 -0.2199
    9MOL   H255 4911   0.155   2.437   0.649 -1.8914  2.3430  0.3670
    9MOL   H256 4912   0.264   2.559   0.601 -1.2724  1.1865  0.3341
    9MOL   H257 4913   0.258   2.429   0.361 -3.3907  0.7544 -0.3291
    9MOL   H258 4914   0.358   2.366   0.500 -0.5929 -0.3676 -0.1079
    9MOL   H259 4915   0.301   2.122   0.519  0.0891  1.5695  0.3755
    9MOL   H260 4916   0.238   2.107   0.259 -0.4492  1.2809 -0.2597
    9MOL   H261 4917   0.041   2.063   0.370 -0.4339  1.4510  0.5690
    9MOL   H262 4918   0.161   1.941   0.416  0.6782 -0.3755  2.7998
    9MOL   C263 4919   7.635   1.991   0.588 -0.3934 -0.1244 -0.0726
    9MOL   C264 4920   7.578   2.004   0.734 -0.9600  0.0906  0.9710
    9MOL   O265 4921   7.504   2.118   0.758  0.1386  0.0570  0.0704
    9MOL   C266 4922   7.488   1.885   0.768 -0.0950  0.0467  0.2453
    9MOL   O267 4923   7.462   1.900   0.905 -0.0529  0.0142  0.0526
    9MOL   C268 4924   7.390   1.787   0.956  0.2112 -0.1279  0.4829
    9MOL   C269 4925   7.479   1.674   0.999  0.1589 -0.0069 -0.1864
    9MOL   C270 4926   7.403   1.574   1.086 -0.4691 -0.3919 -0.3595
    9MOL   O271 4927   7.496   1.465   1.106 -0.5259  0.4202  0.1024
    9MOL   C272 4928   7.439   1.370   1.189  0.4043 -0.5510  0.2103
    9MOL   O273 4929   7.347   1.292   1.113 -0.0780 -0.2094  0.4162
    9MOL   C274 4930   7.554   1.289   1.239 -0.4635  0.5010  0.4498
    9MOL   O275 4931   7.504   1.210   1.345 -0.5304 -0.6157 -0.4988
    9MOL   H276 4932   7.642   1.888   0.554  2.0494 -0.5356  1.5401
    9MOL   H277 4933   7.576   2.050   0.518 -0.4014  1.5828  1.3510
    9MOL   H278 4934   7.656   2.011   0.809  0.0599  1.6042 -0.1924
    9MOL   H279 4935   7.476   2.116   0.848  1.9397  1.9984  0.7013
    9MOL   H280 4936   7.390   1.884   0.721  0.4975  0.3632 -1.0054
    9MOL   H281 4937   7.547   1.797   0.742  1.6070  0.9635  0.8717
    9MOL   H282 4938   7.311   1.752   0.889  1.6342 -3.9757  0.6691
    9MOL   H283 4939   7.340   1.821   1.046  1.0513  0.5057  0.7171
    9MOL   H284 4940   7.571   1.702   1.051  0.0065 -2.1434  1.2923
    9MOL   H285 4941   7.516   1.619   0.912 -0.4419 -0.2012 -0.3242
    9MOL   H286 4942   7.393   1.626   1.181  0.3512  2.0654 -1.5655
    9MOL   H287 4943   7.311   1.542   1.036 -0.0794 -1.5270 -0.3622
    9MOL   H288 4944   7.397   1.418   1.278  0.0868 -0.7617  0.1778
    9MOL   H289 4945   7.357   1.203   1.144 -0.9344 -0.0009  1.3442
    9MOL   H290 4946   7.582   1.220   1.159 -0.9264 -0.7186  1.3413
    9MOL   H291 4947   7.637   1.356   1.261 -0.2961 -0.1805  1.8925
    9MOL   C292 4948   7.547   1.268   1.470 -0.6490  0.2086  0.2282
    9MOL   C293 4949   7.496   1.181   1.578 -0.1001 -0.5729 -0.9359
    9MOL   O294 4950   7.362   1.216   1.604  0.0645 -0.1995  0.4782
    9MOL   C295 4951   7.517   1.030   1.561  0.0809  0.0367  0.2188
    9MOL   O296 4952   7.477   0.974   1.678  0.6918 -0.4916 -0.1047
    9MOL   C297 4953   7.580   0.947   1.777  0.3200  0.4064 -0.1861
    9MOL   C298 4954   7.546   0.814   1.853 -0.9429  0.0035  0.6782
    9MOL   C299 4955   7.646   0.761   1.954 -0.9122  0.2768 -0.0837
    9MOL   O300 4956   7.627   0.625   1.990  0.1868 -0.5892  0.0436
    9MOL   C301 4957   0.034   0.579   2.074 -0.5316 -1.1339  0.1350
    9MOL   O302 4958   7.665   0.495   2.167  0.0556 -0.8537 -0.1304
    9MOL   C303 4959   0.127   0.489   1.997  0.3679 -0.4670 -0.5686
    9MOL   O304 4960   0.207   0.558   1.906  0.0207  0.2329 -0.1813
    9MOL   H305 4961   7.655   1.275   1.480 -0.7476  2.3292 -0.0404
    9MOL   H306 4962   7.524   1.371   1.498 -0.5832  0.0700  0.8010
    9MOL   H307 4963   7.544   1.204   1.673 -0.4698 -0.7285 -0.7094
    9MOL   H308 4964   7.310   1.190   1.529 -0.6127  1.4212  0.3755
    9MOL   H309 4965   7.451   0.993   1.482 -0.4573 -2.6412  1.8373
    9MOL   H310 4966   7.618   1.002   1.532  0.2759 -1.1192  1.8964
    9MOL   H311 4967   7.580   1.035   1.843 -0.1146  0.4207 -0.2043
    9MOL   H312 4968   7.678   0.932   1.733  0.5174 -1.5177  0.8541
    9MOL   H313 4969   7.530   0.742   1.773 -1.0456  0.3289  0.4060
    9MOL   H314 4970   7.449   0.819   1.903 -0.6134  0.2919  1.2939
    9MOL   H315 4971   0.055   0.777   1.924 -0.4356  2.3559  2.4251
    9MOL   H316 4972   7.655   0.817   2.047 -0.3449  0.7022 -0.3917
    9MOL   H317 4973   0.077   0.662   2.131  0.0874  1.3728 -3.8009
    9MOL   H318 4974   7.671   0.410   2.126 -0.1575  0.9344 -4.1054
    9MOL   H319 4975   0.078   0.404   1.950  3.8835 -2.4391 -0.8516
    9MOL   H320 4976   0.196   0.448   2.071 -0.5501  0.0916  0.6263
    9MOL   C321 4977   0.168   0.544   1.770  0.6784 -0.6027  0.3035
    9MOL   C322 4978   0.254   0.609   1.668 -0.0335 -1.1194  0.0771
    9MOL   O323 4979   0.203   0.736   1.637  0.8842  0.5715  0.2839
    9MOL   C324 4980   0.393   0.617   1.724 -0.2353 -0.7404  0.0274
    9MOL   O325 4981   0.471   0.632   1.605 -0.0333  0.3568  0.3920
    9MOL   C326 4982   0.506   0.762   1.570  0.3274  0.2460  0.5170
    9MOL   C327 4983   0.579   0.753   1.437  0.2222  0.0108 -0.1284
    9MOL   C328 4984   0.728   0.710   1.452 -0.2234  0.1569 -0.4166
    9MOL   O329 4985   0.789   0.728   1.327 -0.2251 -0.6439  0.0683
    9MOL   C330 4986   0.927   0.738   1.331  0.3667  0.1944 -0.1525
    9MOL   O331 4987   0.987   0.619   1.371 -0.1049 -0.0129  0.1584
    9MOL   C332 4988   0.976   0.783   1.196 -0.2107 -0.1924 -0.1772
    9MOL   O333 4989   1.099   0.856   1.202 -0.0929  0.0539 -0.9553
    9MOL   H334 4990   0.070   0.587   1.753  1.4165  0.7712 -0.5758
    9MOL   H335 4991   0.166   0.439   1.740 -0.9729 -0.0272 -1.7015
    9MOL   H336 4992   0.255   0.541   1.583 -1.5673  1.6284 -2.2191
    9MOL   H337 4993   0.253   0.799   1.686 -0.4030  1.2255  0.7753
    9MOL   H338 4994   0.422   0.530   1.782  2.2318 -0.0927 -0.1792
    9MOL   H339 4995   0.407   0.695   1.799 -1.4082 -1.4238  0.9469
    9MOL   H340 4996   0.570   0.815   1.640  1.2383  0.7328 -0.6648
    9MOL   H341 4997   0.418   0.823   1.550  0.3258  0.2302  0.4759
    9MOL   H342 4998   0.533   0.682   1.368  2.0379 -0.1667 -1.1745
    9MOL   H343 4999   0.578   0.852   1.391 -1.3092 -0.4293 -1.0824
    9MOL   H344 5000   0.769   0.781   1.524 -1.1174  0.2099  0.0627
    9MOL   H345 5001   0.748   0.610   1.493  1.0753 -0.5117 -2.6346
    9MOL   H346 5002   0.959   0.820   1.396 -3.5036 -0.0984  2.2804
    9MOL   H347 5003   1.018   0.574   1.293  0.6351  0.3650  0.2252
    9MOL   H348 5004   0.989   0.702   1.124  0.5412 -0.3719  0.1557
    9MOL   H349 5005   0.899   0.843   1.148 -0.9063 -0.3171  0.7580
    9MOL   C350 5006   1.187   0.824   1.092  0.8018 -0.2415 -0.4776
    9MOL   C351 5007   1.295   0.934   1.084  0.1394 -0.1677 -0.3276
    9MOL   O352 5008   1.222   1.054   1.068  0.1247  0.8177  0.2179
    9MOL   C353 5009   1.372   0.952   1.218 -0.4181  0.2448  0.0747
    9MOL   O354 5010   1.484   1.029   1.186 -0.2565  0.0664  0.2778
    9MOL   C355 5011   1.551   1.055   1.303 -0.1762 -0.7581  0.2689
    9MOL   C356 5012   1.690   1.129   1.286  0.2796  0.6349  0.2298
    9MOL   C357 5013   1.803   1.041   1.246  0.1188  0.5736 -0.3004
    9MOL   O358 5014   1.833   0.937   1.341 -0.7585 -0.4098  0.0878
    9MOL   C359 5015   1.951   0.873   1.302  0.6186  0.1136  0.3363
    9MOL   O360 5016   2.064   0.943   1.339 -0.9628  0.1388  0.0446
    9MOL   C361 5017   1.937   0.731   1.365  0.1167 -0.2671  0.3604
    9MOL   O362 5018   1.853   0.648   1.280  0.0489  0.3667 -0.2276
    9MOL   H363 5019   1.125   0.822   1.002 -0.0483 -2.1163  0.1274
    9MOL   H364 5020   1.238   0.727   1.088  0.1417 -0.6572  1.0314
    9MOL   H365 5021   1.349   0.929   0.990  0.0351 -1.3288 -0.3374
    9MOL   H366 5022   1.170   1.049   1.146  0.5876  1.1560  0.5466
    9MOL   H367 5023   1.317   1.002   1.299  1.1822  0.1271  1.2603
    9MOL   H368 5024   1.402   0.857   1.264 -0.9621 -0.7619 -1.6145
    9MOL   H369 5025   1.579   0.960   1.349  1.0589 -0.3713  0.3412
    9MOL   H370 5026   1.502   1.117   1.378 -0.9871 -2.4201  1.1369
    9MOL   H371 5027   1.732   1.186   1.370  0.0442 -0.7309  1.2847
    9MOL   H372 5028   1.681   1.203   1.206  2.4141 -0.0579 -0.7018
    9MOL   H373 5029   1.773   0.998   1.150 -3.6129  1.1119  0.5498
    9MOL   H374 5030   1.888   1.108   1.237  0.1471  0.6484  0.5336
    9MOL   H375 5031   1.947   0.855   1.194 -1.7587 -0.0152  0.4309
    9MOL   H376 5032   2.131   0.876   1.336 -1.9125 -0.8709  1.0060
    9MOL   H377 5033   2.036   0.686   1.361  0.6035  0.9529 -2.0070
    9MOL   H378 5034   1.911   0.740   1.471  2.1775  0.8039  0.7978
    9MOL   C379 5035   1.720   0.637   1.329 -0.1265  0.1836 -0.0224
    9MOL   C380 5036   1.663   0.502   1.275 -0.1068 -0.1486  0.0297
    9MOL   O381 5037   1.725   0.397   1.350 -0.2654 -0.2403 -0.3283
    9MOL   C382 5038   1.506   0.478   1.281 -0.0294  0.1577  0.1317
    9MOL   O383 5039   1.460   0.496   1.408  0.2361 -0.2236  0.2305
    9MOL   C384 5040   1.321   0.518   1.427 -0.4366 -0.3038  0.6287
    9MOL   C385 5041   1.312   0.585   1.560 -0.4296 -0.9358  0.0523
    9MOL   C386 5042   1.352   0.491   1.670 -0.3230  1.0864 -0.1358
    9MOL   O387 5043   1.347   0.573   1.787  0.4525 -0.0126  0.5703
    9MOL   C388 5044   1.360   0.500   1.908 -0.5561 -1.1493  0.1351
    9MOL   O389 5045   1.491   0.456   1.940  0.4895 -0.5226 -0.4207
    9MOL   C390 5046   1.308   0.594   2.018 -0.0781  0.1821  0.9068
    9MOL   O391 5047   1.280   0.521   2.136  0.0019 -0.1470  0.0391
    9MOL   H392 5048   1.662   0.719   1.287  0.1501 -0.6680 -2.1502
    9MOL   H393 5049   1.714   0.636   1.438 -0.5778 -0.3881 -0.0459
    9MOL   H394 5050   1.695   0.503   1.171  0.2069 -0.5612  0.1233
    9MOL   H395 5051   1.665   0.383   1.423  1.0834 -0.3421  0.7840
    9MOL   H396 5052   1.455   0.554   1.222  2.0445  1.7092  0.2739
    9MOL   H397 5053   1.480   0.379   1.244 -1.4417 -0.0267  1.5753
    9MOL   H398 5054   1.263   0.427   1.413  0.9618 -0.8438 -1.8556
    9MOL   H399 5055   1.292   0.591   1.351 -0.9859 -0.9501  0.2055
    9MOL   H400 5056   1.208   0.618   1.572 -0.6448 -2.3670  2.2695
    9MOL   H401 5057   1.374   0.675   1.554 -1.1008 -0.5634 -1.4709
    9MOL   H402 5058   1.286   0.405   1.676  3.0787 -1.6455 -0.7241
    9MOL   H403 5059   1.450   0.446   1.657 -0.3247  0.0550  3.0571
    9MOL   H404 5060   1.301   0.408   1.902  1.5151 -2.4234 -1.9461
    9MOL   H405 5061   1.485   0.366   1.967  0.5469 -0.0388  1.2191
    9MOL   H406 5062   1.378   0.675   2.038  0.4059  0.4170 -1.5881
    9MOL   H407 5063   1.222   0.655   1.990 -0.5375 -0.0513  1.7610
    9MOL   C408 5064   1.205   0.596   2.233 -0.6015  0.5043 -0.5980
    9MOL   C409 5065   1.291   0.692   2.318  0.0863  0.8582 -0.8200
    9MOL   O410 5066   1.357   0.616   2.418  0.2147 -0.2740  0.4417
    9MOL   C411 5067   1.219   0.791   2.399 -0.5569 -0.5037  0.2437
    9MOL   O412 5068   1.222   0.919   2.328 -0.4761 -0.1403  0.2289
    9MOL   C413 5069   1.156   1.031   2.386  0.1591 -0.0899  0.0849
    9MOL   C414 5070   1.267   1.127   2.423 -0.5981 -0.0448  0.4416
    9MOL   C415 5071   1.321   1.126   2.563 -0.0772  0.5768 -0.1606
    9MOL   O416 5072   1.435   1.215   2.583  0.3398  0.4759 -0.0950
    9MOL   C417 5073   1.506   1.192   2.697 -0.2454 -0.2587 -0.3490
    9MOL   O418 5074   1.434   1.205   2.820  0.2446 -0.4986 -0.2253
    9MOL   C419 5075   1.604   1.306   2.699 -0.6822 -0.7943 -0.3699
    9MOL   O420 5076   1.545   1.433   2.704 -0.2092  0.0960  0.0485
    9MOL   H421 5077   1.144   0.527   2.291 -0.5205  1.2801  0.4136
    9MOL   H422 5078   1.132   0.657   2.180  0.9609  3.9638  1.1045
    9MOL   H423 5079   1.373   0.734   2.260  0.3747  0.3905 -0.7544
    9MOL   H424 5080   1.288   0.580   2.472 -1.5085  1.1952 -0.7085
    9MOL   H425 5081   1.118   0.756   2.422  0.7120 -2.9573  2.3394
    9MOL   H426 5082   1.271   0.813   2.492 -0.6031  0.6547  0.0130
    9MOL   H427 5083   1.078   1.060   2.315 -3.0373 -3.9689  1.8088
    9MOL   H428 5084   1.110   1.006   2.482  4.2604  2.0296  2.7454
    9MOL   H429 5085   1.222   1.226   2.414 -1.8842 -0.7182 -0.8943
    9MOL   H430 5086   1.346   1.132   2.348 -1.2991 -0.1042 -0.3213
    9MOL   H431 5087   1.237   1.131   2.632  0.3314 -1.3049  0.5015
    9MOL   H432 5088   1.350   1.025   2.591 -1.0864  0.8801  2.1622
    9MOL   H433 5089   1.554   1.094   2.702  1.7810  0.6242 -1.6929
    9MOL   H434 5090   1.434   1.298   2.839 -1.1334 -0.1216 -1.9177
    9MOL   H435 5091   1.659   1.287   2.791  0.5776 -0.1680 -0.9796
    9MOL   H436 5092   1.679   1.303   2.620 -2.2488  1.2460 -1.9666
    9MOL   C437 5093   1.626   1.550   2.728 -0.1130 -0.6125  0.2258
    9MOL   C438 5094   1.701   1.591   2.601  0.6642 -0.6129 -0.3776
    9MOL   O439 5095   1.784   1.699   2.640 -0.3539 -0.1691 -0.2585
    9MOL   C440 5096   1.613   1.633   2.480 -0.5054  0.4989  0.4566
    9MOL   O441 5097   1.698   1.650   2.367 -0.5090 -0.2285  0.4318
    9MOL   C442 5098   1.733   1.778   2.338  0.2870  0.1854 -0.1536
    9MOL   C443 5099   1.835   1.776   2.226  0.2479 -0.7638 -0.3468
    9MOL   C444 5100   1.770   1.746   2.091  0.2993 -0.2125  0.1885
    9MOL   O445 5101   1.857   1.760   1.975  0.0957  0.1343 -0.2867
    9MOL   C446 5102   1.787   1.776   1.851 -0.0834  0.5135  0.7553
    9MOL   O447 5103   1.694   1.884   1.843 -0.6267 -0.8745  0.0243
    9MOL   C448 5104   1.712   1.643   1.821 -0.3945 -0.0745  0.0985
    9MOL   O449 5105   1.695   1.624   1.683  0.2953 -0.0848 -0.1110
    9MOL   H450 5106   1.550   1.619   2.761 -0.3624 -0.9318  0.3220
    9MOL   H451 5107   1.713   1.531   2.790  0.7703 -0.5738 -0.9713
    9MOL   H452 5108   1.771   1.508   2.584  0.5702 -1.2148  1.9606
    9MOL   H453 5109   1.733   1.774   2.666  0.9888  1.0797 -1.1305
    9MOL   H454 5110   1.536   1.559   2.457 -2.3527  2.0932  1.3007
    9MOL   H455 5111   1.569   1.730   2.505 -1.4664  0.1125  0.3123
    9MOL   H456 5112   1.769   1.831   2.426 -2.9187 -0.8043  1.8344
    9MOL   H457 5113   1.643   1.834   2.314 -0.5020 -0.9158  0.2063
    9MOL   H458 5114   1.914   1.706   2.252  0.7071  0.5878  1.9446
    9MOL   H459 5115   1.872   1.878   2.219 -0.9545 -0.4153 -2.2206
    9MOL   H460 5116   1.727   1.646   2.089  1.2420 -0.6105 -2.2475
    9MOL   H461 5117   1.682   1.806   2.068  0.0269 -0.6417  0.1159
    9MOL   H462 5118   1.867   1.787   1.779  1.9641  1.2619  3.0741
    9MOL   H463 5119   1.680   1.913   1.754  0.4903 -0.6633 -0.0809
    9MOL   H464 5120   1.782   1.563   1.845  0.7986  0.9924  0.2137
    9MOL   H465 5121   1.614   1.646   1.867 -0.8850 -1.3947 -0.8204
    9MOL   C466 5122   1.655   1.487   1.652 -0.2699 -0.4236  0.1324
    9MOL   C467 5123   1.603   1.485   1.504  0.7040  0.8954  0.1618
    9MOL   O468 5124   1.474   1.539   1.518 -0.2771  0.1490  0.0499
    9MOL   C469 5125   1.694   1.566   1.402 -0.8313 -0.2089  0.0952
    9MOL   O470 5126   1.679   1.524   1.265 -0.1788 -0.3321 -0.4911
    9MOL   C471 5127   1.781   1.587   1.186 -0.1601  0.4194 -0.6830
    9MOL   C472 5128   1.781   1.531   1.046  0.4741  0.2029  0.3132
    9MOL   C473 5129   1.886   1.600   0.950  0.4317 -0.4798  0.2537
    9MOL   O474 5130   1.909   1.519   0.832  0.5191  0.3055  0.1391
    9MOL   C475 5131   1.996   1.565   0.735 -0.1049  1.2174 -0.6192
    9MOL   O476 5132   1.930   1.679   0.667 -0.0856  0.3466  0.0175
    9MOL   C477 5133   2.020   1.452   0.630 -0.0864  0.1029  0.3688
    9MOL   O478 5134   2.109   1.350   0.679  0.5199 -0.3833 -0.2021
    9MOL   H479 5135   1.577   1.454   1.721 -0.3538  1.4022  0.9321
    9MOL   H480 5136   1.744   1.425   1.653 -2.5088 -3.7894  2.1393
    9MOL   H481 5137   1.596   1.380   1.475 -4.1977  0.5123  2.2778
    9MOL   H482 5138   1.503   1.627   1.538  0.8470 -0.3241  0.5482
    9MOL   H483 5139   1.684   1.673   1.421 -0.6330 -0.0316 -0.7724
    9MOL   H484 5140   1.798   1.542   1.426 -0.6155  1.4023  0.8408
    9MOL   H485 5141   1.881   1.580   1.228  0.4729  3.0854 -1.6690
    9MOL   H486 5142   1.757   1.693   1.187 -1.2435  0.1814 -0.8627
    9MOL   H487 5143   1.681   1.540   1.003  0.8300 -0.0449 -0.5758
    9MOL   H488 5144   1.783   1.422   1.047 -3.5225  0.0081 -1.0415
    9MOL   H489 5145   1.868   1.696   0.902 -1.2984 -1.6841 -1.6011
    9MOL   H490 5146   1.980   1.615   1.003 -0.5557  0.4165  1.7699
    9MOL   H491 5147   2.085   1.594   0.790  0.2141  0.6285 -0.8314
    9MOL   H492 5148   1.848   1.645   0.634 -0.3094 -0.8334  1.7160
    9MOL   H493 5149   1.925   1.412   0.596  0.0527 -0.2599  0.4032
    9MOL   H494 5150   2.056   1.490   0.535 -0.2257 -1.3111 -0.2622
    9MOL   C495 5151   2.130   1.252   0.583  0.1465 -0.0612 -0.1972
    9MOL   C496 5152   2.216   1.150   0.647 -0.0913 -0.0569 -0.6022
    9MOL   O497 5153   2.327   1.228   0.681 -0.1769 -0.0338  0.1781
    9MOL   C498 5154   2.161   1.076   0.773  0.0632  0.3860  0.0109
    9MOL   O499 5155   2.030   1.049   0.776  0.3353 -0.5417  0.1253
    9MOL   C500 5156   1.944   1.136   0.843 -0.1195 -0.0001 -0.4083
    9MOL   C501 5157   1.798   1.089   0.843 -0.3608 -0.1380 -0.5437
    9MOL   C502 5158   1.707   1.192   0.897  0.5614  0.3452  0.0809
    9MOL   O503 5159   1.575   1.146   0.877 -0.0304 -0.8734  0.2112
    9MOL   C504 5160   1.476   1.242   0.877  0.5120 -0.0699 -0.2844
    9MOL   O505 5161   1.431   1.256   1.014  0.1255 -0.1649 -0.3558
    9MOL   C506 5162   1.351   1.200   0.799 -0.2960 -0.0004 -0.2496
    9MOL   O507 5163   1.380   1.216   0.660  0.1533 -0.1926  0.0618
    9MOL   H508 5164   2.181   1.288   0.494  1.6444 -2.4744 -0.3656
    9MOL   H509 5165   2.037   1.206   0.549 -1.6999  1.1458  3.0105
    9MOL   H510 5166   2.239   1.075   0.571 -0.4553  0.4748 -1.2350
    9MOL   H511 5167   2.283   1.310   0.694 -0.5281 -0.2457  0.3353
    9MOL   H512 5168   2.204   0.976   0.783 -0.4875  0.4163  3.0702
    9MOL   H513 5169   2.204   1.117   0.864  0.0955  1.3131 -0.4170
    9MOL   H514 5170   1.959   1.244   0.832 -1.2548  0.2765  0.6318
    9MOL   H515 5171   1.973   1.123   0.947 -1.5758 -0.9350 -0.1083
    9MOL   H516 5172   1.783   0.999   0.903  2.8169  0.5805  1.4369
    9MOL   H517 5173   1.770   1.066   0.740 -1.5229  0.4831 -0.3775
    9MOL   H518 5174   1.720   1.210   1.004 -0.8120  0.1839  0.2814
    9MOL   H519 5175   1.719   1.286   0.844 -1.3748 -0.0126 -1.0217
    9MOL   H520 5176   1.504   1.344   0.852  1.6480 -0.0674  0.9516
    9MOL   H521 5177   1.382   1.176   1.024  0.9255 -0.8158 -1.5613
    9MOL   H522 5178   1.329   1.097   0.831  1.3852  0.2836  1.9174
    9MOL   H523 5179   1.269   1.260   0.838 -1.3591 -2.0560  0.8119
    9MOL   C524 5180   1.266   1.201   0.572  0.2962 -0.5053 -0.1046
    9MOL   C525 5181   1.295   1.162   0.429 -0.0141  0.4502  0.5131
    9MOL   O526 5182   1.202   1.215   0.338 -0.6478  0.4672 -0.3552
    9MOL   C527 5183   1.313   1.005   0.424 -0.0275 -0.5814  0.6550
    9MOL   O528 5184   1.382   0.968   0.309  0.4598 -0.3355  0.4972
    9MOL   C529 5185   1.398   0.823   0.294  0.3370  0.0093  0.2702
    9MOL   C530 5186   1.479   0.787   0.167  0.3457  0.4776 -0.4762
    9MOL   C531 5187   1.482   0.637   0.145 -0.5811  0.0396 -0.0136
    9MOL   O532 5188   1.581   0.605   0.046 -0.1133  0.3222 -0.0222
    9MOL   C533 5189   1.525   0.528   7.643 -0.6910  0.0616  0.6971
    9MOL   O534 5190   1.425   0.600   7.572 -0.8965  0.6999  0.0838
    9MOL   C535 5191   1.640   0.473   7.549  0.0625  0.8231  0.9826
    9MOL   O536 5192   1.687   0.349   7.607  0.1614 -0.0887  0.1508
    9MOL   H537 5193   1.230   1.304   0.573  0.1099 -0.5640 -0.6025
    9MOL   H538 5194   1.180   1.144   0.605 -1.4168  2.5125  0.8984
    9MOL   H539 5195   1.385   1.209   0.391  0.0763 -1.2907 -1.5382
    9MOL   H540 5196   1.224   1.185   0.252 -1.5653 -0.2395 -0.3493
    9MOL   H541 5197   1.376   0.989   0.511  1.2883 -1.2567 -0.3963
    9MOL   H542 5198   1.217   0.954   0.414  0.0137 -0.3537 -1.0723
    9MOL   H543 5199   1.300   0.777   0.292  0.3455  0.0065 -1.9371
    9MOL   H544 5200   1.451   0.781   0.378  0.2866 -0.1246  0.2343
    9MOL   H545 5201   1.576   0.833   0.177  0.2613  1.3508 -3.1909
    9MOL   H546 5202   1.433   0.834   0.080 -1.8596 -2.3240 -0.9394
    9MOL   H547 5203   1.513   0.582   0.233 -0.9814  0.8232  0.6313
    9MOL   H548 5204   1.384   0.600   0.114 -0.2839  2.2697 -4.0235
    9MOL   H549 5205   1.482   0.442   7.694  2.0125 -1.5928  0.3155
    9MOL   H550 5206   1.388   0.537   7.513  3.2803 -1.1613 -0.7916
    9MOL   H551 5207   1.596   0.444   7.453  3.8187  1.3375 -0.9731
    9MOL   H552 5208   1.723   0.541   7.529  0.1191  0.3487 -0.4728
    9MOL   C553 5209   1.824   0.346   7.648  0.6231 -0.0777  0.2544
    9MOL   C554 5210   1.843   0.395   0.099  0.5085  0.3376 -0.4551
    9MOL   O555 5211   1.841   0.534   0.081  0.0748  0.0721 -0.3626
    9MOL   C556 5212   1.983   0.362   0.154 -0.0238 -0.6706  0.0755
    9MOL   O557 5213   1.994   0.223   0.166 -0.1448  0.0639 -0.0355
    9MOL   C558 5214   2.116   0.191   0.224  0.1653 -0.6878  0.3875
    9MOL   C559 5215   2.124   0.041   0.239 -0.5434  0.2163  0.1822
    9MOL   C560 5216   2.241   7.694   0.322 -0.4973 -0.4789 -0.6500
    9MOL   O561 5217   2.355   0.079   0.274  0.1409 -0.1138  0.4086
    9MOL   C562 5218   2.477   0.021   0.297  0.0571  0.1333  0.1519
    9MOL   O563 5219   2.512   7.627   0.190  0.6960 -0.2772  0.0434
    9MOL   C564 5220   2.576   0.133   0.301  0.3266 -0.7496 -0.0097
    9MOL   O565 5221   2.591   0.176   0.169 -0.6044 -0.2790  0.4948
    9MOL   H566 5222   1.881   0.413   7.582 -0.5636  0.8063  0.0984
    9MOL   H567 5223   1.859   0.243   7.648  2.4015  0.5000 -1.2447
    9MOL   H568 5224   1.763   0.363   0.165  0.9568 -0.6473 -0.3803
    9MOL   H569 5225   1.752   0.566   0.074 -0.2068 -0.7814 -0.8599
    9MOL   H570 5226   2.052   0.411   0.085  1.0705 -1.6658  0.4534
    9MOL   H571 5227   1.988   0.419   0.246  1.6285  2.0679 -1.6381
    9MOL   H572 5228   2.200   0.238   0.174  0.2920 -3.1289 -1.7965
    9MOL   H573 5229   2.118   0.238   0.323 -1.2171 -0.7303  0.4559
    9MOL   H574 5230   2.120   7.683   0.144 -0.0017 -0.6487  0.6277
    9MOL   H575 5231   2.032   0.003   0.285 -0.3397  0.2331  0.6035
    9MOL   H576 5232   2.234   0.020   0.429  0.1008  3.1034 -1.2314
    9MOL   H577 5233   2.250   7.586   0.315 -0.0194 -0.5503  0.9826
    9MOL   H578 5234   2.490   7.668   0.395  1.7568  0.8857  0.3090
    9MOL   H579 5235   2.595   7.589   0.215  0.5601 -0.1111  0.7576
    9MOL   H580 5236   2.540   0.221   0.354 -0.7720 -1.3102  0.1796
    9MOL   H581 5237   2.673   0.099   0.338  2.6054  3.7538 -1.5089
    9MOL   H582 5238   2.538   0.108   0.129 -1.2636  0.7534 -0.4038
   10MOL     C1 5239   7.120   3.306   2.283  0.9964  0.0664 -0.1764
   10MOL     C2 5240   7.018   3.208   2.316  0.0876 -0.5438  0.2583
   10MOL     O3 5241   6.981   3.233   2.449 -0.2514 -0.2306  0.7911
   10MOL     C4 5242   6.901   3.215   2.210  0.1842 -0.4343  0.3329
   10MOL     O5 5243   6.832   3.092   2.214 -0.7350  0.2217  0.2291
   10MOL     C6 5244   6.719   3.090   2.128  0.4584 -0.5898  0.3991
   10MOL     C7 5245   6.655   2.956   2.132  0.6966  0.0745 -0.1815
   10MOL     C8 5246   6.515   2.951   2.064  0.6383  0.2036 -0.9950
   10MOL     O9 5247   6.461   2.821   2.068  0.2537 -0.5509 -0.4324
   10MOL    C10 5248   6.332   2.809   2.015  0.4179  0.1109  0.0659
   10MOL    O11 5249   6.242   2.884   2.094  0.6112 -0.5630  0.3894
   10MOL    C12 5250   6.288   2.659   2.022 -0.5221 -0.0862  0.1603
   10MOL    O13 5251   6.269   2.602   1.893 -0.4644  0.3228  0.2789
   10MOL    H14 5252   7.177   3.323   2.375  1.2713 -0.4000 -0.2549
   10MOL    H15 5253   7.073   3.400   2.255  0.8377 -0.4180 -1.5738
   10MOL    H16 5254   7.066   3.111   2.298 -0.1130 -0.4355 -0.9428
   10MOL    H17 5255   6.947   3.154   2.488  1.6022 -0.5764  1.7445
   10MOL    H18 5256   6.836   3.299   2.236  1.2860  0.0860  1.4695
   10MOL    H19 5257   6.942   3.219   2.109 -0.2605  1.3068  0.2014
   10MOL    H20 5258   6.727   3.125   2.024  1.8452 -0.3144  0.5789
   10MOL    H21 5259   6.638   3.149   2.171  0.9347  1.0250 -0.8256
   10MOL    H22 5260   6.651   2.913   2.232  0.6266  0.1830 -0.1388
   10MOL    H23 5261   6.721   2.900   2.065  1.1316  1.4260 -0.8970
   10MOL    H24 5262   6.449   3.017   2.120 -0.0316 -2.6143  1.6729
   10MOL    H25 5263   6.525   2.992   1.963  1.7625 -3.3906 -2.4386
   10MOL    H26 5264   6.319   2.840   1.911 -0.4304 -0.6131 -0.0534
   10MOL    H27 5265   6.271   2.874   2.183  1.3232 -1.7865  0.0254
   10MOL    H28 5266   6.356   2.597   2.081 -2.4179 -1.8790  0.5062
   10MOL    H29 5267   6.195   2.645   2.077 -0.4450 -2.1137 -0.1815
   10MOL    H30 5268   7.174   3.292   2.189  0.2378  1.9207 -0.9030
   10MOL    C31 5269   6.380   2.523   1.844 -0.3536  0.2218 -0.3618
   10MOL    C32 5270   6.375   2.514   1.688  0.2148 -0.2342  0.2085
   10MOL    O33 5271   6.485   2.433   1.648 -0.5460 -0.1838 -0.4848
   10MOL    C34 5272   6.380   2.648   1.624  0.2524  0.0884  0.4756
   10MOL    O35 5273   6.498   2.720   1.664 -0.3138 -0.4160  0.6231
   10MOL    C36 5274   6.495   2.858   1.627  0.1130 -0.4847  0.1633
   10MOL    C37 5275   6.623   2.925   1.668 -0.3925  0.8559  0.4104
   10MOL    C38 5276   6.619   3.076   1.661  1.0904 -0.6162  0.1545
   10MOL    O39 5277   6.757   3.122   1.677  0.7251  0.0117  0.3739
   10MOL    C40 5278   6.783   3.261   1.653  0.3728 -0.6415 -0.5026
   10MOL    O41 5279   6.921   3.284   1.605  0.4608  0.3090  0.0105
   10MOL    C42 5280   6.754   3.353   1.777 -0.1224 -0.0068 -0.0174
   10MOL    O43 5281   6.620   3.360   1.801 -0.2782  0.7579 -0.0911
   10MOL    H44 5282   6.475   2.568   1.873 -0.6099  0.7033 -0.2649
   10MOL    H45 5283   6.375   2.426   1.893  1.4155 -1.0452 -2.5705
   10MOL    H46 5284   6.278   2.476   1.656  1.1965 -2.6867  0.0338
   10MOL    H47 5285   6.556   2.494   1.655 -1.6001  0.8292  1.5529
   10MOL    H48 5286   6.386   2.629   1.516  2.5697 -0.0945  0.6107
   10MOL    H49 5287   6.291   2.706   1.645  0.5199 -0.3881  3.0234
   10MOL    H50 5288   6.412   2.909   1.677  0.1325  0.8152 -1.0911
   10MOL    H51 5289   6.498   2.882   1.520 -0.3486 -2.0069 -0.1970
   10MOL    H52 5290   6.700   2.870   1.614 -1.2555  0.6865 -0.6531
   10MOL    H53 5291   6.639   2.906   1.774  2.0850  0.8759  0.0736
   10MOL    H54 5292   6.585   3.102   1.560  1.2021 -0.0953  0.2504
   10MOL    H55 5293   6.548   3.117   1.733 -0.1997  2.0547 -2.5111
   10MOL    H56 5294   6.717   3.297   1.574 -1.9135 -1.8067  0.8281
   10MOL    H57 5295   6.905   3.256   1.516 -0.3675 -2.3622  0.9282
   10MOL    H58 5296   6.790   3.294   1.861  0.4330 -1.3905 -1.2031
   10MOL    H59 5297   6.802   3.451   1.770 -0.4799  0.2827  1.3774
   10MOL    C60 5298   6.595   3.448   1.902  0.3722  0.3040 -0.2010
   10MOL    C61 5299   6.440   3.468   1.915 -0.2460 -0.4728 -0.0194
   10MOL    O62 5300   6.398   3.593   1.959 -1.1803  0.0513  0.0335
   10MOL    C63 5301   6.372   3.363   2.004 -0.1279 -0.1162 -0.1649
   10MOL    O64 5302   6.398   3.375   2.144 -0.0963  0.0144  0.0835
   10MOL    C65 5303   6.294   3.325   2.225 -0.3391  0.4544 -0.1013
   10MOL    C66 5304   6.333   3.375   2.365  0.5854 -0.0221 -0.4269
   10MOL    C67 5305   6.234   3.335   2.471 -0.3221  0.2320 -0.1481
   10MOL    O68 5306   6.283   3.373   2.603  0.0975 -0.2220 -0.2717
   10MOL    C69 5307   6.223   3.311   2.714  0.4045 -0.0381 -0.5800
   10MOL    O70 5308   6.233   3.175   2.716 -0.8618  0.8188  0.4672
   10MOL    C71 5309   6.273   3.371   2.846  0.2183 -0.1341  0.2618
   10MOL    O72 5310   6.243   3.507   2.857  0.4921 -0.0858 -0.2724
   10MOL    H73 5311   6.644   3.545   1.899  2.8276 -0.8157  1.0152
   10MOL    H74 5312   6.623   3.394   1.993 -0.5590  0.4830  0.1972
   10MOL    H75 5313   6.407   3.448   1.814 -0.3352 -2.1607  0.3347
   10MOL    H76 5314   6.441   3.619   2.039 -0.9549 -1.5754  0.4493
   10MOL    H77 5315   6.266   3.373   1.983 -0.0274 -2.5462 -2.0277
   10MOL    H78 5316   6.398   3.261   1.974  1.9354  0.5496 -0.7940
   10MOL    H79 5317   6.275   3.218   2.234  3.6411 -0.4042 -1.0507
   10MOL    H80 5318   6.197   3.368   2.199 -0.9532 -0.7764  0.1066
   10MOL    H81 5319   6.336   3.483   2.373 -2.2029  0.0899 -0.5159
   10MOL    H82 5320   6.429   3.328   2.387  0.4720  0.4399  1.0774
   10MOL    H83 5321   6.206   3.230   2.470 -1.8663  0.6243 -0.4688
   10MOL    H84 5322   6.143   3.394   2.459 -0.4683  0.0764  0.1816
   10MOL    H85 5323   6.114   3.322   2.714  0.3918 -0.0720  0.8310
   10MOL    H86 5324   6.192   3.139   2.638  0.0986 -0.2887  0.4739
   10MOL    H87 5325   6.222   3.319   2.926  0.9545 -0.4892  0.5113
   10MOL    H88 5326   6.380   3.356   2.861 -0.2354 -1.3989  2.2943
   10MOL    C89 5327   6.335   3.596   2.794 -1.1768  0.0508  0.3407
   10MOL    C90 5328   6.281   3.741   2.771  0.3843 -0.6376  0.5938
   10MOL    O91 5329   6.263   3.802   2.894 -0.8742 -0.0335  0.4216
   10MOL    C92 5330   6.372   3.839   2.688  0.4640 -0.2352 -0.3867
   10MOL    O93 5331   6.423   3.780   2.564 -0.4699  0.1085 -0.1779
   10MOL    C94 5332   6.508   3.860   2.484  0.0174 -0.7507 -0.5784
   10MOL    C95 5333   6.448   3.970   2.398 -0.3167  0.9167  0.3897
   10MOL    C96 5334   6.566   4.034   2.325  0.3255 -0.0211 -0.5496
   10MOL    O97 5335   6.527   4.151   2.257 -0.7971  0.3132 -0.1223
   10MOL    C98 5336   6.537   4.270   2.333 -0.0649 -0.1652  0.0288
   10MOL    O99 5337   6.666   4.300   2.347  0.9276  0.1190  0.0564
   10MOL   C100 5338   6.469   4.389   2.259  0.3992 -0.4713  0.2512
   10MOL   O101 5339   6.350   4.435   2.328  0.0468  0.4339 -0.0929
   10MOL   H102 5340   6.357   3.558   2.694 -1.3663 -0.6734  0.5682
   10MOL   H103 5341   6.430   3.595   2.847 -0.3649 -2.1921 -1.0768
   10MOL   H104 5342   6.184   3.754   2.722  1.2529  0.9180 -0.7400
   10MOL   H105 5343   6.207   3.744   2.942  0.4193 -0.8944  0.9044
   10MOL   H106 5344   6.342   3.943   2.674  2.6153  0.6504  1.3618
   10MOL   H107 5345   6.458   3.845   2.754 -0.3426 -1.2858  0.7963
   10MOL   H108 5346   6.558   3.785   2.423  1.8679 -0.6740  0.7956
   10MOL   H109 5347   6.589   3.901   2.544 -1.3321 -0.8585  1.3668
   10MOL   H110 5348   6.380   4.043   2.441 -0.0033  0.3423  1.8759
   10MOL   H111 5349   6.372   3.935   2.328 -0.7990  1.5920  0.5772
   10MOL   H112 5350   6.640   4.052   2.403  0.2446 -1.5931 -0.0986
   10MOL   H113 5351   6.613   3.972   2.249 -0.3821  1.0712 -1.9115
   10MOL   H114 5352   6.490   4.252   2.429 -0.0632  1.8182  0.4300
   10MOL   H115 5353   6.708   4.240   2.407 -1.3653 -1.3715  0.2657
   10MOL   H116 5354   6.539   4.472   2.264 -1.0418  0.7652  0.3019
   10MOL   H117 5355   6.464   4.359   2.154 -0.0423  2.3820 -0.5842
   10MOL   C118 5356   6.273   4.503   2.229 -0.1467  0.1394 -0.4261
   10MOL   C119 5357   6.147   4.565   2.291  0.5942  1.1251  0.0572
   10MOL   O120 5358   6.043   4.472   2.268  0.1690  0.1104 -0.6176
   10MOL   C121 5359   6.108   4.697   2.232 -0.0701  0.2621  0.2085
   10MOL   O122 5360   6.112   4.668   2.097  0.1975 -0.7706  0.0674
   10MOL   C123 5361   6.125   4.781   2.015  0.0325  0.0731 -0.0511
   10MOL   C124 5362   6.079   4.761   1.873  0.5432 -0.2714 -0.0191
   10MOL   C125 5363   6.102   4.887   1.787  0.6592  0.0830 -0.0966
   10MOL   O126 5364   6.245   4.896   1.752  0.0945 -0.2500 -0.5342
   10MOL   C127 5365   6.276   5.022   1.720 -1.1382  0.0571  0.6714
   10MOL   O128 5366   6.234   5.043   1.585 -0.3484  0.8600  0.1377
   10MOL   C129 5367   6.429   5.047   1.721  0.2319 -0.0817 -0.0379
   10MOL   O130 5368   6.471   5.097   1.843 -0.1326 -1.0334 -0.5323
   10MOL   H131 5369   6.331   4.587   2.189  0.7501  1.1562  2.8537
   10MOL   H132 5370   6.245   4.429   2.154 -1.1322  2.1380 -2.0660
   10MOL   H133 5371   6.147   4.579   2.399 -1.8819  2.4894 -0.0808
   10MOL   H134 5372   6.007   4.483   2.182  1.3750  0.6485 -1.0632
   10MOL   H135 5373   6.011   4.715   2.278  0.0165  0.8354  0.1746
   10MOL   H136 5374   6.182   4.768   2.268 -0.2157  0.4055  0.2262
   10MOL   H137 5375   6.230   4.809   2.024  0.3302 -1.0426 -0.0501
   10MOL   H138 5376   6.072   4.868   2.055  0.9554  0.0683  1.2215
   10MOL   H139 5377   5.976   4.729   1.866  1.0298 -1.8707  0.0321
   10MOL   H140 5378   6.135   4.675   1.838  1.0598 -0.2721  0.7807
   10MOL   H141 5379   6.035   4.883   1.702  0.5213 -0.2775  0.0289
   10MOL   H142 5380   6.067   4.966   1.854  3.1015  1.8168 -0.7647
   10MOL   H143 5381   6.225   5.096   1.782 -0.2556  1.4121 -0.2118
   10MOL   H144 5382   6.141   5.059   1.584 -0.3580  0.8008 -0.3133
   10MOL   H145 5383   6.491   4.973   1.670  0.6648  0.8759 -0.9258
   10MOL   H146 5384   6.433   5.131   1.652 -3.2486 -0.0062 -0.2195
   10MOL   C147 5385   6.579   5.184   1.827 -0.2786 -0.2478 -0.5624
   10MOL   C148 5386   6.638   5.216   1.969 -0.1596  0.0621 -0.0968
   10MOL   O149 5387   6.541   5.290   2.045 -0.1810  0.2355  0.0607
   10MOL   C150 5388   6.763   5.303   1.963  0.0168 -0.0353  0.1187
   10MOL   O151 5389   6.813   5.316   2.087  0.3311 -0.3395  0.3142
   10MOL   C152 5390   6.942   5.376   2.093  0.0578 -0.3316  0.0817
   10MOL   C153 5391   7.061   5.285   2.060  0.2935  0.5818 -0.0368
   10MOL   C154 5392   7.187   5.366   2.033  0.1556 -0.2555  0.0833
   10MOL   O155 5393   7.292   5.280   2.002 -0.5902 -0.3299  0.3714
   10MOL   C156 5394   7.415   5.329   1.968 -0.3729 -0.3876  0.0845
   10MOL   O157 5395   7.409   5.414   1.856  0.0708 -0.4805  0.3447
   10MOL   C158 5396   7.509   5.210   1.938  0.5273  0.1687 -0.0563
   10MOL   O159 5397   7.599   5.187   2.044 -0.4451 -0.6404  0.5664
   10MOL   H160 5398   6.550   5.281   1.787 -1.7812 -0.7500 -0.7029
   10MOL   H161 5399   6.665   5.139   1.778  1.1994  1.7765  0.0766
   10MOL   H162 5400   6.648   5.126   2.028 -2.4023 -0.1671 -0.0024
   10MOL   H163 5401   6.585   5.370   2.070  0.7152  0.2675 -1.5751
   10MOL   H164 5402   6.842   5.274   1.894  1.9648  1.6187  1.6094
   10MOL   H165 5403   6.736   5.400   1.920  0.2290  0.4887  1.1677
   10MOL   H166 5404   6.956   5.415   2.194 -1.0716 -0.3651  0.2627
   10MOL   H167 5405   6.952   5.457   2.022  0.2968 -0.1702  0.2980
   10MOL   H168 5406   7.050   5.220   1.974  0.8769 -1.3219  1.2925
   10MOL   H169 5407   7.072   5.215   2.143 -1.8008 -0.0828 -0.2773
   10MOL   H170 5408   7.172   5.430   1.946  2.7860  2.5617  1.6256
   10MOL   H171 5409   7.219   5.435   2.110  1.6622 -2.2199  1.2687
   10MOL   H172 5410   7.452   5.386   2.053  0.4337 -2.7086  1.3122
   10MOL   H173 5411   7.378   5.364   1.782  0.1595 -0.5140  0.3313
   10MOL   H174 5412   7.451   5.127   1.899 -1.0693  1.8180 -1.2479
   10MOL   H175 5413   7.573   5.233   1.853 -0.0041 -3.2290 -1.4265
   10MOL   C176 5414   7.552   5.110   2.148  0.3205 -0.7563  0.4990
   10MOL   C177 5415   7.575   4.964   2.118 -0.2784 -0.6185 -0.2729
   10MOL   O178 5416   7.518   4.881   2.213  0.2385  0.1291 -0.1089
   10MOL   C179 5417   0.030   4.933   2.134 -0.2030 -0.6115  0.7889
   10MOL   O180 5418   0.073   4.924   2.277 -0.2434  0.2968 -0.0958
   10MOL   C181 5419   0.205   4.876   2.296  0.2419 -0.5166  0.9804
   10MOL   C182 5420   0.245   4.837   2.441 -0.1897  0.4411  0.3015
   10MOL   C183 5421   0.150   4.736   2.504 -0.6958 -0.3893  0.7191
   10MOL   O184 5422   0.018   4.788   2.516 -0.0065 -0.5564  0.3402
   10MOL   C185 5423   7.611   4.690   2.531 -0.3220  1.3360 -0.8542
   10MOL   O186 5424   7.582   4.621   2.413  1.3745 -0.3566  0.1219
   10MOL   C187 5425   7.484   4.772   2.578  0.4041 -0.0978 -0.2855
   10MOL   O188 5426   7.439   4.871   2.485 -0.2349 -0.0537  0.2239
   10MOL   H189 5427   7.444   5.124   2.158  0.4811  1.4296 -0.5182
   10MOL   H190 5428   7.610   5.145   2.233  2.2140  0.9773 -1.4364
   10MOL   H191 5429   7.527   4.937   2.024 -0.3475  1.1714 -0.7682
   10MOL   H192 5430   7.573   4.881   2.290  1.5462 -0.1767 -1.0318
   10MOL   H193 5431   0.037   4.835   2.088  1.4362  0.6467 -1.7477
   10MOL   H194 5432   0.094   4.994   2.070 -0.6052 -1.2740 -0.2606
   10MOL   H195 5433   0.281   4.939   2.250 -1.0267  0.2824 -0.0468
   10MOL   H196 5434   0.197   4.785   2.237  2.9225  0.5658 -1.1023
   10MOL   H197 5435   0.242   4.926   2.504 -1.7662  0.7256 -0.1688
   10MOL   H198 5436   0.345   4.792   2.442 -0.9734 -1.3346  1.6015
   10MOL   H199 5437   0.162   4.653   2.434  1.9487  1.7434 -1.4488
   10MOL   H200 5438   0.196   4.715   2.600 -0.4558  1.1046  0.9303
   10MOL   H201 5439   7.643   4.620   2.608 -0.2073  0.3358 -1.8034
   10MOL   H202 5440   7.514   4.668   2.366  1.2864 -0.2074  0.3968
   10MOL   H203 5441   7.396   4.710   2.595  0.3025  0.1657  0.1420
   10MOL   H204 5442   7.502   4.823   2.672  0.3349  0.3819 -0.5351
   10MOL   C205 5443   7.323   4.943   2.533  0.8363 -0.5228  0.3367
   10MOL   C206 5444   7.282   5.043   2.428  0.6224 -0.6447  0.2008
   10MOL   O207 5445   7.250   4.962   2.320  0.3594 -1.1428 -0.1182
   10MOL   C208 5446   7.156   5.128   2.466  0.4874  0.6478  0.6498
   10MOL   O209 5447   7.166   5.213   2.580  0.0359 -0.4760  0.1434
   10MOL   C210 5448   7.260   5.313   2.571 -0.1957 -0.2399  0.5434
   10MOL   C211 5449   7.312   5.349   2.715  0.7786  0.1303 -0.3578
   10MOL   C212 5450   7.194   5.373   2.809 -0.2479 -0.1973  0.4882
   10MOL   O213 5451   7.236   5.373   2.940 -0.5697  0.2993  0.0785
   10MOL   C214 5452   7.150   5.441   3.027  0.0087  0.5185 -0.4819
   10MOL   O215 5453   7.184   5.581   3.041  0.5303 -0.1429 -0.4172
   10MOL   C216 5454   7.160   5.370   3.164  0.5531 -0.3648  0.6185
   10MOL   O217 5455   7.084   5.253   3.160  0.7054 -0.3535 -0.6960
   10MOL   H218 5456   7.342   5.002   2.623  3.1048 -0.2154 -0.3190
   10MOL   H219 5457   7.239   4.881   2.566  0.5350  1.3761  3.3710
   10MOL   H220 5458   7.365   5.109   2.403  0.6212 -0.7978 -0.2162
   10MOL   H221 5459   7.326   4.910   2.298  0.7178 -1.2507  1.3584
   10MOL   H222 5460   7.125   5.193   2.384  1.6189 -0.7058 -0.8858
   10MOL   H223 5461   7.079   5.053   2.485  1.3269 -0.6038 -0.8058
   10MOL   H224 5462   7.220   5.394   2.509 -0.3906 -1.4126 -0.8890
   10MOL   H225 5463   7.346   5.275   2.515 -1.0835  1.7977 -2.3477
   10MOL   H226 5464   7.382   5.432   2.710 -0.6057  1.2636 -1.8201
   10MOL   H227 5465   7.369   5.262   2.747  1.7946  0.3993 -1.3996
   10MOL   H228 5466   7.166   5.478   2.797  2.3402  0.4351 -0.2992
   10MOL   H229 5467   7.106   5.314   2.784 -0.1710  0.2894 -0.9776
   10MOL   H230 5468   7.045   5.437   2.997 -0.3712 -2.9880  0.9900
   10MOL   H231 5469   7.267   5.586   3.085  1.1527  2.4876 -1.7947
   10MOL   H232 5470   7.264   5.358   3.196  0.8382  2.7610  1.0017
   10MOL   H233 5471   7.108   5.437   3.233  1.0736 -0.3258  0.9726
   10MOL   C234 5472   7.058   5.212   3.296  0.1136 -1.0268  0.5071
   10MOL   C235 5473   7.048   5.060   3.284  0.3388  0.2901  0.4264
   10MOL   O236 5474   6.954   5.009   3.190 -0.4348 -0.2457  0.0634
   10MOL   C237 5475   7.018   4.996   3.417  0.7325  0.2146  0.3818
   10MOL   O238 5476   7.138   4.996   3.501  0.3821  0.9218 -0.2439
   10MOL   C239 5477   7.114   4.942   3.627 -0.1800 -0.9147 -0.2091
   10MOL   C240 5478   7.212   4.998   3.735 -0.5112  0.0376  0.0805
   10MOL   C241 5479   7.192   4.942   3.878 -0.4552  0.1003  0.1487
   10MOL   O242 5480   7.261   5.012   3.976 -0.4929 -0.9529 -0.0029
   10MOL   C243 5481   7.289   4.962   4.109 -0.3444 -0.1755  0.0240
   10MOL   O244 5482   7.166   4.931   4.170  0.3532 -0.0159  0.5217
   10MOL   C245 5483   7.355   5.083   4.181  0.4763 -0.2474  0.1833
   10MOL   O246 5484   7.475   5.121   4.110  0.3538 -0.1981 -0.2642
   10MOL   H247 5485   7.129   5.249   3.370  0.6643  1.1075 -1.0353
   10MOL   H248 5486   6.968   5.262   3.333 -1.1846 -2.2458 -0.9725
   10MOL   H249 5487   7.151   5.035   3.261  0.4307  1.0807 -0.0277
   10MOL   H250 5488   6.955   5.055   3.107 -1.4661 -0.9804 -0.3704
   10MOL   H251 5489   6.928   5.046   3.453 -0.3819 -0.3158 -1.6301
   10MOL   H252 5490   6.984   4.893   3.405 -0.4571  0.8344 -1.7088
   10MOL   H253 5491   7.117   4.833   3.628  0.5590 -0.8978  0.7428
   10MOL   H254 5492   7.017   4.981   3.658  1.3050  3.7112 -1.0357
   10MOL   H255 5493   7.196   5.106   3.736  0.0632  0.1248  1.2733
   10MOL   H256 5494   7.316   4.997   3.701 -1.1345  2.5270 -2.0226
   10MOL   H257 5495   7.091   4.925   3.914  0.7162 -2.8139  2.3107
   10MOL   H258 5496   7.232   4.840   3.876 -2.3668 -0.7005  1.3349
   10MOL   H259 5497   7.353   4.875   4.102 -1.7044 -1.1642 -0.4380
   10MOL   H260 5498   7.182   4.865   4.236 -0.7159  0.7129  1.5290
   10MOL   H261 5499   7.285   5.166   4.178 -0.7043 -1.2782 -3.6925
   10MOL   H262 5500   7.366   5.063   4.288  3.3408 -1.1657 -0.2470
   10MOL   C263 5501   7.527   5.239   4.167  0.2930 -0.4067  0.2012
   10MOL   C264 5502   7.636   5.315   4.086 -0.2373  0.7019  0.0479
   10MOL   O265 5503   7.692   5.422   4.164  0.0805 -0.0686 -0.0279
   10MOL   C266 5504   0.054   5.227   4.047  0.2947 -0.9412  0.0183
   10MOL   O267 5505   0.153   5.291   3.961  0.2087 -0.1660  0.1919
   10MOL   C268 5506   0.241   5.191   3.908 -0.2884 -0.7913 -0.3087
   10MOL   C269 5507   0.355   5.263   3.829  0.2055  0.2309 -0.4879
   10MOL   C270 5508   0.297   5.323   3.703  0.0916  0.7209  0.4519
   10MOL   O271 5509   0.400   5.377   3.621  0.0036 -0.1635  0.3481
   10MOL   C272 5510   0.379   5.412   3.487  0.4343  0.4350  0.4455
   10MOL   O273 5511   0.342   5.303   3.406  0.1349  0.3709  0.0062
   10MOL   C274 5512   0.266   5.509   3.478 -0.2002  0.0807  0.1236
   10MOL   O275 5513   0.294   5.587   3.364  0.7141 -0.2022  0.7304
   10MOL   H276 5514   7.558   5.209   4.267 -0.6202  1.0705  0.9547
   10MOL   H277 5515   7.450   5.316   4.177  0.3865  0.0905 -2.6006
   10MOL   H278 5516   7.587   5.350   3.995 -0.8542  0.1728  0.1709
   10MOL   H279 5517   0.092   5.421   4.163  0.0742 -0.4450 -0.8218
   10MOL   H280 5518   0.100   5.191   4.139 -0.1994  1.1192  1.0927
   10MOL   H281 5519   0.020   5.138   3.995  3.1943 -1.8063 -0.4902
   10MOL   H282 5520   0.198   5.116   3.842  0.8005 -0.0174 -1.9299
   10MOL   H283 5521   0.286   5.146   3.996 -0.6164 -0.4887  0.0140
   10MOL   H284 5522   0.440   5.205   3.793 -1.2229 -1.2925 -1.4987
   10MOL   H285 5523   0.399   5.331   3.901  1.4678 -2.6591  1.5754
   10MOL   H286 5524   0.238   5.254   3.643  0.2474  0.4214  0.6391
   10MOL   H287 5525   0.233   5.405   3.738  1.7573  0.9638  3.1188
   10MOL   H288 5526   0.469   5.459   3.447  0.2687  2.0615  1.9000
   10MOL   H289 5527   0.404   5.303   3.335  0.5368 -0.5210  0.3437
   10MOL   H290 5528   0.171   5.456   3.478 -0.0008 -0.2921 -1.2470
   10MOL   H291 5529   0.258   5.581   3.560 -3.4473 -1.5136  1.2920
   10MOL   C292 5530   0.187   5.677   3.343 -0.5035 -0.0284 -0.0233
   10MOL   C293 5531   0.238   5.798   3.261  0.1763  0.2711  0.5236
   10MOL   O294 5532   0.348   5.862   3.332  0.2647  0.1776 -0.1108
   10MOL   C295 5533   0.277   5.748   3.122  0.0948 -1.3548 -0.7376
   10MOL   O296 5534   0.255   5.847   3.021 -0.7468 -0.2018  0.2004
   10MOL   C297 5535   0.300   5.798   2.897 -0.0539  0.0059 -0.9882
   10MOL   C298 5536   0.277   5.911   2.799  0.3664 -0.1533 -0.4944
   10MOL   C299 5537   0.335   5.874   2.659  0.1356 -0.1669  0.3875
   10MOL   O300 5538   0.269   5.950   2.564 -0.1837 -0.0641 -0.7382
   10MOL   C301 5539   0.274   5.895   2.440 -0.5648  0.2591  0.1557
   10MOL   O302 5540   0.161   5.816   2.427  0.1213 -0.3789 -0.2326
   10MOL   C303 5541   0.273   6.013   2.335  0.4795 -0.4619 -0.6336
   10MOL   O304 5542   0.411   6.050   2.308 -0.2266 -0.1447  0.5686
   10MOL   H305 5543   0.107   5.616   3.303 -0.6285 -0.8661  1.4774
   10MOL   H306 5544   0.149   5.730   3.431 -0.9192 -0.2963 -0.0425
   10MOL   H307 5545   0.155   5.868   3.258 -0.2437 -0.2834 -1.2323
   10MOL   H308 5546   0.412   5.794   3.348 -0.1143 -0.3468 -0.8137
   10MOL   H309 5547   0.382   5.718   3.116  0.0369 -2.0987  1.3851
   10MOL   H310 5548   0.212   5.662   3.106  0.1197 -2.1626  2.8717
   10MOL   H311 5549   0.241   5.710   2.871 -1.1568 -0.1887  1.9294
   10MOL   H312 5550   0.406   5.771   2.905  0.0761  0.5184 -0.9528
   10MOL   H313 5551   0.319   6.005   2.836 -0.8482  0.1744  0.0862
   10MOL   H314 5552   0.170   5.931   2.792  0.8502  2.7259 -0.5655
   10MOL   H315 5553   0.444   5.882   2.666  0.3933 -1.4105 -1.7760
   10MOL   H316 5554   0.328   5.766   2.647  2.7170 -0.4269  0.8548
   10MOL   H317 5555   0.355   5.829   2.411 -0.8267 -1.2013  2.6108
   10MOL   H318 5556   0.081   5.859   2.453  0.7288  0.5411  0.1400
   10MOL   H319 5557   0.211   6.100   2.356  0.7146 -0.8259  1.6888
   10MOL   H320 5558   0.242   5.963   2.243 -1.8453 -1.4168  0.6310
   10MOL   C321 5559   0.426   6.148   2.205  0.4529 -0.5970 -0.1789
   10MOL   C322 5560   0.568   6.209   2.185 -0.6778 -0.1286  0.4474
   10MOL   O323 5561   0.640   6.108   2.115  0.1314  0.0443 -0.0305
   10MOL   C324 5562   0.562   6.337   2.093  0.1385  0.5504 -0.2680
   10MOL   O325 5563   0.608   6.451   2.167 -0.0743  0.3719 -0.3983
   10MOL   C326 5564   0.576   6.581   2.129 -0.5194  0.3976 -0.3875
   10MOL   C327 5565   0.644   6.668   2.235 -0.0548 -0.5731 -0.3070
   10MOL   C328 5566   0.599   6.625   2.378 -0.1175  0.4957  0.4787
   10MOL   O329 5567   0.639   6.727   2.466  0.0484  0.6486  0.3690
   10MOL   C330 5568   0.613   6.695   2.601  0.1234  0.0996  0.5998
   10MOL   O331 5569   0.717   6.623   2.657 -0.3748 -0.2445 -0.0192
   10MOL   C332 5570   0.594   6.827   2.670 -0.3248  0.3951  0.5055
   10MOL   O333 5571   0.476   6.891   2.634 -0.1142 -0.5881  0.0862
   10MOL   H334 5572   0.358   6.230   2.229  0.8402 -0.5947  0.9338
   10MOL   H335 5573   0.385   6.118   2.109 -0.4780 -0.8420  0.2898
   10MOL   H336 5574   0.614   6.224   2.283  1.5527 -0.0321 -0.5854
   10MOL   H337 5575   0.599   6.103   2.030  0.3302  0.4587 -0.1519
   10MOL   H338 5576   0.474   6.360   2.032 -0.8416 -0.3698  0.7800
   10MOL   H339 5577   0.644   6.324   2.022  0.0750 -2.1613  0.1238
   10MOL   H340 5578   0.468   6.597   2.121 -0.6483  0.4454  1.1906
   10MOL   H341 5579   0.633   6.584   2.037 -0.5194  1.6074 -0.3563
   10MOL   H342 5580   0.752   6.674   2.220 -0.1335 -0.8979 -1.0000
   10MOL   H343 5581   0.612   6.772   2.226  0.3223 -0.4798 -0.6038
   10MOL   H344 5582   0.492   6.620   2.400  0.4870  0.8119  3.6496
   10MOL   H345 5583   0.648   6.534   2.413  3.2579  1.9983 -0.1845
   10MOL   H346 5584   0.530   6.625   2.611 -0.2053  0.5944  1.3058
   10MOL   H347 5585   0.676   6.548   2.699  1.2622 -0.8775  0.5157
   10MOL   H348 5586   0.573   6.803   2.775 -0.3010 -1.1162  0.1765
   10MOL   H349 5587   0.685   6.884   2.650 -1.4780  2.2656  0.4992
   10MOL   C350 5588   0.496   7.000   2.546 -0.5598  0.5534 -0.4606
   10MOL   C351 5589   0.361   7.026   2.491  0.4461  0.0501  0.7003
   10MOL   O352 5590   0.327   6.912   2.410  0.4421 -0.8118  0.0369
   10MOL   C353 5591   0.261   7.052   2.604  0.2612  0.2774 -0.1704
   10MOL   O354 5592   0.147   7.132   2.569 -0.2016 -0.0723 -0.0335
   10MOL   C355 5593   0.049   7.122   2.664 -0.6224  0.4484  0.0448
   10MOL   C356 5594   7.629   7.219   2.650  0.2864  0.5229  0.6508
   10MOL   C357 5595   7.544   7.196   2.528 -0.1352  0.0243 -0.0925
   10MOL   O358 5596   7.442   7.292   2.518  0.4080 -0.5146  0.2138
   10MOL   C359 5597   7.374   7.280   2.401 -0.0138  0.1273  0.4231
   10MOL   O360 5598   7.309   7.155   2.394 -0.0082  0.6664 -0.3582
   10MOL   C361 5599   7.268   7.393   2.390 -0.1060  0.7843 -0.5994
   10MOL   O362 5600   7.189   7.400   2.516 -0.1125  0.1212 -0.2029
   10MOL   H363 5601   0.562   6.968   2.465 -1.3760 -1.9411 -0.1949
   10MOL   H364 5602   0.542   7.083   2.599  1.4004 -0.5354 -0.3829
   10MOL   H365 5603   0.368   7.113   2.426 -1.6947  0.3095  0.7757
   10MOL   H366 5604   0.379   6.845   2.452 -0.0193  0.2751  2.4309
   10MOL   H367 5605   0.241   6.958   2.656 -0.9405  0.9339  0.5667
   10MOL   H368 5606   0.312   7.115   2.678 -0.0085  0.2912  0.0034
   10MOL   H369 5607   0.095   7.157   2.757  0.3103 -0.5379 -0.0361
   10MOL   H370 5608   0.021   7.018   2.682 -0.6534  0.2767 -0.9659
   10MOL   H371 5609   7.642   7.326   2.666 -0.4996  0.4320  1.9220
   10MOL   H372 5610   7.570   7.183   2.734  2.6506 -3.5922  0.7244
   10MOL   H373 5611   7.609   7.209   2.441 -0.8013 -2.7565 -1.0431
   10MOL   H374 5612   7.512   7.092   2.526 -1.1656  0.3275  0.5191
   10MOL   H375 5613   7.440   7.287   2.315 -0.3179 -0.0340  0.1757
   10MOL   H376 5614   7.345   7.102   2.324  0.4287  0.4907 -0.0084
   10MOL   H377 5615   7.335   7.478   2.381 -1.5258  2.0841  0.7263
   10MOL   H378 5616   7.207   7.378   2.300 -1.2117  0.1729  0.2371
   10MOL   C379 5617   7.103   7.515   2.520 -0.7203  0.2897  0.3528
   10MOL   C380 5618   7.022   7.521   2.649  0.5909 -0.5251 -0.5610
   10MOL   O381 5619   7.127   7.523   2.747 -0.2305  0.2320 -0.1698
   10MOL   C382 5620   6.924   7.639   2.664  0.2452 -0.0229 -0.5118
   10MOL   O383 5621   6.808   7.617   2.744  0.6461  0.1985 -0.0539
   10MOL   C384 5622   6.814   7.617   2.887  0.2956  0.1197  0.6126
   10MOL   C385 5623   6.676   7.630   2.947  0.6840  0.4951 -0.5469
   10MOL   C386 5624   6.610   0.077   2.970 -0.4203  0.1958  0.2740
   10MOL   O387 5625   6.526   0.127   2.863  0.0454 -0.3504 -0.1930
   10MOL   C388 5626   6.609   0.191   2.765  0.2076  0.7169  0.8307
   10MOL   O389 5627   6.624   0.105   2.653 -0.6222  0.3544 -0.6275
   10MOL   C390 5628   6.536   0.315   2.720 -0.4187  0.4946  0.1292
   10MOL   O391 5629   6.577   0.431   2.795 -0.3410 -0.3510 -0.2411
   10MOL   H392 5630   7.036   7.518   2.434 -0.1152 -2.2312 -0.2309
   10MOL   H393 5631   7.168   7.603   2.518 -1.7074  1.0855  2.0117
   10MOL   H394 5632   6.960   7.432   2.653 -1.3867  0.7202 -2.4403
   10MOL   H395 5633   7.191   7.458   2.724 -0.5522 -0.7348  1.6117
   10MOL   H396 5634   6.977   0.030   2.707 -0.1922  0.5718 -1.1391
   10MOL   H397 5635   6.889   7.681   2.570  1.1468  4.9206  1.1930
   10MOL   H398 5636   6.871   7.693   2.941 -0.5204 -0.1873  1.9234
   10MOL   H399 5637   6.867   7.525   2.913  0.5027  1.0308  3.6678
   10MOL   H400 5638   6.700   7.600   3.049 -0.5387 -0.8669 -0.6380
   10MOL   H401 5639   6.611   7.550   2.910  0.9475  0.4429 -0.8968
   10MOL   H402 5640   6.531   0.054   3.042 -1.1680  0.6062 -0.4036
   10MOL   H403 5641   6.673   0.151   3.018 -2.3021  1.0634  1.4907
   10MOL   H404 5642   6.708   0.218   2.800  0.3304 -0.6284  1.5711
   10MOL   H405 5643   6.696   0.048   2.675 -0.7976  0.4065  0.0983
   10MOL   H406 5644   6.573   0.338   2.620  1.7398  0.2482  0.8544
   10MOL   H407 5645   6.429   0.308   2.702 -0.0022 -0.1040 -2.4425
   10MOL   C408 5646   6.512   0.453   2.915  0.1446 -0.2038  0.4301
   10MOL   C409 5647   6.609   0.532   3.014 -0.4187 -0.1406  0.6653
   10MOL   O410 5648   6.716   0.450   3.058  0.2426 -0.2091 -0.4763
   10MOL   C411 5649   6.535   0.616   3.121  0.6997 -0.8602  0.1901
   10MOL   O412 5650   6.466   0.722   3.052 -0.0372  0.2278 -0.5735
   10MOL   C413 5651   6.373   0.778   3.140 -0.1022  0.2606  0.5417
   10MOL   C414 5652   6.322   0.901   3.064 -0.2306 -0.1422 -0.5170
   10MOL   C415 5653   6.274   0.995   3.177 -0.1562 -0.1166 -0.1867
   10MOL   O416 5654   6.154   0.934   3.230 -0.0178 -0.0753 -0.1195
   10MOL   C417 5655   6.094   0.995   3.339  0.2088 -0.1035 -0.2818
   10MOL   O418 5656   6.180   1.012   3.446  0.3004 -0.0681 -0.1426
   10MOL   C419 5657   5.972   0.915   3.376 -0.1324 -0.1797 -0.2482
   10MOL   O420 5658   5.856   0.951   3.298 -0.1166  0.2790  0.2680
   10MOL   H421 5659   6.475   0.360   2.958  0.0699 -1.6488 -2.6246
   10MOL   H422 5660   6.424   0.513   2.895 -0.8516 -1.7282  0.2054
   10MOL   H423 5661   6.653   0.605   2.946 -1.5717  0.0902  0.1574
   10MOL   H424 5662   6.752   0.420   2.976  0.8532  0.2482 -0.3765
   10MOL   H425 5663   6.465   0.555   3.178  1.1238 -2.0351 -0.5225
   10MOL   H426 5664   6.611   0.651   3.191 -0.3366  1.0619  0.3897
   10MOL   H427 5665   6.295   0.709   3.172  0.6199 -1.1565 -0.7309
   10MOL   H428 5666   6.426   0.809   3.231 -1.5346  1.7938  0.8804
   10MOL   H429 5667   6.247   0.882   2.987 -1.3029  0.8932  0.2524
   10MOL   H430 5668   6.403   0.946   3.006 -0.0331 -1.4892 -1.3084
   10MOL   H431 5669   6.341   1.028   3.256  2.0502 -0.4852 -1.8612
   10MOL   H432 5670   6.235   1.088   3.135 -3.3762 -2.0534 -1.6907
   10MOL   H433 5671   6.062   1.094   3.307 -1.8569  0.2701  2.7251
   10MOL   H434 5672   6.220   0.928   3.464  0.4805 -0.3261 -1.7014
   10MOL   H435 5673   5.990   0.807   3.379 -1.9929 -0.5175 -0.4452
   10MOL   H436 5674   5.950   0.944   3.479  1.5859  0.4175 -0.0449
   10MOL   C437 5675   5.848   0.878   3.176  0.5288  0.4316 -0.3066
   10MOL   C438 5676   5.701   0.851   3.141  0.3250 -0.7957 -0.4603
   10MOL   O439 5677   5.653   0.746   3.224 -0.2674  0.3447 -0.0983
   10MOL   C440 5678   5.696   0.810   2.993  0.1713 -0.3875 -0.2467
   10MOL   O441 5679   5.579   0.858   2.936 -0.0466  0.4311  0.0699
   10MOL   C442 5680   5.567   0.807   2.804 -0.4374 -0.0643 -0.1648
   10MOL   C443 5681   5.448   0.880   2.744 -0.4282 -0.3717  0.3498
   10MOL   C444 5682   5.443   0.851   2.597 -0.3360  0.4512  0.0325
   10MOL   O445 5683   5.438   0.710   2.587 -0.1430 -0.0941  0.1603
   10MOL   C446 5684   5.519   0.649   2.492  0.1206 -0.8161  0.3660
   10MOL   O447 5685   5.469   0.676   2.358 -0.0368  0.3729  0.2114
   10MOL   C448 5686   5.524   0.499   2.515 -1.1351  0.0004 -0.5998
   10MOL   O449 5687   5.392   0.447   2.493  0.2332 -0.1955 -0.1074
   10MOL   H450 5688   5.912   0.930   3.106  2.0295 -0.5265  0.3325
   10MOL   H451 5689   5.885   0.778   3.198  0.9378  0.0911 -2.4838
   10MOL   H452 5690   5.637   0.935   3.167  0.2747 -0.6187 -1.1401
   10MOL   H453 5691   5.636   0.776   3.312 -1.1608 -0.2742 -0.0540
   10MOL   H454 5692   5.789   0.836   2.944 -0.8411  0.8611 -1.5498
   10MOL   H455 5693   5.703   0.703   2.976  1.1578 -0.0815 -1.8746
   10MOL   H456 5694   5.536   0.703   2.812 -0.7419  0.1233  1.3263
   10MOL   H457 5695   5.661   0.822   2.751 -0.2094 -1.2425 -0.1077
   10MOL   H458 5696   5.453   0.986   2.771  0.4439 -0.9698  2.6884
   10MOL   H459 5697   5.358   0.838   2.787  0.1641 -1.1043  0.8906
   10MOL   H460 5698   5.356   0.902   2.556  0.7152  2.3225  0.0663
   10MOL   H461 5699   5.530   0.891   2.545  0.7429 -2.4909 -0.5100
   10MOL   H462 5700   5.620   0.691   2.498 -0.7734  1.6803 -1.1182
   10MOL   H463 5701   5.438   0.590   2.334  0.7941 -0.4452  1.9641
   10MOL   H464 5702   5.595   0.462   2.441  0.0668 -0.7731  0.9067
   10MOL   H465 5703   5.563   0.483   2.616 -0.4728 -0.1357 -0.8711
   10MOL   C466 5704   5.386   0.309   2.511 -0.4167 -0.4121  0.1155
   10MOL   C467 5705   5.250   0.243   2.496 -0.2114  0.1882  0.3210
   10MOL   O468 5706   5.171   0.296   2.602  0.0153 -0.0645  0.0545
   10MOL   C469 5707   5.186   0.269   2.350  0.2084  0.1382  0.4058
   10MOL   O470 5708   5.245   0.177   2.261 -0.1844 -0.1302  0.1403
   10MOL   C471 5709   5.192   0.189   2.129 -0.6518 -0.1980  0.3015
   10MOL   C472 5710   5.238   0.075   2.052 -0.3753 -0.2079  0.3455
   10MOL   C473 5711   5.190   7.631   2.108  0.3431  0.3806  0.0650
   10MOL   O474 5712   5.054   7.605   2.087 -0.4533 -0.4418 -0.2173
   10MOL   C475 5713   4.964   7.634   2.190  0.6756  0.0974  0.7941
   10MOL   O476 5714   4.950   7.525   2.270  0.2410 -0.2412 -0.1136
   10MOL   C477 5715   4.840   7.669   2.120 -0.4814 -0.2906 -0.1436
   10MOL   O478 5716   4.860   0.062   2.002  0.1900 -0.6166 -0.2396
   10MOL   H479 5717   5.428   0.286   2.609  0.8439  3.0627  0.4629
   10MOL   H480 5718   5.451   0.270   2.433 -0.0975  0.4365 -0.0393
   10MOL   H481 5719   5.262   0.138   2.522 -1.3759  0.0689  0.4076
   10MOL   H482 5720   5.179   0.390   2.607  1.4275 -0.2655  2.2128
   10MOL   H483 5721   5.081   0.242   2.366  0.1015  1.8430  2.8710
   10MOL   H484 5722   5.185   0.369   2.306 -1.7767  0.7757  1.8187
   10MOL   H485 5723   5.223   0.287   2.093 -1.0313  0.4299  1.6519
   10MOL   H486 5724   5.084   0.203   2.134 -0.4690  0.5315  2.8284
   10MOL   H487 5725   5.346   0.082   2.041 -0.2967 -0.8853  0.6389
   10MOL   H488 5726   5.204   0.070   1.949 -2.6097  1.1251  0.9914
   10MOL   H489 5727   5.247   7.551   2.060  0.6152  0.4895  0.2052
   10MOL   H490 5728   5.215   7.616   2.213 -0.1560 -0.4956  0.0656
   10MOL   H491 5729   4.999   0.025   2.249 -1.6931  1.4239  0.3174
   10MOL   H492 5730   4.992   7.546   2.352 -0.9325 -0.9618  0.6800
   10MOL   H493 5731   4.801   7.574   2.081 -1.0320  0.5064 -1.5955
   10MOL   H494 5732   4.769   0.014   2.192  0.9195 -1.3980  1.8659
   10MOL   C495 5733   4.759   0.065   1.900  0.4095  0.3519 -0.2776
   10MOL   C496 5734   4.784   0.171   1.802 -0.2768  0.1615 -0.7987
   10MOL   O497 5735   4.905   0.132   1.731  0.1511  0.0498 -0.2772
   10MOL   C498 5736   4.678   0.168   1.686 -0.8224  0.5935  0.9187
   10MOL   O499 5737   4.563   0.252   1.686  0.1199 -0.0915  0.6833
   10MOL   C500 5738   4.480   0.207   1.586 -0.1494  0.1277  0.2903
   10MOL   C501 5739   4.365   0.308   1.577 -0.5297 -0.1458 -0.3611
   10MOL   C502 5740   4.256   0.293   1.478 -0.0287  0.3151  0.6445
   10MOL   O503 5741   4.243   0.415   1.411 -0.1850 -0.3718 -0.2774
   10MOL   C504 5742   4.148   0.420   1.313 -0.3953 -0.7050 -0.6143
   10MOL   O505 5743   4.173   0.344   1.196  0.2098 -0.4873  0.6831
   10MOL   C506 5744   4.141   0.571   1.277 -0.0074 -0.8593  0.7068
   10MOL   O507 5745   4.014   0.616   1.240 -0.0570 -0.4215 -0.1995
   10MOL   H508 5746   4.670   0.092   1.956  0.6095  0.4885 -0.0180
   10MOL   H509 5747   4.746   7.662   1.852 -1.6465 -0.1727  1.2559
   10MOL   H510 5748   4.788   0.272   1.842  2.3766  0.0110 -0.6096
   10MOL   H511 5749   4.952   0.076   1.792 -0.2850 -0.2958 -0.2557
   10MOL   H512 5750   4.732   0.203   1.598 -1.4611 -0.2954  0.1523
   10MOL   H513 5751   4.653   0.064   1.663 -0.0928  0.3305  1.3107
   10MOL   H514 5752   4.436   0.113   1.621  1.1463  0.3112  2.5280
   10MOL   H515 5753   4.529   0.200   1.489 -0.4443 -1.2946  0.2300
   10MOL   H516 5754   4.417   0.399   1.547  0.8569 -0.3112  1.4769
   10MOL   H517 5755   4.331   0.328   1.679  1.7590 -0.2432  0.4545
   10MOL   H518 5756   4.281   0.215   1.407 -1.2110  0.3116  0.2337
   10MOL   H519 5757   4.169   0.264   1.535 -0.1056 -2.6457 -0.9047
   10MOL   H520 5758   4.048   0.403   1.352 -0.7790  1.2958 -0.7042
   10MOL   H521 5759   4.262   0.359   1.168  0.4493 -2.1391  0.4891
   10MOL   H522 5760   4.182   0.618   1.366  0.6573 -0.7747  0.3600
   10MOL   H523 5761   4.207   0.578   1.191  0.4710 -2.2872  0.9408
   10MOL   C524 5762   3.985   0.751   1.204 -0.2568  0.0121 -0.7174
   10MOL   C525 5763   3.890   0.758   1.089 -0.5611 -0.3680 -0.1697
   10MOL   O526 5764   3.925   0.871   1.011 -0.5166  0.1741  0.4812
   10MOL   C527 5765   3.740   0.779   1.129 -1.1250 -0.2555 -0.0051
   10MOL   O528 5766   3.722   0.915   1.185  0.6423  0.1276  0.5103
   10MOL   C529 5767   3.576   0.938   1.199  0.9445 -0.3281 -0.7923
   10MOL   C530 5768   3.539   1.079   1.236 -0.0914 -0.2499 -0.0319
   10MOL   C531 5769   3.385   1.085   1.262  0.3868 -0.4752  0.4065
   10MOL   O532 5770   3.341   0.999   1.366 -0.4372 -0.3444 -0.3563
   10MOL   C533 5771   3.333   1.043   1.492  0.4005  0.4312 -0.3247
   10MOL   O534 5772   3.231   1.140   1.494 -0.0191  0.1388  0.4786
   10MOL   C535 5773   3.295   0.922   1.567  0.4884 -0.1232  0.7433
   10MOL   O536 5774   3.404   0.881   1.651 -0.1762  0.2778  0.3856
   10MOL   H537 5775   4.077   0.788   1.157 -1.1269  0.9222 -1.7329
   10MOL   H538 5776   3.970   0.814   1.292  0.3823 -0.9374  0.0836
   10MOL   H539 5777   3.890   0.663   1.035  0.1894 -1.1130  1.1097
   10MOL   H540 5778   3.868   0.936   1.049  0.1384 -0.2129  2.1411
   10MOL   H541 5779   3.678   0.769   1.040  0.7006  0.0337 -1.3452
   10MOL   H542 5780   3.714   0.710   1.209  0.3417  0.6056  1.2337
   10MOL   H543 5781   3.544   0.860   1.267  0.8425  1.0834  0.8205
   10MOL   H544 5782   3.533   0.913   1.102  0.2207  1.4111 -0.9461
   10MOL   H545 5783   3.554   1.152   1.157  2.5079  1.5242  2.0219
   10MOL   H546 5784   3.605   1.097   1.321  2.8263  0.2965 -2.3075
   10MOL   H547 5785   3.358   1.188   1.287 -1.2869 -0.9256  0.4888
   10MOL   H548 5786   3.322   1.061   1.177 -0.2389 -1.4742  1.1305
   10MOL   H549 5787   3.416   1.094   1.543 -1.8764  2.6116  1.3301
   10MOL   H550 5788   3.160   1.101   1.445 -3.2808  1.5326  3.8416
   10MOL   H551 5789   3.219   0.953   1.639 -2.4449 -1.9263 -1.4920
   10MOL   H552 5790   3.243   0.843   1.514  2.3146  0.0025 -1.2840
   10MOL   C553 5791   3.505   0.813   1.578  0.5766  0.0330  0.8909
   10MOL   C554 5792   3.618   0.767   1.675 -0.0467  0.2781  0.1460
   10MOL   O555 5793   3.706   0.877   1.707  0.6720 -0.2092  0.2380
   10MOL   C556 5794   3.715   0.663   1.614  0.2548 -0.0922 -0.1681
   10MOL   O557 5795   3.827   0.660   1.695  0.1753  0.3874  0.5856
   10MOL   C558 5796   3.925   0.580   1.633 -0.6546  0.5811 -0.2649
   10MOL   C559 5797   4.051   0.573   1.722 -0.1255 -0.1299 -0.0760
   10MOL   C560 5798   4.109   0.710   1.768 -0.1604 -0.4994 -0.2993
   10MOL   O561 5799   4.211   0.688   1.860 -0.5341  0.0635 -0.2514
   10MOL   C562 5800   4.293   0.797   1.886 -0.6550 -0.4077 -0.2537
   10MOL   O563 5801   4.229   0.886   1.969 -0.3652  0.3582  0.1704
   10MOL   C564 5802   4.428   0.745   1.943  1.2476  0.5696  0.5273
   10MOL   O565 5803   4.482   0.643   1.856  0.1962 -0.2466  0.6693
   10MOL   H566 5804   3.553   0.865   1.495  1.6168  0.2482  1.6254
   10MOL   H567 5805   3.471   0.720   1.533  1.3680  0.0283  0.2818
   10MOL   H568 5806   3.576   0.727   1.768  0.8276 -0.1804  0.3563
   10MOL   H569 5807   3.782   0.825   1.728  0.7251  0.0001  0.5620
   10MOL   H570 5808   3.657   0.571   1.602  1.1471 -0.7707  0.5870
   10MOL   H571 5809   3.744   0.701   1.516 -0.3581  1.4454  0.2364
   10MOL   H572 5810   3.887   0.478   1.626  1.3489 -0.0315 -2.8453
   10MOL   H573 5811   3.951   0.619   1.535  0.5978  1.5895  0.4448
   10MOL   H574 5812   4.134   0.516   1.679  1.3959 -0.8578  3.6469
   10MOL   H575 5813   4.034   0.503   1.804 -1.2547 -0.5767 -0.6741
   10MOL   H576 5814   4.146   0.763   1.680 -0.3608  1.6503  0.9044
   10MOL   H577 5815   4.023   0.762   1.809 -1.0102 -1.9096 -0.2504
   10MOL   H578 5816   4.310   0.851   1.793  0.6782 -1.7698 -0.8233
   10MOL   H579 5817   4.294   0.950   1.994  2.1637 -1.3965 -1.6353
   10MOL   H580 5818   4.505   0.822   1.944  1.2221  0.7364 -3.1701
   10MOL   H581 5819   4.403   0.704   2.040  0.2207 -2.8586 -1.0934
   10MOL   H582 5820   4.532   0.684   1.787  0.0768  0.3478  0.9334
   11MOL     C1 5821   3.018   1.702   1.999  0.4720 -0.7430 -0.0852
   11MOL     C2 5822   2.880   1.687   2.056  0.0974  0.6754  0.2175
   11MOL     O3 5823   2.837   1.807   2.117 -0.5848  0.3113 -0.0477
   11MOL     C4 5824   2.775   1.646   1.952 -0.0168 -0.3553 -0.2268
   11MOL     O5 5825   2.792   1.725   1.835  0.1585 -0.3366  0.4155
   11MOL     C6 5826   2.670   1.746   1.759  0.8561 -0.0551  0.2560
   11MOL     C7 5827   2.710   1.814   1.628 -0.0301 -0.5859  0.2144
   11MOL     C8 5828   2.761   1.957   1.651 -0.2769 -0.0387  0.2092
   11MOL     O9 5829   2.755   2.019   1.526 -0.1629 -0.2042  0.3409
   11MOL    C10 5830   2.819   2.142   1.523 -0.6577 -0.3860  0.4012
   11MOL    O11 5831   2.748   2.250   1.583 -0.2823 -0.1627 -0.1568
   11MOL    C12 5832   2.835   2.170   1.377 -0.0480 -0.5995  0.0628
   11MOL    O13 5833   2.947   2.110   1.320 -0.2655 -0.5320  0.3713
   11MOL    H14 5834   3.085   1.712   2.085 -0.9047 -1.1813  1.0705
   11MOL    H15 5835   3.011   1.793   1.939 -1.9641  1.2369  3.0396
   11MOL    H16 5836   2.891   1.615   2.137 -0.2557 -0.1422 -0.4494
   11MOL    H17 5837   2.813   1.857   2.040  2.9587  0.8288 -0.9358
   11MOL    H18 5838   2.799   1.544   1.923  0.2856 -0.3757  0.0914
   11MOL    H19 5839   2.674   1.646   1.994 -0.6690  1.4819 -1.7152
   11MOL    H20 5840   2.598   1.804   1.817 -0.2106  0.3553 -1.4518
   11MOL    H21 5841   2.622   1.652   1.733  1.1755 -0.8818  2.5445
   11MOL    H22 5842   2.624   1.815   1.562 -0.3521 -1.7733  0.6097
   11MOL    H23 5843   2.793   1.759   1.583  1.5209  0.5266  1.6338
   11MOL    H24 5844   2.678   2.009   1.700 -1.9904 -0.3504 -2.2806
   11MOL    H25 5845   2.858   1.953   1.700 -0.5202 -0.0056  0.7050
   11MOL    H26 5846   2.919   2.130   1.567  0.4007  3.1077 -0.8927
   11MOL    H27 5847   2.669   2.268   1.536 -1.8967 -1.1343  2.0896
   11MOL    H28 5848   2.746   2.135   1.325 -0.0652 -2.3966  1.2504
   11MOL    H29 5849   2.847   2.277   1.360  0.4118 -0.2053  2.6700
   11MOL    H30 5850   3.053   1.628   1.927  1.8721  0.6441 -0.8544
   11MOL    C31 5851   3.055   2.200   1.286 -0.2648  0.3745  0.0325
   11MOL    C32 5852   3.032   2.252   1.138  0.1049  0.5880 -0.1321
   11MOL    O33 5853   2.955   2.369   1.148  0.4200 -0.0412 -0.2958
   11MOL    C34 5854   2.980   2.144   1.042 -0.3158 -0.1993 -0.5787
   11MOL    O35 5855   3.001   2.204   0.915  0.2950 -0.0026 -0.2834
   11MOL    C36 5856   2.990   2.109   0.807 -0.1686 -0.0566 -0.2427
   11MOL    C37 5857   3.051   2.158   0.670  0.4392  0.2695  0.0090
   11MOL    C38 5858   3.067   2.043   0.573  0.0249 -0.2209  0.5565
   11MOL    O39 5859   2.944   2.004   0.516  0.0294  0.4757 -0.4657
   11MOL    C40 5860   2.923   1.875   0.468  0.3629 -0.1539 -0.5017
   11MOL    O41 5861   2.943   1.777   0.572 -0.9470  0.4520 -0.9746
   11MOL    C42 5862   3.006   1.831   0.350 -1.4212 -0.2483 -0.3320
   11MOL    O43 5863   3.145   1.840   0.385 -0.3747  0.0777  0.6927
   11MOL    H44 5864   3.076   2.275   1.362 -1.7368  1.3685 -0.5138
   11MOL    H45 5865   3.144   2.138   1.290 -0.7396 -0.5028 -2.2075
   11MOL    H46 5866   3.137   2.271   1.116 -0.2455  1.4255 -1.1194
   11MOL    H47 5867   2.962   2.396   1.057 -0.3613  0.4409 -0.2166
   11MOL    H48 5868   3.041   2.054   1.054  1.5971  0.9869 -1.1199
   11MOL    H49 5869   2.873   2.133   1.058 -0.6096 -0.3562 -2.6032
   11MOL    H50 5870   2.889   2.071   0.796  0.3163 -1.5287  0.2388
   11MOL    H51 5871   3.049   2.018   0.825 -1.1016 -0.6335 -0.0907
   11MOL    H52 5872   3.149   2.193   0.702  0.9242 -1.4228  0.4021
   11MOL    H53 5873   3.010   2.250   0.628 -0.1315  0.4532  0.9463
   11MOL    H54 5874   3.117   2.077   0.482  0.1787 -0.8384  0.4108
   11MOL    H55 5875   3.126   1.961   0.613 -0.1728 -1.8915 -2.4207
   11MOL    H56 5876   2.822   1.863   0.429 -0.0754  1.5691  0.0512
   11MOL    H57 5877   3.027   1.790   0.614 -1.5886  1.2903  0.0759
   11MOL    H58 5878   2.988   1.727   0.325 -2.4086 -0.7186  2.1638
   11MOL    H59 5879   2.990   1.902   0.269  0.9392 -1.3108 -1.7736
   11MOL    C60 5880   3.225   1.837   0.261  0.0732  0.1978  0.4205
   11MOL    C61 5881   3.263   1.987   0.227  0.1542 -0.4246 -0.9710
   11MOL    O62 5882   3.160   2.047   0.151 -0.6487  0.3107  0.3727
   11MOL    C63 5883   3.387   1.986   0.133 -0.1702 -0.6058 -0.5183
   11MOL    O64 5884   3.501   2.032   0.205  0.2405  0.1695 -0.1002
   11MOL    C65 5885   3.609   2.062   0.116 -0.2400 -0.1883 -0.7672
   11MOL    C66 5886   3.725   2.100   0.207 -0.5129 -0.0264  0.0196
   11MOL    C67 5887   3.857   2.154   0.142  0.4904 -0.0236  0.0545
   11MOL    O68 5888   3.849   2.273   0.064 -0.5434 -0.4320 -0.3501
   11MOL    C69 5889   3.866   2.391   0.138  0.0047  0.2520  0.9116
   11MOL    O70 5890   4.000   2.405   0.174  0.2594  0.1111  0.3831
   11MOL    C71 5891   3.819   2.524   0.064  0.1277 -0.4741  0.2622
   11MOL    O72 5892   3.887   2.541   7.632  0.0998 -0.1470 -0.2128
   11MOL    H73 5893   3.182   1.778   0.181 -0.8585  0.1987  0.9144
   11MOL    H74 5894   3.314   1.781   0.290  0.3858  1.0292  1.1029
   11MOL    H75 5895   3.289   2.037   0.321 -2.1206  0.2648 -0.6819
   11MOL    H76 5896   3.140   1.984   0.083 -1.8348  1.2506 -0.1769
   11MOL    H77 5897   3.407   1.881   0.112  0.3024 -0.5072 -0.5521
   11MOL    H78 5898   3.376   2.025   0.031  2.8940 -0.7073 -0.9314
   11MOL    H79 5899   3.582   2.145   0.050 -1.3319 -1.7166 -2.2620
   11MOL    H80 5900   3.628   1.970   0.061 -2.3890 -2.2642  1.7986
   11MOL    H81 5901   3.744   2.014   0.272 -2.0215 -0.0824  0.4011
   11MOL    H82 5902   3.678   2.171   0.275 -0.5722 -0.2665  0.2298
   11MOL    H83 5903   3.906   2.070   0.093  0.2906 -0.1753  0.1104
   11MOL    H84 5904   3.924   2.160   0.228  1.3435 -0.6962 -0.5534
   11MOL    H85 5905   3.807   2.379   0.228 -2.2610 -0.1357 -0.5717
   11MOL    H86 5906   4.001   2.433   0.264  0.3324  0.2039  0.3532
   11MOL    H87 5907   3.717   2.515   0.028  0.5295  1.6154 -1.4763
   11MOL    H88 5908   3.829   2.612   0.127 -1.0431 -1.3160  1.6422
   11MOL    C89 5909   3.995   2.626   7.635  0.1273 -0.1513  0.5270
   11MOL    C90 5910   4.058   2.656   7.493  0.5163 -0.3602 -0.4972
   11MOL    O91 5911   3.998   2.772   7.439 -0.0256 -0.4281  0.0867
   11MOL    C92 5912   4.212   2.684   7.494 -0.0677 -0.0944  0.6103
   11MOL    O93 5913   4.251   2.652   7.355 -0.0901  0.1005  0.2424
   11MOL    C94 5914   4.383   2.687   7.314 -0.6608  0.0872 -0.0398
   11MOL    C95 5915   4.405   2.646   7.169  0.3608 -0.4871  0.4653
   11MOL    C96 5916   4.542   2.644   7.110 -0.0357 -0.2632 -0.2012
   11MOL    O97 5917   4.545   2.596   6.985 -0.3228 -0.6044 -0.2168
   11MOL    C98 5918   4.673   2.592   6.930  0.3835  0.0540 -0.3168
   11MOL    O99 5919   4.755   2.495   6.996  0.1929 -0.1478 -0.2299
   11MOL   C100 5920   4.673   2.560   6.780 -0.5702 -0.3483 -0.4378
   11MOL   O101 5921   4.580   2.448   6.737  0.1251  0.9238  0.0105
   11MOL   H102 5922   4.073   2.570   7.685  1.4496 -2.2595 -3.6535
   11MOL   H103 5923   3.966   2.715   7.690 -0.0839  1.3750 -1.9784
   11MOL   H104 5924   4.042   2.565   7.435 -0.0415 -0.6540  0.1117
   11MOL   H105 5925   4.021   2.771   7.347  2.0409  1.4109  0.5434
   11MOL   H106 5926   4.248   2.782   7.524  0.1795 -0.7402  2.4599
   11MOL   H107 5927   4.259   2.609   7.557  1.3420  0.6601  0.4783
   11MOL   H108 5928   4.447   2.630   7.381 -1.3977 -2.0761 -1.1442
   11MOL   H109 5929   4.404   2.794   7.320  0.4361 -0.1510  0.4684
   11MOL   H110 5930   4.338   2.701   7.104 -0.9355 -1.4457  0.9732
   11MOL   H111 5931   4.366   2.545   7.157  1.1397 -0.9322  1.5681
   11MOL   H112 5932   4.579   2.746   7.123  0.1454 -0.1281 -1.6825
   11MOL   H113 5933   4.608   2.589   7.178  0.7609 -0.5112 -1.1631
   11MOL   H114 5934   4.717   2.692   6.930 -0.6809  0.6109 -3.9240
   11MOL   H115 5935   4.727   2.417   6.951 -1.0813  0.2973 -0.2232
   11MOL   H116 5936   4.662   2.647   6.716  0.1496  0.9006  1.1107
   11MOL   H117 5937   4.773   2.526   6.753  0.7752  1.1866  2.4668
   11MOL   C118 5938   4.441   2.490   6.718 -0.9266 -0.1700 -0.5360
   11MOL   C119 5939   4.337   2.387   6.747 -0.1598 -0.2378  0.0367
   11MOL   O120 5940   4.345   2.290   6.641  0.2841 -0.2399 -0.0363
   11MOL   C121 5941   4.200   2.442   6.763  0.5221 -0.3060  0.3395
   11MOL   O122 5942   4.180   2.471   6.900  0.3462  0.7638  0.5335
   11MOL   C123 5943   4.081   2.575   6.909 -0.0798 -0.6502  0.1729
   11MOL   C124 5944   4.010   2.567   7.052 -0.6329  0.0794  0.1346
   11MOL   C125 5945   3.898   2.675   7.065 -0.2253 -0.2341  0.2517
   11MOL   O126 5946   3.816   2.630   7.176 -0.3300  0.1582  0.3325
   11MOL   C127 5947   3.712   2.715   7.224 -0.2332  0.4057 -0.0762
   11MOL   O128 5948   3.766   2.823   7.300  0.6157 -0.2936 -0.1182
   11MOL   C129 5949   3.619   2.639   7.315 -0.0064  0.3578  0.1676
   11MOL   O130 5950   3.502   2.607   7.240  1.4148 -0.4161 -0.8972
   11MOL   H131 5951   4.410   2.570   6.784  0.0875  1.2446 -1.7377
   11MOL   H132 5952   4.419   2.531   6.619  2.1267 -1.3172 -1.7555
   11MOL   H133 5953   4.361   2.334   6.839 -0.3547 -0.7332 -0.1921
   11MOL   H134 5954   4.425   2.244   6.660  2.4422  2.1142 -2.9891
   11MOL   H135 5955   4.176   2.518   6.688  0.0341 -0.9541 -0.1707
   11MOL   H136 5956   4.123   2.368   6.741  2.3789 -1.6670 -1.7630
   11MOL   H137 5957   3.994   2.558   6.846  0.4488  0.5733 -0.9093
   11MOL   H138 5958   4.138   2.664   6.882  0.8631 -1.4005 -0.2989
   11MOL   H139 5959   4.082   2.593   7.129 -1.9015  3.5636  0.2270
   11MOL   H140 5960   3.985   2.461   7.062 -2.2344  0.4627  0.4635
   11MOL   H141 5961   3.942   2.773   7.081  1.2620 -0.7528 -0.5827
   11MOL   H142 5962   3.840   2.671   6.972 -0.9306  1.6700  0.6001
   11MOL   H143 5963   3.659   2.766   7.144 -0.7462  1.3628  0.8622
   11MOL   H144 5964   3.809   2.782   7.373 -0.5507 -0.4347  0.4988
   11MOL   H145 5965   3.661   2.560   7.378 -1.5308  0.2949  1.1620
   11MOL   H146 5966   3.587   2.699   7.401 -0.1050  0.0189  0.3729
   11MOL   C147 5967   3.503   2.495   7.152  0.3326  0.1507  0.5038
   11MOL   C148 5968   3.439   2.522   7.017  0.3198 -0.1899  0.8785
   11MOL   O149 5969   3.297   2.511   7.034  0.1691  0.8226 -0.3319
   11MOL   C150 5970   3.487   2.437   6.903  0.4015 -0.8403  0.0763
   11MOL   O151 5971   3.425   2.500   6.788 -0.2947 -0.2312 -0.2180
   11MOL   C152 5972   3.494   2.475   6.669 -0.2198 -0.1227 -0.7860
   11MOL   C153 5973   3.418   2.532   6.558  0.5712 -0.2185 -0.0910
   11MOL   C154 5974   3.466   2.497   6.422  0.5017 -0.0059  1.1320
   11MOL   O155 5975   3.356   2.536   6.342  1.0388 -0.1280  0.2648
   11MOL   C156 5976   3.380   2.544   6.205  0.9231 -0.3067  0.6995
   11MOL   O157 5977   3.446   2.666   6.178  0.6286 -0.2861  0.4526
   11MOL   C158 5978   3.239   2.550   6.129 -0.3444  0.0181  0.0920
   11MOL   O159 5979   3.246   2.526   5.989 -0.6666  0.2552  0.4317
   11MOL   H160 5980   3.476   2.405   7.207 -0.8809 -0.5731 -1.2117
   11MOL   H161 5981   3.608   2.477   7.130  0.6774  1.1700  1.2834
   11MOL   H162 5982   3.463   2.627   7.003  0.4238 -0.3087  0.1295
   11MOL   H163 5983   3.262   2.523   6.947 -2.6972 -1.5350  0.4409
   11MOL   H164 5984   3.594   2.451   6.894  0.3916 -0.7732  0.0632
   11MOL   H165 5985   3.466   2.332   6.923  2.7914 -1.5587 -1.0537
   11MOL   H166 5986   3.497   2.367   6.660 -0.8042 -0.1065 -1.1792
   11MOL   H167 5987   3.594   2.519   6.667  0.7896 -2.3690 -1.8584
   11MOL   H168 5988   3.405   2.639   6.576 -0.8024 -0.3255 -0.3406
   11MOL   H169 5989   3.319   2.488   6.570  0.7038 -0.7236 -0.8226
   11MOL   H170 5990   3.562   2.543   6.397 -0.5047  1.1573 -0.6994
   11MOL   H171 5991   3.490   2.390   6.425 -0.4220 -0.2726 -0.4114
   11MOL   H172 5992   3.442   2.458   6.179 -1.0666 -1.8078  0.8726
   11MOL   H173 5993   3.385   2.737   6.188  1.0699  0.2002 -0.2268
   11MOL   H174 5994   3.177   2.473   6.176 -3.1100  0.8135 -2.1523
   11MOL   H175 5995   3.182   2.640   6.152  1.2908  1.3396 -0.9098
   11MOL   C176 5996   3.121   2.487   5.943 -0.4149  0.1617 -0.7416
   11MOL   C177 5997   3.018   2.605   5.913 -0.0458 -0.2588 -0.2858
   11MOL   O178 5998   2.935   2.633   6.019  0.4634 -0.1168  0.0380
   11MOL   C179 5999   2.935   2.560   5.795 -0.5861  0.5324 -0.1940
   11MOL   O180 6000   2.847   2.655   5.757  0.0811 -0.4304 -0.7860
   11MOL   C181 6001   2.787   2.627   5.635 -0.3895 -0.6184  0.2652
   11MOL   C182 6002   2.684   2.735   5.617 -0.4743  0.4765 -0.7270
   11MOL   C183 6003   2.577   2.738   5.728 -0.0490 -0.5790  0.4087
   11MOL   O184 6004   2.493   2.856   5.697 -0.0213 -0.0038 -0.2199
   11MOL   C185 6005   2.367   2.843   5.758 -0.3676  0.1133  0.0921
   11MOL   O186 6006   2.289   2.748   5.698 -0.3532  0.1354 -0.3064
   11MOL   C187 6007   2.296   2.974   5.762  0.3384 -0.2329  0.2465
   11MOL   O188 6008   2.373   3.069   5.833  0.0487 -0.0027 -0.0710
   11MOL   H189 6009   3.075   2.405   5.998  1.5490 -0.9290 -0.6742
   11MOL   H190 6010   3.136   2.435   5.849  0.6636  1.7450 -1.4781
   11MOL   H191 6011   3.059   2.696   5.870 -1.4510 -0.0028 -1.1019
   11MOL   H192 6012   2.852   2.649   5.977  0.9431 -3.0662 -2.1507
   11MOL   H193 6013   2.998   2.551   5.707 -3.4177  2.3656 -2.5073
   11MOL   H194 6014   2.891   2.462   5.816  2.3060 -0.7291  0.2213
   11MOL   H195 6015   2.731   2.533   5.633  0.7480 -1.3070  0.3739
   11MOL   H196 6016   2.852   2.634   5.548 -3.2043  0.3794 -1.8543
   11MOL   H197 6017   2.641   2.721   5.518 -2.1610  2.4860 -0.3219
   11MOL   H198 6018   2.737   2.831   5.617 -3.0340  1.9803  2.2492
   11MOL   H199 6019   2.529   2.641   5.732 -0.5410 -0.3726 -0.5512
   11MOL   H200 6020   2.608   2.753   5.832 -0.8103 -1.5633  0.7873
   11MOL   H201 6021   2.384   2.809   5.860 -3.4356 -2.2083 -0.1124
   11MOL   H202 6022   2.252   2.778   5.617  0.1493 -0.9719 -0.9709
   11MOL   H203 6023   2.278   3.005   5.658 -1.4976 -0.0291  0.5987
   11MOL   H204 6024   2.199   2.961   5.810 -0.4317  1.6086 -0.7467
   11MOL   C205 6025   2.337   3.205   5.814  0.5045 -0.1292 -0.8467
   11MOL   C206 6026   2.435   3.300   5.895  0.4842 -0.3818  0.0167
   11MOL   O207 6027   2.555   3.306   5.827 -0.3824  0.0395  0.2123
   11MOL   C208 6028   2.367   3.440   5.905 -0.2387 -0.0794 -0.6860
   11MOL   O209 6029   2.264   3.440   6.008 -0.1016  0.2493  0.2858
   11MOL   C210 6030   2.222   3.578   6.030  0.0496 -0.7907  0.1213
   11MOL   C211 6031   2.097   3.584   6.121  0.6153 -0.3938  0.6219
   11MOL   C212 6032   1.983   3.521   6.041 -0.4702 -0.1778 -0.1757
   11MOL   O213 6033   1.970   3.590   5.918 -0.1757  0.2736  0.3157
   11MOL   C214 6034   1.840   3.588   5.864 -0.1945 -0.4839 -0.5417
   11MOL   O215 6035   1.801   3.456   5.835 -0.5647 -0.0993  0.6558
   11MOL   C216 6036   1.845   3.663   5.731 -0.8816 -0.1346  0.2991
   11MOL   O217 6037   1.724   3.714   5.678 -0.6465  0.6332 -0.5125
   11MOL   H218 6038   2.235   3.219   5.848  1.0585  0.9909  0.4016
   11MOL   H219 6039   2.346   3.241   5.712  0.8482 -1.2481 -1.2168
   11MOL   H220 6040   2.448   3.246   5.989  2.5322 -3.5476 -1.9731
   11MOL   H221 6041   2.601   3.224   5.836 -1.2772 -0.6091 -1.0769
   11MOL   H222 6042   2.443   3.513   5.934 -2.0348  1.6630 -0.2111
   11MOL   H223 6043   2.319   3.460   5.809 -0.3955  0.8174 -0.4274
   11MOL   H224 6044   2.206   3.639   5.941  2.3753  0.4806  0.5298
   11MOL   H225 6045   2.304   3.634   6.076 -0.2675  0.6805 -1.0259
   11MOL   H226 6046   2.066   3.687   6.141  0.1769 -0.4579  0.2960
   11MOL   H227 6047   2.116   3.521   6.208  1.9125 -0.2415  0.4569
   11MOL   H228 6048   2.002   3.415   6.021 -0.9465 -0.3768  0.4273
   11MOL   H229 6049   1.892   3.534   6.100 -1.0499 -1.9895 -0.6372
   11MOL   H230 6050   1.770   3.625   5.940  2.9203 -0.5229  2.4797
   11MOL   H231 6051   1.711   3.462   5.808 -0.9910 -1.9044  1.6329
   11MOL   H232 6052   1.913   3.747   5.748 -1.6908  0.4759  0.5247
   11MOL   H233 6053   1.892   3.590   5.664  2.6692  1.2325  1.1526
   11MOL   C234 6054   1.721   3.741   5.543  0.7115 -0.2961  0.0226
   11MOL   C235 6055   1.576   3.732   5.486  0.1252  0.4183 -0.1960
   11MOL   O236 6056   1.531   3.598   5.464  0.2228  0.1881  0.1867
   11MOL   C237 6057   1.565   3.802   5.354  0.4916  0.8480  1.0566
   11MOL   O238 6058   1.428   3.821   5.323  0.2085 -0.3819 -0.2382
   11MOL   C239 6059   1.399   3.891   5.200  0.0860 -0.0789  0.0489
   11MOL   C240 6060   1.242   3.870   5.189 -0.0039  1.0838  0.2253
   11MOL   C241 6061   1.163   3.979   5.264 -0.2516 -0.0638 -0.4746
   11MOL   O242 6062   1.155   4.107   5.205 -0.2466 -0.3079 -0.2888
   11MOL   C243 6063   1.141   4.217   5.290  0.1798  0.5548  0.2811
   11MOL   O244 6064   1.007   4.231   5.332  0.1732  0.6972  0.4144
   11MOL   C245 6065   1.176   4.349   5.215  0.1045 -0.3427  0.1422
   11MOL   O246 6066   1.313   4.376   5.231 -0.1657 -0.5397 -0.6432
   11MOL   H247 6067   1.763   3.841   5.531 -0.3915  0.2797  0.7859
   11MOL   H248 6068   1.778   3.677   5.476 -0.0898 -0.1585 -0.8092
   11MOL   H249 6069   1.502   3.766   5.558  0.0366  0.4715 -0.3124
   11MOL   H250 6070   1.436   3.597   5.459  0.3599 -1.0136 -2.7151
   11MOL   H251 6071   1.620   3.896   5.362 -0.6560  1.7823 -1.5585
   11MOL   H252 6072   1.608   3.748   5.269 -1.0386  0.4835  0.4977
   11MOL   H253 6073   1.450   3.836   5.120 -1.4260 -2.8904  0.9222
   11MOL   H254 6074   1.416   3.998   5.203 -1.6292  0.4480 -4.4867
   11MOL   H255 6075   1.233   3.774   5.239 -2.1674  1.6329  0.9418
   11MOL   H256 6076   1.212   3.861   5.085 -0.4810  0.9430  0.3730
   11MOL   H257 6077   1.062   3.939   5.271 -0.5069  0.3304 -1.7572
   11MOL   H258 6078   1.197   3.993   5.367  1.3584 -1.2872 -0.8212
   11MOL   H259 6079   1.199   4.196   5.380 -3.0597  1.3334  2.6581
   11MOL   H260 6080   0.955   4.241   5.254 -1.0118 -0.2734  1.0735
   11MOL   H261 6081   1.154   4.348   5.109  2.1882  1.8171 -0.3599
   11MOL   H262 6082   1.122   4.435   5.256  0.8487  0.2566 -0.1035
   11MOL   C263 6083   1.349   4.496   5.167 -0.0978 -0.1664  0.1510
   11MOL   C264 6084   1.497   4.535   5.197  0.3925  0.1752 -0.2390
   11MOL   O265 6085   1.573   4.425   5.148 -0.5050  0.0128 -0.3982
   11MOL   C266 6086   1.551   4.653   5.114  0.1555  0.1112 -0.4083
   11MOL   O267 6087   1.683   4.699   5.157  0.4437 -0.4403  0.0608
   11MOL   C268 6088   1.770   4.752   5.053  0.0899  0.5100 -0.5777
   11MOL   C269 6089   1.828   4.630   4.979  0.5705 -0.2104  0.3939
   11MOL   C270 6090   1.919   4.540   5.071 -0.5833  0.6585 -0.3769
   11MOL   O271 6091   1.953   4.414   5.015  0.2002 -0.4416 -0.2466
   11MOL   C272 6092   2.061   4.343   5.059  0.0267  0.3189  0.4172
   11MOL   O273 6093   2.182   4.406   5.013  0.1718  0.3777  0.3877
   11MOL   C274 6094   2.064   4.320   5.209  0.3419  0.4496 -0.6699
   11MOL   O275 6095   2.066   4.180   5.229  0.4319  0.4424  0.0459
   11MOL   H276 6096   1.285   4.576   5.204 -1.9195 -0.9011 -1.3092
   11MOL   H277 6097   1.338   4.487   5.059 -0.5731 -1.2155  0.2787
   11MOL   H278 6098   1.516   4.530   5.304  1.6821  0.7136 -0.4246
   11MOL   H279 6099   1.548   4.392   5.063  1.8639 -0.1598 -1.0489
   11MOL   H280 6100   1.542   4.646   5.005 -1.3214  0.2123 -0.2980
   11MOL   H281 6101   1.481   4.735   5.131  1.9956  1.6265  0.1230
   11MOL   H282 6102   1.844   4.821   5.095 -1.0445  0.9549  0.7231
   11MOL   H283 6103   1.707   4.802   4.979  1.4496  1.9799 -0.7825
   11MOL   H284 6104   1.885   4.655   4.889  1.8914  0.0274  1.2889
   11MOL   H285 6105   1.747   4.569   4.937 -0.6364  0.3611  1.8671
   11MOL   H286 6106   2.001   4.609   5.093 -2.0739  2.0515  0.8809
   11MOL   H287 6107   1.869   4.537   5.167  1.0080  0.9268  0.4745
   11MOL   H288 6108   2.046   4.245   5.013 -2.1891 -0.2139  2.2037
   11MOL   H289 6109   2.250   4.341   5.023  0.8338  1.0900  0.5277
   11MOL   H290 6110   2.155   4.358   5.256 -0.9814  0.6219  1.8535
   11MOL   H291 6111   1.983   4.373   5.258 -0.5142 -1.7261  0.3379
   11MOL   C292 6112   2.037   4.151   5.364  0.3688  0.7355 -0.2566
   11MOL   C293 6113   2.031   4.002   5.380 -0.1498  0.2405  0.1253
   11MOL   O294 6114   1.924   3.951   5.311 -0.6875  0.6239  0.0621
   11MOL   C295 6115   2.158   3.918   5.355  0.4188 -0.3605  0.2590
   11MOL   O296 6116   2.235   3.922   5.472  0.1190  0.1581 -0.1030
   11MOL   C297 6117   2.353   3.842   5.467 -0.5617 -0.1313 -0.8420
   11MOL   C298 6118   2.335   3.688   5.498  1.1686  0.1492 -0.3318
   11MOL   C299 6119   2.447   3.603   5.436 -0.4662  0.5447  0.8068
   11MOL   O300 6120   2.448   3.476   5.492  0.2955  0.5017 -0.1551
   11MOL   C301 6121   2.572   3.402   5.489  0.2444  0.1094 -0.2991
   11MOL   O302 6122   2.657   3.444   5.598  0.8214  0.2515  0.3747
   11MOL   C303 6123   2.549   3.251   5.489  0.1088 -0.1222  0.2718
   11MOL   O304 6124   2.638   3.189   5.408  0.2206 -0.8785  0.5450
   11MOL   H305 6125   2.105   4.192   5.439  3.2700 -0.1539 -2.3292
   11MOL   H306 6126   1.949   4.208   5.396 -0.5635  0.4710 -2.2680
   11MOL   H307 6127   2.001   3.977   5.481 -0.5361  0.9640  0.1872
   11MOL   H308 6128   1.960   3.932   5.226  1.3757  0.3235  0.9704
   11MOL   H309 6129   2.133   3.813   5.341  3.2278 -1.1062  0.5067
   11MOL   H310 6130   2.208   3.945   5.262  0.9716 -0.3600  0.5509
   11MOL   H311 6131   2.415   3.869   5.553 -1.0295 -3.1158  0.4868
   11MOL   H312 6132   2.415   3.856   5.378  1.6871  0.3082  0.7280
   11MOL   H313 6133   2.247   3.635   5.462  1.4790 -0.8924  0.4215
   11MOL   H314 6134   2.337   3.673   5.606  2.3076  1.3382 -0.1898
   11MOL   H315 6135   2.425   3.589   5.330 -1.0433  0.2155  0.9640
   11MOL   H316 6136   2.542   3.655   5.444 -0.5221  1.2058 -2.2424
   11MOL   H317 6137   2.635   3.426   5.403  2.7915  1.1075  1.7803
   11MOL   H318 6138   2.616   3.399   5.670 -2.0272 -0.2818 -1.5135
   11MOL   H319 6139   2.450   3.208   5.496  0.3805 -0.5558  1.7264
   11MOL   H320 6140   2.592   3.223   5.585  0.8606 -0.2801 -0.1058
   11MOL   C321 6141   2.611   3.052   5.397  0.5161 -0.2170 -0.1571
   11MOL   C322 6142   2.708   2.986   5.302 -0.0946 -0.1454 -0.1510
   11MOL   O323 6143   2.823   2.949   5.366  0.2186  0.3497  0.3111
   11MOL   C324 6144   2.649   2.863   5.234  0.0358  0.0639  0.9352
   11MOL   O325 6145   2.681   2.888   5.095  0.3834  0.6661 -0.2231
   11MOL   C326 6146   2.632   2.794   5.009  0.2251 -0.0166  0.4579
   11MOL   C327 6147   2.690   2.815   4.875  0.0226  0.2356  0.3442
   11MOL   C328 6148   2.662   2.696   4.778 -0.2711  0.1375  0.4652
   11MOL   O329 6149   2.514   2.693   4.777  0.3355  0.4104  0.2274
   11MOL   C330 6150   2.466   2.627   4.669 -0.0707  1.2557 -0.6856
   11MOL   O331 6151   2.477   2.483   4.678 -0.4457 -0.4967  0.5432
   11MOL   C332 6152   2.313   2.659   4.668 -0.9567  0.7115  0.4116
   11MOL   O333 6153   2.241   2.599   4.775  0.1420 -0.2559 -0.0276
   11MOL   H334 6154   2.508   3.035   5.365 -0.9428  0.5373  3.8343
   11MOL   H335 6155   2.624   3.004   5.494 -1.9242  0.9399  0.7670
   11MOL   H336 6156   2.726   3.059   5.223  0.0384 -0.7332 -0.6653
   11MOL   H337 6157   2.873   3.019   5.405  1.3673  0.6345 -1.6250
   11MOL   H338 6158   2.540   2.863   5.240  0.0008  0.8652  0.2997
   11MOL   H339 6159   2.679   2.767   5.277 -0.9580 -1.1964 -1.1269
   11MOL   H340 6160   2.527   2.823   5.006  0.6850  1.6003 -0.8274
   11MOL   H341 6161   2.643   2.692   5.046 -1.4032 -0.6371 -0.7178
   11MOL   H342 6162   2.664   2.915   4.839  0.7100  0.9711  1.8545
   11MOL   H343 6163   2.799   2.810   4.882  0.0454  0.4475  0.1859
   11MOL   H344 6164   2.714   2.729   4.688  1.1784 -2.2531  0.3903
   11MOL   H345 6165   2.708   2.603   4.810 -0.8376 -0.0507  0.7453
   11MOL   H346 6166   2.517   2.658   4.577 -1.1777 -1.7479 -2.3883
   11MOL   H347 6167   2.421   2.458   4.750 -1.2992  2.2017  0.8832
   11MOL   H348 6168   2.294   2.766   4.660 -0.5749  0.5922 -2.7653
   11MOL   H349 6169   2.279   2.625   4.571 -1.2916 -0.1237  0.8212
   11MOL   C350 6170   2.112   2.655   4.798  0.7138 -0.1301 -0.7377
   11MOL   C351 6171   2.067   2.633   4.942  1.4869  0.1303  0.8419
   11MOL   O352 6172   2.169   2.692   5.018 -0.1556  0.4200 -0.0724
   11MOL   C353 6173   1.928   2.688   4.983 -0.1717 -0.4784 -0.1170
   11MOL   O354 6174   1.905   2.628   5.111 -0.0786 -0.0241  0.0349
   11MOL   C355 6175   1.783   2.671   5.171  0.2202  0.0012 -0.0000
   11MOL   C356 6176   1.764   2.590   5.296  0.2040  0.1257  0.6734
   11MOL   C357 6177   1.656   2.647   5.385 -0.6797  0.7072  0.0119
   11MOL   O358 6178   1.532   2.603   5.325 -0.6256 -0.6272 -0.1249
   11MOL   C359 6179   1.420   2.635   5.392  0.2990 -0.4254  0.3168
   11MOL   O360 6180   1.398   2.769   5.379 -0.0937  0.3711 -0.2793
   11MOL   C361 6181   1.300   2.557   5.327 -0.3803  0.2126  0.0434
   11MOL   O362 6182   1.270   2.591   5.192  0.3471  0.2720  0.0687
   11MOL   H363 6183   2.043   2.609   4.727 -0.6149 -0.2695  0.6006
   11MOL   H364 6184   2.117   2.763   4.785  0.0209 -0.0956 -0.7432
   11MOL   H365 6185   2.066   2.526   4.957 -1.0374 -0.1472 -1.0520
   11MOL   H366 6186   2.250   2.652   4.991  0.0024 -0.1517  1.2249
   11MOL   H367 6187   1.932   2.797   4.985  2.0755 -0.4843 -1.8962
   11MOL   H368 6188   1.856   2.660   4.905  2.0052 -2.4017 -1.4828
   11MOL   H369 6189   1.698   2.665   5.102 -0.9262 -1.9264  1.5495
   11MOL   H370 6190   1.806   2.775   5.196 -1.1172  0.4428 -0.5106
   11MOL   H371 6191   1.856   2.587   5.354 -0.1673 -0.9203  1.2114
   11MOL   H372 6192   1.734   2.490   5.263  0.0599  0.8314 -1.4496
   11MOL   H373 6193   1.652   2.591   5.479 -0.8245  2.5968  1.1640
   11MOL   H374 6194   1.666   2.752   5.413 -0.1835 -0.0242  2.6928
   11MOL   H375 6195   1.435   2.612   5.497 -1.2231 -2.7411  0.0527
   11MOL   H376 6196   1.333   2.783   5.312 -0.5073 -0.6751 -0.1021
   11MOL   H377 6197   1.319   2.450   5.327  0.0590  0.2916  0.4141
   11MOL   H378 6198   1.211   2.559   5.390  0.2784  2.3905  0.9387
   11MOL   C379 6199   1.160   2.519   5.142 -0.1347  0.1364  0.3309
   11MOL   C380 6200   1.030   2.608   5.153  0.5422  0.2123  0.2067
   11MOL   O381 6201   1.035   2.720   5.069 -0.0551  1.0023 -0.3531
   11MOL   C382 6202   0.904   2.525   5.102  0.1837 -0.1236 -0.3400
   11MOL   O383 6203   0.906   2.542   4.961 -0.4523  0.1424  0.3287
   11MOL   C384 6204   0.805   2.473   4.894 -0.3274 -0.1196  0.2714
   11MOL   C385 6205   0.846   2.456   4.741 -1.0772  0.9621  0.2615
   11MOL   C386 6206   0.978   2.396   4.700  0.4759  0.2279 -0.1273
   11MOL   O387 6207   1.019   2.433   4.575  0.0978  0.2987 -0.7532
   11MOL   C388 6208   1.129   2.373   4.527  0.1520 -0.9246  0.5882
   11MOL   O389 6209   1.152   2.396   4.393  0.0961  0.3448 -0.2941
   11MOL   C390 6210   1.257   2.398   4.611 -0.4489  0.2781  0.2511
   11MOL   O391 6211   1.278   2.536   4.627 -0.6473 -0.6188  0.5388
   11MOL   H392 6212   1.150   2.426   5.197 -0.8313 -1.2627 -2.0807
   11MOL   H393 6213   1.162   2.496   5.035 -0.9476 -0.0195  0.3437
   11MOL   H394 6214   1.020   2.634   5.259  1.9103  0.8742  0.1816
   11MOL   H395 6215   0.983   2.686   4.998 -1.3175  0.7598  0.6688
   11MOL   H396 6216   0.907   2.419   5.126 -0.4965  0.4011  2.1909
   11MOL   H397 6217   0.814   2.576   5.135  0.0059 -0.0918 -0.8709
   11MOL   H398 6218   0.708   2.519   4.913  0.4169  1.9355 -0.7370
   11MOL   H399 6219   0.791   2.369   4.925 -0.5304 -0.4120 -0.7775
   11MOL   H400 6220   0.840   2.556   4.699  0.9028  0.9581 -0.0855
   11MOL   H401 6221   0.769   2.397   4.691 -0.0652  0.6469 -0.9303
   11MOL   H402 6222   1.050   2.415   4.781  0.4899 -1.2268  0.2218
   11MOL   H403 6223   0.958   2.288   4.700 -0.8142  0.4619 -0.0513
   11MOL   H404 6224   1.115   2.265   4.533 -1.2588 -0.7071  1.3213
   11MOL   H405 6225   1.161   2.490   4.392 -1.3137  0.5233  1.3206
   11MOL   H406 6226   1.245   2.345   4.705  0.0293  0.1034  0.2101
   11MOL   H407 6227   1.338   2.354   4.554 -0.9263  0.0219 -0.2437
   11MOL   C408 6228   1.400   2.574   4.698  0.1392 -0.0993  0.9167
   11MOL   C409 6229   1.535   2.527   4.632  0.4815  0.3708  0.7309
   11MOL   O410 6230   1.652   2.584   4.687  0.2073  0.2912 -0.0727
   11MOL   C411 6231   1.534   2.572   4.483  0.5107 -0.7901 -0.3634
   11MOL   O412 6232   1.647   2.515   4.427  0.8636 -0.1510 -0.1741
   11MOL   C413 6233   1.695   2.583   4.310 -0.0995 -0.4011  0.1479
   11MOL   C414 6234   1.784   2.481   4.235  0.0627 -0.2272 -0.1758
   11MOL   C415 6235   1.814   2.532   4.095 -1.3005  0.6751  0.1213
   11MOL   O416 6236   1.930   2.465   4.038 -0.1932  0.1697  0.2999
   11MOL   C417 6237   2.004   2.537   3.944 -0.1347  0.0377  0.2371
   11MOL   O418 6238   1.939   2.545   3.822  0.2867 -0.5840 -0.4383
   11MOL   C419 6239   2.145   2.475   3.920  0.3101 -0.1113 -0.3605
   11MOL   O420 6240   2.238   2.577   3.886 -0.1669  0.1262  0.0762
   11MOL   H421 6241   1.394   2.544   4.802 -3.5541  0.0644  0.7915
   11MOL   H422 6242   1.405   2.682   4.706 -2.3125  0.2037 -1.0619
   11MOL   H423 6243   1.540   2.419   4.637 -3.3021  0.0622 -0.6965
   11MOL   H424 6244   1.712   2.511   4.683 -0.7624 -0.5786  1.0207
   11MOL   H425 6245   1.436   2.567   4.438  0.9918  0.0191 -1.5215
   11MOL   H426 6246   1.539   2.681   4.483 -1.9467 -0.6595 -1.1465
   11MOL   H427 6247   1.610   2.605   4.244  0.6026  1.0783 -0.2730
   11MOL   H428 6248   1.742   2.678   4.334  0.8976 -0.8781  0.1224
   11MOL   H429 6249   1.726   2.389   4.228  0.5031 -0.4536 -0.9924
   11MOL   H430 6250   1.876   2.472   4.291  0.5351  0.7420 -0.7763
   11MOL   H431 6251   1.730   2.515   4.027 -0.4160 -0.6238 -0.6743
   11MOL   H432 6252   1.839   2.637   4.104 -2.6470  0.9949  0.2787
   11MOL   H433 6253   2.027   2.638   3.980  0.8801  0.3028 -1.1218
   11MOL   H434 6254   1.951   2.459   3.784  2.3261  0.2161 -1.6278
   11MOL   H435 6255   2.158   2.435   4.020  0.1131  1.6057  0.3753
   11MOL   H436 6256   2.146   2.392   3.849  0.7078 -1.3386  1.0523
   11MOL   C437 6257   2.372   2.544   3.913  0.0732  0.2781 -0.0936
   11MOL   C438 6258   2.475   2.647   3.880 -0.0741  0.0220 -0.0188
   11MOL   O439 6259   2.501   2.648   3.743  0.0975  0.5410  0.0662
   11MOL   C440 6260   2.608   2.622   3.961 -0.0386 -0.0471  0.2238
   11MOL   O441 6261   2.590   2.635   4.098 -0.4827 -0.9949 -0.1348
   11MOL   C442 6262   2.696   2.708   4.165 -0.0583 -0.0427 -0.8944
   11MOL   C443 6263   2.685   2.684   4.315  0.4016 -0.0714  0.3994
   11MOL   C444 6264   2.682   2.538   4.356 -0.5525  0.4387 -0.0029
   11MOL   O445 6265   2.738   2.526   4.483  0.0994  0.5975  0.1847
   11MOL   C446 6266   2.759   2.394   4.514  0.3229  0.8567 -0.3423
   11MOL   O447 6267   2.640   2.315   4.518 -0.4484  0.3144  0.6010
   11MOL   C448 6268   2.842   2.404   4.649  0.1561  0.3677  0.9916
   11MOL   O449 6269   2.946   2.300   4.655  0.0967  0.0519  0.5177
   11MOL   H450 6270   2.371   2.530   4.021  0.0693 -0.2591 -0.1596
   11MOL   H451 6271   2.393   2.450   3.861 -3.7940  0.7470 -2.7420
   11MOL   H452 6272   2.429   2.740   3.914 -1.8430 -1.1752  0.9818
   11MOL   H453 6273   2.422   2.655   3.693 -0.7848 -0.1907  1.3317
   11MOL   H454 6274   2.643   2.523   3.934  0.5705  0.4023 -0.6484
   11MOL   H455 6275   2.672   2.708   3.939  0.2009 -0.1638  0.4601
   11MOL   H456 6276   2.685   2.811   4.133  0.1786 -0.4126 -2.2060
   11MOL   H457 6277   2.794   2.669   4.136 -0.1791 -0.5684 -0.6050
   11MOL   H458 6278   2.595   2.729   4.358  0.2449 -1.9214  2.0487
   11MOL   H459 6279   2.779   2.715   4.361 -0.6828  0.9167  2.0149
   11MOL   H460 6280   2.585   2.487   4.347  0.8429 -2.2504 -0.3137
   11MOL   H461 6281   2.751   2.492   4.286  0.5035 -1.2758  2.1043
   11MOL   H462 6282   2.828   2.350   4.441  1.0532  2.5851 -0.7127
   11MOL   H463 6283   2.581   2.355   4.580 -1.6651 -1.9892  0.9736
   11MOL   H464 6284   2.889   2.503   4.655  2.1878 -0.3418 -1.7629
   11MOL   H465 6285   2.777   2.387   4.734 -1.0445  0.9005  0.1930
   11MOL   C466 6286   2.904   2.176   4.697 -0.0837  0.2340 -0.9892
   11MOL   C467 6287   3.008   2.070   4.651  0.5578  0.6295  0.2720
   11MOL   O468 6288   3.034   2.084   4.514 -0.3012 -0.0244 -0.2244
   11MOL   C469 6289   3.141   2.063   4.727  0.4745 -0.4868  0.3268
   11MOL   O470 6290   3.187   1.924   4.736  0.0822 -0.4658 -0.5571
   11MOL   C471 6291   3.268   1.891   4.844 -0.0594 -0.0765  0.0343
   11MOL   C472 6292   3.255   1.735   4.850 -0.0059 -0.1633 -0.1603
   11MOL   C473 6293   3.351   1.681   4.950  0.4216  1.0823  0.0980
   11MOL   O474 6294   3.481   1.699   4.898  0.4104  0.4265 -0.8820
   11MOL   C475 6295   3.582   1.634   4.964 -0.1071 -0.1334 -0.4430
   11MOL   O476 6296   3.609   1.706   5.082  0.3779  0.0315 -0.2355
   11MOL   C477 6297   3.702   1.631   4.869  0.0114 -0.1016  0.0509
   11MOL   O478 6298   3.732   1.489   4.837  0.5314 -0.4873  0.2134
   11MOL   H479 6299   2.806   2.161   4.652 -0.2080 -0.7616 -0.3977
   11MOL   H480 6300   2.906   2.180   4.806 -0.4885 -0.2142 -0.9637
   11MOL   H481 6301   2.953   1.976   4.656 -0.6821  1.3647  0.9270
   11MOL   H482 6302   3.115   2.131   4.518 -1.1775  1.4224  0.8706
   11MOL   H483 6303   3.213   2.133   4.684  0.2603  0.8150  2.0397
   11MOL   H484 6304   3.129   2.095   4.831  1.7779  0.9384  0.0624
   11MOL   H485 6305   3.244   1.944   4.936  0.2391  0.9008 -0.4516
   11MOL   H486 6306   3.371   1.917   4.819  0.0275  0.0860  0.5508
   11MOL   H487 6307   3.269   1.688   4.753  0.7194  0.9173 -0.5918
   11MOL   H488 6308   3.157   1.698   4.879  0.0071 -2.0255 -2.4408
   11MOL   H489 6309   3.343   1.732   5.046 -0.0564  0.3809  0.4394
   11MOL   H490 6310   3.330   1.575   4.964  2.2383  0.7330  0.3129
   11MOL   H491 6311   3.549   1.535   4.993 -0.2104  0.3416  1.1349
   11MOL   H492 6312   3.640   1.642   5.143  1.2720 -0.2310 -0.9539
   11MOL   H493 6313   3.677   1.664   4.769 -2.6815 -0.2802  0.6329
   11MOL   H494 6314   3.790   1.685   4.907  0.8668 -0.1789 -1.7692
   11MOL   C495 6315   3.626   1.429   4.765 -0.4212  0.4908 -0.1101
   11MOL   C496 6316   3.617   1.288   4.800  0.3471  0.1350 -0.6602
   11MOL   O497 6317   3.536   1.273   4.922 -0.4819  0.2285  0.6214
   11MOL   C498 6318   3.544   1.212   4.690  0.3200  0.4372 -0.4429
   11MOL   O499 6319   3.531   1.076   4.729  0.4730  0.1809  0.3555
   11MOL   C500 6320   3.435   0.999   4.664  0.4563  0.1136 -0.3985
   11MOL   C501 6321   3.464   0.853   4.693 -0.6115 -0.2624  0.4941
   11MOL   C502 6322   3.416   0.766   4.582 -0.8907  0.4311 -0.0455
   11MOL   O503 6323   3.449   0.635   4.610  0.4894 -0.8793  0.1179
   11MOL   C504 6324   3.459   0.552   4.503  0.5362  0.5838 -0.8151
   11MOL   O505 6325   3.432   0.422   4.545  0.2747 -0.3136  0.0603
   11MOL   C506 6326   3.607   0.554   4.456  0.3864 -0.1219 -0.3057
   11MOL   O507 6327   3.617   0.657   4.357 -0.2719  0.0987 -0.7166
   11MOL   H508 6328   3.664   1.423   4.663  0.1205 -3.0647  0.2231
   11MOL   H509 6329   3.527   1.473   4.756 -0.6023 -0.1883 -1.8487
   11MOL   H510 6330   3.717   1.253   4.827  0.1006 -1.3682 -1.5939
   11MOL   H511 6331   3.462   1.217   4.902  0.4368  0.3252 -3.4377
   11MOL   H512 6332   3.447   1.259   4.678 -0.1346 -0.6138 -0.9712
   11MOL   H513 6333   3.591   1.219   4.592 -1.4137  1.8937 -1.1711
   11MOL   H514 6334   3.439   1.017   4.556  0.8118 -3.4911 -1.0432
   11MOL   H515 6335   3.331   1.019   4.691  0.6709 -0.8977  1.2399
   11MOL   H516 6336   3.417   0.819   4.785 -0.1435 -0.9587  0.4879
   11MOL   H517 6337   3.572   0.836   4.695 -0.7355 -0.8610  2.6936
   11MOL   H518 6338   3.308   0.777   4.573 -0.7394  0.0349 -2.8180
   11MOL   H519 6339   3.450   0.808   4.486  1.8803 -1.2994  0.1224
   11MOL   H520 6340   3.395   0.573   4.418 -2.5012 -1.5368  0.8708
   11MOL   H521 6341   3.391   0.382   4.469 -0.6253 -1.4933  1.1451
   11MOL   H522 6342   3.673   0.569   4.541 -0.1890 -2.6198  0.6281
   11MOL   H523 6343   3.620   0.457   4.409  1.4019  0.6999 -1.7760
   11MOL   C524 6344   3.744   0.725   4.360  0.1492  0.1923 -0.0863
   11MOL   C525 6345   3.862   0.647   4.312  0.7758  0.3432 -0.4287
   11MOL   O526 6346   3.980   0.723   4.330 -0.1263  0.0604  0.0884
   11MOL   C527 6347   3.853   0.618   4.161  0.3788 -0.0468  0.4675
   11MOL   O528 6348   3.930   0.508   4.127 -0.3748  0.0176 -0.3410
   11MOL   C529 6349   3.920   0.468   3.993  0.2070  0.0178  0.4670
   11MOL   C530 6350   3.988   0.571   3.901  0.0243 -0.0953 -0.1535
   11MOL   C531 6351   4.006   0.544   3.755  0.3170 -0.3701  0.1895
   11MOL   O532 6352   3.889   0.493   3.698  0.4802  0.2793  0.2268
   11MOL   C533 6353   3.880   0.507   3.565 -0.4108  0.5418 -0.2566
   11MOL   O534 6354   3.959   0.417   3.491 -0.0852  0.0504 -0.2313
   11MOL   C535 6355   3.736   0.471   3.538  0.2838  0.0419 -0.4966
   11MOL   O536 6356   3.717   0.326   3.548  0.2640  0.2079  0.4229
   11MOL   H537 6357   3.754   0.741   4.467 -3.0652 -1.2136  0.5036
   11MOL   H538 6358   3.731   0.817   4.304 -2.0014  0.4149  0.7569
   11MOL   H539 6359   3.876   0.555   4.369  3.7783  0.6500 -0.5615
   11MOL   H540 6360   4.051   0.661   4.336 -0.3661 -0.1290  0.9868
   11MOL   H541 6361   3.751   0.585   4.140  0.5738 -0.0668 -0.4797
   11MOL   H542 6362   3.859   0.708   4.099  0.3077  0.2340  0.8604
   11MOL   H543 6363   3.820   0.454   3.952  0.3402 -0.0664  0.1695
   11MOL   H544 6364   3.961   0.368   3.984  0.1678  0.0019  0.4649
   11MOL   H545 6365   4.084   0.611   3.934  0.6388 -1.1323 -0.6569
   11MOL   H546 6366   3.938   0.668   3.901 -0.1994 -0.2059  1.0124
   11MOL   H547 6367   4.027   0.647   3.726 -0.4584 -0.2150  0.1677
   11MOL   H548 6368   4.091   0.479   3.735 -1.1113 -2.0162 -0.7019
   11MOL   H549 6369   3.902   0.607   3.529 -1.4320  0.6866 -0.4888
   11MOL   H550 6370   3.913   0.335   3.479  0.5026 -0.4875  1.0675
   11MOL   H551 6371   3.671   0.528   3.604 -0.4618 -3.3561  1.8207
   11MOL   H552 6372   3.717   0.496   3.433  0.4957 -1.5050 -0.9223
   11MOL   C553 6373   3.581   0.302   3.533 -0.1502  0.0796  0.0647
   11MOL   C554 6374   3.552   0.152   3.566 -0.1007  0.3052  0.9798
   11MOL   O555 6375   3.531   0.084   3.437  0.3729 -0.3146 -0.0785
   11MOL   C556 6376   3.447   0.112   3.669  0.1939 -0.2444 -0.0599
   11MOL   O557 6377   3.504   0.106   3.801  0.8491 -0.1877 -0.9202
   11MOL   C558 6378   3.564   0.227   3.843  0.0084  1.0517 -0.5803
   11MOL   C559 6379   3.588   0.225   3.995 -0.7644 -0.7491  0.0612
   11MOL   C560 6380   3.462   0.188   4.076 -0.4317 -0.0799 -0.3179
   11MOL   O561 6381   3.380   0.308   4.094  0.4331 -0.0411  0.0587
   11MOL   C562 6382   3.264   0.291   4.166  0.5437  0.0847 -0.1376
   11MOL   O563 6383   3.280   0.289   4.307  0.0524  0.4215 -0.5730
   11MOL   C564 6384   3.170   0.407   4.127 -0.2935  0.3050  0.1743
   11MOL   O565 6385   3.204   0.520   4.209  0.2915  0.4804  0.3571
   11MOL   H566 6386   3.545   0.327   3.433  3.1205  1.6871 -0.7875
   11MOL   H567 6387   3.530   0.365   3.606 -1.8489  0.3973 -1.3370
   11MOL   H568 6388   3.647   0.108   3.598  0.2587  0.7069  0.4791
   11MOL   H569 6389   3.447   0.102   3.398  1.1987  2.4555 -0.7058
   11MOL   H570 6390   3.361   0.179   3.663 -0.1218 -0.4264  1.9895
   11MOL   H571 6391   3.411   0.011   3.651 -0.8791 -0.0792  1.0599
   11MOL   H572 6392   3.660   0.227   3.793  0.9340 -1.8595  1.0959
   11MOL   H573 6393   3.503   0.313   3.815  1.0332  1.5926 -1.1737
   11MOL   H574 6394   3.626   0.320   4.033  0.8602 -2.2998  2.4682
   11MOL   H575 6395   3.671   0.159   4.023  0.5268  0.5578 -0.5723
   11MOL   H576 6396   3.393   0.114   4.035 -0.5805  0.3358 -0.8152
   11MOL   H577 6397   3.499   0.152   4.172  2.5396  1.2252 -0.9321
   11MOL   H578 6398   3.217   0.194   4.151  1.9233 -0.7606  0.8700
   11MOL   H579 6399   3.198   0.268   4.347  0.4399 -1.7895 -0.8452
   11MOL   H580 6400   3.183   0.414   4.019 -0.4671 -1.0015  0.0593
   11MOL   H581 6401   3.064   0.384   4.142  0.1333 -2.1693 -0.4304
   11MOL   H582 6402   3.292   0.542   4.184  0.1589 -0.9308 -1.4339
   12MOL     C1 6403   6.749   4.913   4.303  0.1803 -0.2148  0.2207
   12MOL     C2 6404   6.644   5.022   4.304  0.2455 -0.0778 -0.3483
   12MOL     O3 6405   6.704   5.144   4.339 -0.0280 -0.1378 -0.5236
   12MOL     C4 6406   6.582   5.042   4.171 -0.3384  0.0995 -0.0020
   12MOL     O5 6407   6.693   5.075   4.077 -0.0121  0.0101 -0.5105
   12MOL     C6 6408   6.653   5.111   3.945 -0.4618 -0.1980 -0.6227
   12MOL     C7 6409   6.788   5.130   3.870 -0.3121 -0.1170  0.5405
   12MOL     C8 6410   6.752   5.188   3.733 -0.7737 -0.1955 -0.6457
   12MOL     O9 6411   6.702   5.088   3.656 -0.2410  0.2191 -0.1308
   12MOL    C10 6412   6.644   5.118   3.533 -0.1754  0.6341  0.5382
   12MOL    O11 6413   6.510   5.158   3.558 -0.6581 -0.3712  0.1562
   12MOL    C12 6414   6.646   4.987   3.442 -0.3661 -0.0664  0.6509
   12MOL    O13 6415   6.637   5.018   3.300  0.1907  0.0680 -0.2088
   12MOL    H14 6416   6.825   4.941   4.230  0.7413 -1.0039  0.5027
   12MOL    H15 6417   6.714   4.815   4.272  1.4024 -0.6381  0.1583
   12MOL    H16 6418   6.567   5.009   4.381  0.1954  1.6118 -0.1079
   12MOL    H17 6419   6.761   5.160   4.265 -1.1736 -0.1650 -1.4333
   12MOL    H18 6420   6.526   4.956   4.136  0.4667 -0.9946  1.3650
   12MOL    H19 6421   6.510   5.124   4.178 -0.9662 -0.4564  0.0673
   12MOL    H20 6422   6.595   5.203   3.939 -1.8193 -1.2281 -4.0758
   12MOL    H21 6423   6.587   5.037   3.899 -2.2931 -1.1559  3.3171
   12MOL    H22 6424   6.847   5.039   3.867  0.1867  0.1726  1.3532
   12MOL    H23 6425   6.842   5.207   3.926  1.8091 -1.2400  0.0858
   12MOL    H24 6426   6.692   5.278   3.748 -0.9158 -0.2278 -1.0314
   12MOL    H25 6427   6.839   5.234   3.685  0.8858  0.8489  3.1954
   12MOL    H26 6428   6.693   5.198   3.478 -0.8120  0.1460 -0.7469
   12MOL    H27 6429   6.463   5.093   3.608  0.8062 -1.0371  0.6944
   12MOL    H28 6430   6.739   4.937   3.466  0.8397  1.5227 -0.6151
   12MOL    H29 6431   6.565   4.924   3.479 -0.7902  0.2242  0.2324
   12MOL    H30 6432   6.788   4.900   4.404 -1.8852 -0.2830  1.0302
   12MOL    C31 6433   6.652   4.910   3.209 -0.0634  0.1013  0.5171
   12MOL    C32 6434   6.507   4.855   3.180  0.3312 -0.0134 -0.3495
   12MOL    O33 6435   6.477   4.770   3.294  0.4380  0.2090 -0.2517
   12MOL    C34 6436   6.496   4.779   3.050 -0.3126  0.1638  0.0288
   12MOL    O35 6437   6.521   4.867   2.945 -0.0371 -0.3154 -0.6029
   12MOL    C36 6438   6.516   4.792   2.820 -0.3659 -0.0265  0.2055
   12MOL    C37 6439   6.535   4.881   2.690 -0.9059  0.0396  0.8059
   12MOL    C38 6440   6.535   4.793   2.560  0.3259 -0.1133  0.3157
   12MOL    O39 6441   6.524   4.873   2.443 -0.3211 -0.6100 -0.2188
   12MOL    C40 6442   6.516   4.798   2.326 -0.1352  0.0302 -0.8808
   12MOL    O41 6443   6.639   4.738   2.298 -0.1594  0.2489  0.1860
   12MOL    C42 6444   6.463   4.891   2.218 -0.3317 -0.6416  0.3563
   12MOL    O43 6445   6.338   4.951   2.264  0.2116  0.1540  0.5292
   12MOL    H44 6446   6.680   4.968   3.121  1.1687  1.3669  1.7174
   12MOL    H45 6447   6.726   4.833   3.233 -2.6039 -2.0143  1.8706
   12MOL    H46 6448   6.442   4.942   3.170 -1.9976 -2.0861 -4.0185
   12MOL    H47 6449   6.431   4.819   3.360  1.9041  3.7615 -1.7274
   12MOL    H48 6450   6.575   4.705   3.055  2.0431  2.5644 -0.3336
   12MOL    H49 6451   6.399   4.733   3.036 -0.3414  0.7353 -1.8967
   12MOL    H50 6452   6.420   4.744   2.802 -0.7779  0.9866 -0.3820
   12MOL    H51 6453   6.581   4.705   2.821 -2.6572 -1.7759  2.1418
   12MOL    H52 6454   6.628   4.936   2.703 -0.5865 -0.0451 -0.9981
   12MOL    H53 6455   6.453   4.953   2.685 -0.8535  0.0321 -0.1768
   12MOL    H54 6456   6.621   4.728   2.571  0.8157  0.2262 -1.3592
   12MOL    H55 6457   6.448   4.728   2.559  0.8472 -0.7932 -1.4359
   12MOL    H56 6458   6.438   4.722   2.340  0.3409 -0.0289  1.7272
   12MOL    H57 6459   6.689   4.799   2.245  1.4299 -1.3664 -0.2138
   12MOL    H58 6460   6.527   4.977   2.205  1.1853 -1.8302 -0.1485
   12MOL    H59 6461   6.453   4.845   2.120 -2.0640 -1.1817  0.7642
   12MOL    C60 6462   6.287   5.058   2.184  0.0165 -0.2158 -0.5312
   12MOL    C61 6463   6.161   5.120   2.262 -0.4505 -0.1692  0.5340
   12MOL    O62 6464   6.065   5.021   2.269 -0.2017 -0.8374 -0.7221
   12MOL    C63 6465   6.104   5.243   2.183 -0.0595 -0.7248 -0.1724
   12MOL    O64 6466   5.994   5.295   2.258  0.0259  0.2778  0.2056
   12MOL    C65 6467   5.944   5.412   2.201 -0.5195 -0.1418  0.2523
   12MOL    C66 6468   5.844   5.381   2.082  0.3612  0.8571 -0.3340
   12MOL    C67 6469   5.767   5.499   2.015 -0.4712 -0.8033  0.6323
   12MOL    O68 6470   5.874   5.579   1.951  0.3667 -0.8362 -0.2285
   12MOL    C69 6471   5.814   5.696   1.892 -0.0247 -0.3513 -0.1464
   12MOL    O70 6472   5.749   5.781   1.993  0.2899  0.0505 -0.0495
   12MOL    C71 6473   5.924   5.774   1.828 -0.0480 -0.1488 -0.6657
   12MOL    O72 6474   5.875   5.860   1.721 -0.7582 -0.1443 -0.0047
   12MOL    H73 6475   6.252   5.031   2.084 -1.5487 -1.8413  0.4312
   12MOL    H74 6476   6.359   5.139   2.172 -2.0910  1.9739  1.1745
   12MOL    H75 6477   6.181   5.157   2.363  1.1804 -1.2137  0.6204
   12MOL    H76 6478   5.981   5.062   2.284  0.2766 -0.3173  0.6063
   12MOL    H77 6479   6.186   5.315   2.186 -0.9670  0.3000  0.1264
   12MOL    H78 6480   6.084   5.231   2.077  0.0724 -0.8109 -0.1887
   12MOL    H79 6481   6.030   5.471   2.170  0.2377 -2.2880 -1.8725
   12MOL    H80 6482   5.892   5.466   2.281  1.9544  0.2657  1.6364
   12MOL    H81 6483   5.766   5.318   2.125 -0.3014  1.7377 -0.2380
   12MOL    H82 6484   5.881   5.306   2.012  0.8578  0.1982  0.6269
   12MOL    H83 6485   5.711   5.549   2.094  0.0492 -1.5556  1.4908
   12MOL    H84 6486   5.695   5.454   1.946  0.1686  0.3416 -0.8071
   12MOL    H85 6487   5.740   5.677   1.814  2.9486  0.4888 -3.2684
   12MOL    H86 6488   5.810   5.793   2.064  0.8087  2.2165 -0.8256
   12MOL    H87 6489   5.973   5.839   1.900 -3.1679  0.6266  0.8753
   12MOL    H88 6490   6.001   5.708   1.787 -1.9951 -1.6327 -2.0403
   12MOL    C89 6491   5.977   5.934   1.645 -0.0261 -0.4879  0.2731
   12MOL    C90 6492   5.910   5.986   1.524  0.2023  0.0059 -0.2842
   12MOL    O91 6493   5.802   6.068   1.566  0.4524  0.1428 -0.5296
   12MOL    C92 6494   6.005   6.053   1.436 -0.1611 -0.9301 -0.4675
   12MOL    O93 6495   5.951   6.055   1.304  0.2310 -0.0152  0.4243
   12MOL    C94 6496   6.003   6.160   1.227  0.3136 -0.0332  0.2957
   12MOL    C95 6497   5.921   6.168   1.093 -0.6815 -0.0388 -0.3920
   12MOL    C96 6498   5.993   6.086   0.991  1.0466  0.3723 -0.6648
   12MOL    O97 6499   5.913   6.093   0.877 -0.0913 -0.0029  0.0644
   12MOL    C98 6500   5.957   6.018   0.761 -0.7554  0.6140  0.5145
   12MOL    O99 6501   5.847   5.973   0.684  0.3731 -0.1685  0.5683
   12MOL   C100 6502   6.042   6.115   0.676 -1.2958  0.4628  0.4440
   12MOL   O101 6503   6.170   6.107   0.732 -0.0549  0.0356 -0.0345
   12MOL   H102 6504   6.056   5.862   1.625  2.2343  1.9657  0.1120
   12MOL   H103 6505   6.007   6.010   1.717 -0.8064  1.0560 -0.9998
   12MOL   H104 6506   5.862   5.906   1.469 -3.0557  0.5780  1.5860
   12MOL   H105 6507   5.787   6.055   1.659  2.4930 -1.0826 -0.3479
   12MOL   H106 6508   6.020   6.151   1.482  0.1650 -1.1142 -0.1825
   12MOL   H107 6509   6.095   5.992   1.431  0.8897  0.4457  1.3224
   12MOL   H108 6510   6.108   6.151   1.201  0.1285  1.6484 -1.1558
   12MOL   H109 6511   5.988   6.255   1.278 -2.1691  0.1837 -0.7716
   12MOL   H110 6512   5.920   6.265   1.044 -2.8015 -0.8455 -1.9623
   12MOL   H111 6513   5.822   6.127   1.113  0.5095 -2.0048  1.7902
   12MOL   H112 6514   6.096   6.118   0.973  1.2710  0.3637  0.5547
   12MOL   H113 6515   5.999   5.981   1.018 -0.6666  0.0162 -1.5899
   12MOL   H114 6516   6.005   5.925   0.794 -1.5538 -0.0024 -0.0345
   12MOL   H115 6517   5.882   5.908   0.625 -1.9080 -1.3395  0.4592
   12MOL   H116 6518   6.034   6.082   0.573  1.1873 -0.4570  0.5046
   12MOL   H117 6519   6.002   6.216   0.668 -0.6025  0.6909 -0.1248
   12MOL   C118 6520   6.262   6.158   0.637  0.0711  0.8334 -0.0995
   12MOL   C119 6521   6.398   6.102   0.668 -0.4912  0.2174 -0.0786
   12MOL   O120 6522   6.429   6.148   0.797  0.2561  0.2555  0.1664
   12MOL   C121 6523   6.513   6.123   0.570  0.1962 -0.0149  0.1768
   12MOL   O122 6524   6.610   6.021   0.594  0.0615  0.4742 -0.4591
   12MOL   C123 6525   6.719   6.027   0.513  0.1170 -0.0363 -0.0224
   12MOL   C124 6526   6.832   5.958   0.579 -0.6008 -0.0661 -0.0155
   12MOL   C125 6527   6.967   5.949   0.506  0.3378 -0.5429  0.1393
   12MOL   O126 6528   7.069   5.912   0.602  0.0143  0.3496 -0.2401
   12MOL   C127 6529   7.188   5.886   0.539  0.1556 -0.5514  0.7127
   12MOL   O128 6530   7.194   5.764   0.476  0.4387  0.0279 -0.2985
   12MOL   C129 6531   7.303   5.886   0.637  0.1600  0.5428 -0.3557
   12MOL   O130 6532   7.278   5.789   0.737 -0.3965 -0.6057  0.0374
   12MOL   H131 6533   6.234   6.135   0.534 -0.6836  0.1923  0.2528
   12MOL   H132 6534   6.268   6.267   0.640  0.4161  0.8699 -1.5700
   12MOL   H133 6535   6.386   5.994   0.682 -0.4787  0.5936  3.2408
   12MOL   H134 6536   6.434   6.075   0.857 -2.3127  0.6761  0.9874
   12MOL   H135 6537   6.472   6.114   0.469 -0.0265 -1.0012  0.3486
   12MOL   H136 6538   6.560   6.221   0.581  0.7324 -0.3579  0.9750
   12MOL   H137 6539   6.749   6.132   0.507 -2.2798  1.1159  5.0254
   12MOL   H138 6540   6.693   5.992   0.413 -1.8339  0.1500  0.3951
   12MOL   H139 6541   6.792   5.859   0.604 -3.4341  0.6283 -1.5574
   12MOL   H140 6542   6.854   6.005   0.675 -1.7241  1.1079 -0.3177
   12MOL   H141 6543   6.955   5.882   0.422  1.8868  0.4418 -0.9091
   12MOL   H142 6544   6.995   6.045   0.462  0.3291 -0.9269 -0.7034
   12MOL   H143 6545   7.201   5.963   0.463 -3.5281 -1.1596 -0.6790
   12MOL   H144 6546   7.220   5.693   0.533 -0.1059  1.4475  1.7926
   12MOL   H145 6547   7.401   5.866   0.593  0.0334  2.4305 -1.5338
   12MOL   H146 6548   7.298   5.978   0.695 -1.0905  0.0226  0.3874
   12MOL   C147 6549   7.367   5.780   0.843 -0.1531  0.0657  0.1053
   12MOL   C148 6550   7.358   5.882   0.955  0.2027 -0.0689  0.1232
   12MOL   O149 6551   7.470   5.873   1.038  0.0808 -0.0864 -0.4359
   12MOL   C150 6552   7.235   5.849   1.043  0.2319 -0.2926  0.8034
   12MOL   O151 6553   7.219   5.963   1.120  0.3060 -0.2542 -0.2852
   12MOL   C152 6554   7.086   5.981   1.178 -0.2481  0.4661 -0.0058
   12MOL   C153 6555   7.093   6.102   1.287 -0.0120  0.0612 -0.2400
   12MOL   C154 6556   6.959   6.117   1.371 -0.3764 -0.0895 -0.1594
   12MOL   O155 6557   6.960   6.221   1.469 -0.0228 -0.2385 -0.0907
   12MOL   C156 6558   6.850   6.230   1.543  0.7026 -0.0273  0.9171
   12MOL   O157 6559   6.740   6.278   1.469  0.0733 -0.0335  0.4773
   12MOL   C158 6560   6.866   6.314   1.665  0.7294  0.2906  0.3457
   12MOL   O159 6561   6.893   6.452   1.632 -0.2484  0.4473  0.0795
   12MOL   H160 6562   7.470   5.771   0.807 -0.2680 -0.6632 -0.0454
   12MOL   H161 6563   7.358   5.681   0.886 -1.8326  0.9826  1.9603
   12MOL   H162 6564   7.352   5.982   0.912 -0.0136 -0.4252 -0.6852
   12MOL   H163 6565   7.463   5.942   1.102 -0.5155 -2.0298  1.6590
   12MOL   H164 6566   7.146   5.837   0.981  0.8488  2.0281 -0.6071
   12MOL   H165 6567   7.260   5.766   1.109 -3.0073 -0.6270  1.6960
   12MOL   H166 6568   7.071   5.884   1.224  0.3646  1.1636  1.6958
   12MOL   H167 6569   7.012   5.995   1.099  0.2960  1.6609 -0.3179
   12MOL   H168 6570   7.121   6.198   1.244 -0.3491  0.3641  0.2224
   12MOL   H169 6571   7.175   6.075   1.354  0.9198 -0.4505 -1.5663
   12MOL   H170 6572   6.886   6.149   1.298 -0.4103  2.3375  0.8838
   12MOL   H171 6573   6.922   6.022   1.411 -0.3919 -0.7514 -1.7312
   12MOL   H172 6574   6.818   6.131   1.576 -2.6799  1.2484  1.7014
   12MOL   H173 6575   6.768   6.364   1.444 -1.7015  0.2294 -0.7676
   12MOL   H174 6576   6.770   6.308   1.715  0.1188  0.0159 -0.8315
   12MOL   H175 6577   6.947   6.277   1.728  1.3771  1.2752  0.1069
   12MOL   C176 6578   6.909   6.529   1.757  0.3168 -0.6570 -0.1380
   12MOL   C177 6579   6.854   6.670   1.730  0.2056  0.4278  0.1655
   12MOL   O178 6580   6.914   6.737   1.630 -0.1741  0.1126 -0.1248
   12MOL   C179 6581   6.844   6.766   1.849  0.3238  0.0261  0.1457
   12MOL   O180 6582   6.725   6.742   1.928  0.1769 -0.0891 -0.3992
   12MOL   C181 6583   6.709   6.841   2.027 -0.3067 -0.0444 -0.3839
   12MOL   C182 6584   6.591   6.820   2.123  0.0872  0.2324 -0.7331
   12MOL   C183 6585   6.594   6.923   2.236 -0.5641  0.0253 -0.3640
   12MOL   O184 6586   6.484   6.916   2.321  0.2847  0.4959 -0.4020
   12MOL   C185 6587   6.487   7.003   2.428  0.1605 -0.7144 -0.2234
   12MOL   O186 6588   6.572   6.955   2.525 -0.6109  0.6684 -0.1288
   12MOL   C187 6589   6.343   7.027   2.484 -0.4383 -0.3058  0.3857
   12MOL   O188 6590   6.293   6.914   2.551  0.1806 -0.4818 -0.3428
   12MOL   H189 6591   7.012   6.540   1.791  0.2673  0.8092 -0.4345
   12MOL   H190 6592   6.848   6.485   1.836  0.4586 -0.3751  0.1326
   12MOL   H191 6593   6.751   6.643   1.704 -0.0869  0.0101  1.6684
   12MOL   H192 6594   6.911   6.675   1.559  0.2425 -1.2238  0.9857
   12MOL   H193 6595   6.931   6.755   1.914 -1.6695 -0.2302  2.8615
   12MOL   H194 6596   6.848   6.863   1.799  1.5524  0.7998  1.6818
   12MOL   H195 6597   6.685   6.932   1.972 -1.9834 -0.3610 -0.2099
   12MOL   H196 6598   6.798   6.856   2.088 -1.2284  2.0219  0.4990
   12MOL   H197 6599   6.590   6.718   2.161 -2.1450 -0.0290 -1.4045
   12MOL   H198 6600   6.498   6.825   2.067 -0.2585 -0.6084 -0.2473
   12MOL   H199 6601   6.692   6.910   2.281 -1.3695  2.0044  2.1023
   12MOL   H200 6602   6.601   7.022   2.191  0.1076 -0.0840 -0.5083
   12MOL   H201 6603   6.523   7.098   2.389 -0.9907 -0.8042 -1.5550
   12MOL   H202 6604   6.534   6.874   2.556 -1.0481  0.9116 -0.0340
   12MOL   H203 6605   6.350   7.109   2.556 -0.5512  0.1788 -0.1585
   12MOL   H204 6606   6.276   7.043   2.400 -0.1014  0.1294  0.1992
   12MOL   C205 6607   6.184   6.953   2.636  0.7315  0.5175 -0.4504
   12MOL   C206 6608   6.047   6.916   2.578 -0.2585  0.3530  0.0346
   12MOL   O207 6609   5.958   6.893   2.685 -0.1456  0.6874 -0.6393
   12MOL   C208 6610   5.982   7.025   2.499 -0.0842 -0.5376  0.0193
   12MOL   O209 6611   5.948   7.137   2.580  0.1431  0.6110 -0.3517
   12MOL   C210 6612   5.852   7.224   2.524 -0.2375 -0.4551 -0.3376
   12MOL   C211 6613   5.806   7.343   2.609 -0.9138  0.3163  0.3341
   12MOL   C212 6614   5.708   7.439   2.542 -0.2698 -0.1123  0.7383
   12MOL   O213 6615   5.583   7.382   2.505  0.4818  0.1985  0.2870
   12MOL   C214 6616   5.507   7.460   2.417 -0.5265  0.6114  0.4223
   12MOL   O215 6617   5.563   7.466   2.292 -0.3030  0.0448  0.4851
   12MOL   C216 6618   5.483   7.608   2.466  0.4144  0.7326 -0.7816
   12MOL   O217 6619   5.363   7.600   2.546 -0.2362 -0.0154 -0.0444
   12MOL   H218 6620   6.184   7.056   2.672 -1.5940  0.4667 -0.1978
   12MOL   H219 6621   6.202   6.901   2.730  0.7821  1.1233 -0.1194
   12MOL   H220 6622   6.052   6.822   2.523 -0.3245  0.6803 -0.5323
   12MOL   H221 6623   5.943   6.978   2.723  0.9749  0.4488  0.3651
   12MOL   H222 6624   6.044   7.050   2.414 -0.2842  3.8757  1.0682
   12MOL   H223 6625   5.888   6.990   2.456 -1.3947  0.0470  2.3238
   12MOL   H224 6626   5.768   7.158   2.504 -0.6295 -0.1127  0.2049
   12MOL   H225 6627   5.896   7.267   2.433 -2.0434 -0.2621 -1.1394
   12MOL   H226 6628   5.891   7.402   2.641  1.2998 -2.7298  0.3447
   12MOL   H227 6629   5.766   7.295   2.698 -2.2916  0.1299 -0.3567
   12MOL   H228 6630   5.688   7.513   2.619 -3.6167  0.5284 -0.6668
   12MOL   H229 6631   5.756   7.499   2.465 -1.8951  0.7025  0.3387
   12MOL   H230 6632   5.410   7.411   2.408  0.3078 -0.9945  0.0024
   12MOL   H231 6633   5.562   7.378   2.257  0.3531 -0.5889  2.0215
   12MOL   H232 6634   5.567   7.646   2.525 -1.4198  0.3414  2.2001
   12MOL   H233 6635   5.451   7.679   2.390 -3.9112  1.8747  1.8977
   12MOL   C234 6636   5.388   7.564   2.682 -0.1851  0.5098  0.3772
   12MOL   C235 6637   5.257   7.558   2.765 -0.3912 -0.5035 -0.0774
   12MOL   O236 6638   5.285   7.605   2.898  0.0948 -0.0504 -0.0697
   12MOL   C237 6639   5.201   7.416   2.770  0.1965 -0.4084  0.2243
   12MOL   O238 6640   5.144   7.386   2.646 -0.2440  0.1967 -0.3945
   12MOL   C239 6641   5.090   7.257   2.625  0.3868  0.1679  0.3136
   12MOL   C240 6642   5.084   7.230   2.478  0.4814 -0.4554  0.4178
   12MOL   C241 6643   5.028   7.091   2.453 -0.2058 -0.2835 -0.0246
   12MOL   O242 6644   5.050   7.056   2.319  0.2264 -0.1667 -0.0879
   12MOL   C243 6645   5.018   6.926   2.281 -1.2973  0.5933 -0.5572
   12MOL   O244 6646   5.117   6.836   2.322 -0.7913 -0.1689  0.1883
   12MOL   C245 6647   5.023   6.922   2.126  0.1859  0.3759  0.4120
   12MOL   O246 6648   4.897   6.953   2.075  0.3101  0.0272 -0.3785
   12MOL   H247 6649   5.452   7.478   2.703  0.3874  0.4690 -1.4386
   12MOL   H248 6650   5.439   7.653   2.718 -0.7658  1.4125 -1.0301
   12MOL   H249 6651   5.188   7.632   2.726  0.7899  1.0292  0.7086
   12MOL   H250 6652   5.224   7.671   2.926 -1.0231 -0.4185 -1.5659
   12MOL   H251 6653   5.282   7.346   2.788 -1.0471 -1.6840  1.0195
   12MOL   H252 6654   5.128   7.400   2.850 -1.3503  1.5054 -0.7506
   12MOL   H253 6655   4.990   7.249   2.667 -0.2885 -1.4778 -1.5097
   12MOL   H254 6656   5.164   7.189   2.667 -0.4409 -2.1848 -1.9156
   12MOL   H255 6657   5.184   7.245   2.437 -0.7234  1.5167 -1.9235
   12MOL   H256 6658   5.024   7.306   2.429  2.4902  1.1799  0.4456
   12MOL   H257 6659   5.084   7.018   2.512 -1.4153 -0.1886  1.2704
   12MOL   H258 6660   4.922   7.084   2.481  0.2913  2.1435  2.6806
   12MOL   H259 6661   4.924   6.906   2.333 -0.2453  1.2367  1.6472
   12MOL   H260 6662   5.188   6.842   2.260  0.4425  1.4731  1.7097
   12MOL   H261 6663   5.102   6.991   2.095  0.9279 -0.4595  0.4434
   12MOL   H262 6664   5.044   6.822   2.089 -0.2838 -0.1859  1.6437
   12MOL   C263 6665   4.880   7.067   1.995  0.2610 -0.2976  0.5519
   12MOL   C264 6666   4.730   7.091   1.954  0.2789  0.0170  0.0459
   12MOL   O265 6667   4.699   7.020   1.837 -0.2119  0.3427 -0.0018
   12MOL   C266 6668   4.637   7.034   2.073  0.7952  0.1161 -0.0897
   12MOL   O267 6669   4.513   7.089   2.029 -0.0991 -0.3941  0.4419
   12MOL   C268 6670   4.401   7.060   2.124 -0.6463  0.1103  0.3257
   12MOL   C269 6671   4.268   7.089   2.056  0.3425  0.1086 -0.9506
   12MOL   C270 6672   4.150   7.066   2.151  0.2575  0.3528  0.0747
   12MOL   O271 6673   4.020   7.074   2.102 -0.1103 -0.3791 -0.3691
   12MOL   C272 6674   3.909   7.072   2.186 -0.5772  0.0873  0.1509
   12MOL   O273 6675   3.904   7.175   2.277  0.6087 -0.3652 -0.5650
   12MOL   C274 6676   3.775   7.058   2.114 -0.0567  0.7127  0.2707
   12MOL   O275 6677   3.778   6.920   2.072  0.1083 -0.3611  0.1917
   12MOL   H276 6678   4.948   7.044   1.913  0.6063 -1.4875  1.1545
   12MOL   H277 6679   4.898   7.156   2.056 -2.4388 -0.9913  2.4800
   12MOL   H278 6680   4.724   7.196   1.927  2.2585 -0.2328 -1.5035
   12MOL   H279 6681   4.706   6.928   1.857 -1.3905  0.1627 -0.4225
   12MOL   H280 6682   4.622   6.927   2.088 -1.8121  0.0190 -3.0022
   12MOL   H281 6683   4.669   7.075   2.169 -1.1762  1.2464  0.1094
   12MOL   H282 6684   4.413   7.108   2.221 -0.6767  1.3432 -0.2746
   12MOL   H283 6685   4.402   6.952   2.142  0.8284  0.5559  3.0733
   12MOL   H284 6686   4.268   7.023   1.969  0.4144  1.1295 -1.7508
   12MOL   H285 6687   4.265   7.194   2.024 -2.2563  0.3547  0.0105
   12MOL   H286 6688   4.155   6.968   2.197  0.6443  0.6976  0.7797
   12MOL   H287 6689   4.159   7.138   2.233  1.7074  0.1717  0.0973
   12MOL   H288 6690   3.920   6.990   2.257 -0.9639 -1.1040 -1.1276
   12MOL   H289 6691   3.892   7.255   2.229  0.8157 -1.0751 -1.8270
   12MOL   H290 6692   3.690   7.068   2.182  0.0625  0.3082  0.4789
   12MOL   H291 6693   3.769   7.128   2.031 -1.0357  0.5324  0.1735
   12MOL   C292 6694   3.658   6.879   2.013 -1.0175  0.3404 -0.1707
   12MOL   C293 6695   3.646   6.727   1.989  0.5798 -0.2292  0.6634
   12MOL   O294 6696   3.721   6.701   1.871 -0.1319  0.4570 -0.1250
   12MOL   C295 6697   3.708   6.649   2.099 -0.2524  0.1636 -0.1703
   12MOL   O296 6698   3.736   6.515   2.051  0.2284  0.7151  0.7105
   12MOL   C297 6699   3.621   6.440   2.013  0.0177 -0.3005  0.3487
   12MOL   C298 6700   3.657   6.290   2.009  0.8872  0.2856  0.0319
   12MOL   C299 6701   3.538   6.205   1.963  0.6172  0.3037 -0.3207
   12MOL   O300 6702   3.484   6.263   1.851 -0.1067  0.1383  0.4494
   12MOL   C301 6703   3.423   6.172   1.764 -0.0597  1.0310 -0.0081
   12MOL   O302 6704   3.292   6.150   1.801 -0.0068 -0.1772  0.2880
   12MOL   C303 6705   3.437   6.225   1.618 -0.5478 -0.0284  0.5508
   12MOL   O304 6706   3.497   6.122   1.539 -0.2611  0.1413 -0.1173
   12MOL   H305 6707   3.577   6.910   2.079 -1.7633  0.1488 -0.9810
   12MOL   H306 6708   3.646   6.930   1.917  1.6874  1.7799  0.2106
   12MOL   H307 6709   3.545   6.688   1.977 -0.2561  1.3918  2.2992
   12MOL   H308 6710   3.810   6.690   1.900 -0.2106 -0.7933 -0.3372
   12MOL   H309 6711   3.802   6.694   2.132 -0.2971 -0.4869  0.8728
   12MOL   H310 6712   3.637   6.648   2.182 -0.3239  1.2970 -0.2125
   12MOL   H311 6713   3.582   6.467   1.915  0.4409  0.7147  0.4474
   12MOL   H312 6714   3.546   6.473   2.086  1.1832  3.2596  0.0445
   12MOL   H313 6715   3.698   6.252   2.103  0.6784 -0.2279 -0.0839
   12MOL   H314 6716   3.728   6.284   1.926  3.2540  0.2599  1.9795
   12MOL   H315 6717   3.578   6.105   1.944 -0.3556 -0.4791  1.6499
   12MOL   H316 6718   3.453   6.207   2.031  0.6619  0.5018 -0.2706
   12MOL   H317 6719   3.471   6.075   1.766 -0.9990  0.5589  0.2555
   12MOL   H318 6720   3.300   6.091   1.874  1.0179 -1.1779 -0.6123
   12MOL   H319 6721   3.482   6.324   1.615 -1.6460  0.4561 -2.4950
   12MOL   H320 6722   3.338   6.255   1.583 -0.4852 -0.9093 -0.4150
   12MOL   C321 6723   3.464   6.134   1.402 -0.5489  0.4123 -0.9633
   12MOL   C322 6724   3.534   6.031   1.313  0.4077  0.4963 -0.2489
   12MOL   O323 6725   3.672   6.043   1.305 -0.3748  0.7380  0.1122
   12MOL   C324 6726   3.492   5.879   1.341  0.2949 -0.3189  0.1043
   12MOL   O325 6727   3.353   5.877   1.298 -0.1594  0.2580 -0.1328
   12MOL   C326 6728   3.285   5.751   1.327 -0.7044 -0.5513 -0.0767
   12MOL   C327 6729   3.136   5.756   1.296 -0.0135 -1.1768 -0.0374
   12MOL   C328 6730   3.061   5.882   1.358  0.5329  0.1734  0.0104
   12MOL   O329 6731   3.057   5.839   1.493 -0.1637 -0.0254  0.0075
   12MOL   C330 6732   3.111   5.928   1.591 -0.1976 -0.1038  0.2881
   12MOL   O331 6733   3.030   6.041   1.593 -0.1660 -0.0275  0.6482
   12MOL   C332 6734   3.120   5.868   1.735  0.2489 -0.0066  0.0122
   12MOL   O333 6735   3.238   5.796   1.764 -0.0035  0.5414 -0.5718
   12MOL   H334 6736   3.489   6.234   1.365  2.0355 -0.4286 -1.5788
   12MOL   H335 6737   3.356   6.120   1.399 -0.5505 -1.2669  3.8935
   12MOL   H336 6738   3.504   6.059   1.212  0.0307  1.1076  0.0369
   12MOL   H337 6739   3.700   5.965   1.260 -0.6339  0.4769  0.4079
   12MOL   H338 6740   3.506   5.869   1.448  0.6118  0.8421  0.1815
   12MOL   H339 6741   3.548   5.808   1.279  0.4846  0.8172 -1.0493
   12MOL   H340 6742   3.281   5.739   1.436  0.0477  0.9577  0.1285
   12MOL   H341 6743   3.332   5.666   1.278 -0.4202 -1.9304  2.4867
   12MOL   H342 6744   3.138   5.752   1.187  0.9457 -1.6179 -0.0074
   12MOL   H343 6745   3.094   5.657   1.316 -1.9804 -0.4211 -0.2845
   12MOL   H344 6746   3.119   5.973   1.341  0.3041  0.1053 -1.1424
   12MOL   H345 6747   2.958   5.893   1.323 -0.0782  1.0440  1.9969
   12MOL   H346 6748   3.209   5.963   1.558 -0.3540  0.8587  0.8422
   12MOL   H347 6749   2.944   6.012   1.620 -0.3641  0.8206  0.9481
   12MOL   H348 6750   3.110   5.946   1.810  0.7799 -0.6178  0.7270
   12MOL   H349 6751   3.040   5.794   1.743 -1.3480  1.7517  0.7788
   12MOL   C350 6752   3.248   5.745   1.897 -0.7557 -0.1861  0.1862
   12MOL   C351 6753   3.358   5.833   1.961  0.7574  0.3199  0.0053
   12MOL   O352 6754   3.302   5.960   2.002  0.4741  0.0314 -0.2730
   12MOL   C353 6755   3.419   5.767   2.084 -0.2842 -0.0700 -0.4860
   12MOL   O354 6756   3.531   5.853   2.114  0.4096  0.1715  0.1661
   12MOL   C355 6757   3.590   5.807   2.228  0.1696 -0.9527 -0.2985
   12MOL   C356 6758   3.712   5.891   2.263 -0.0241 -0.3196  0.1991
   12MOL   C357 6759   3.834   5.864   2.171  0.3947 -0.0111  0.1638
   12MOL   O358 6760   3.890   5.739   2.224  0.4737  0.6486 -0.7931
   12MOL   C359 6761   3.991   5.679   2.156 -0.3354 -0.2287  0.3442
   12MOL   O360 6762   4.095   5.771   2.124  0.4775 -0.1218  0.1409
   12MOL   C361 6763   4.055   5.562   2.236  0.4955 -0.1906  0.0197
   12MOL   O362 6764   3.953   5.471   2.280  0.0476  0.0606  0.0450
   12MOL   H363 6765   3.271   5.639   1.886  2.2250  0.2628  1.6516
   12MOL   H364 6766   3.156   5.761   1.954 -0.7101  1.5842 -0.2055
   12MOL   H365 6767   3.437   5.851   1.888  3.6965  0.7638  3.1824
   12MOL   H366 6768   3.351   5.973   2.082 -0.7922 -2.8592  1.0491
   12MOL   H367 6769   3.351   5.765   2.169  1.3840  0.2188  0.8665
   12MOL   H368 6770   3.455   5.666   2.067  1.4404  0.6428 -1.1898
   12MOL   H369 6771   3.627   5.706   2.212 -0.3918 -1.0646 -0.8922
   12MOL   H370 6772   3.526   5.790   2.315  0.7348  0.6051  0.4442
   12MOL   H371 6773   3.740   5.875   2.367 -1.0492 -0.0753  0.5213
   12MOL   H372 6774   3.689   5.996   2.241 -1.7852 -1.0174 -1.4398
   12MOL   H373 6775   3.801   5.848   2.069 -0.5668  3.1386 -0.0720
   12MOL   H374 6776   3.910   5.942   2.184  1.2164 -0.7403 -0.2004
   12MOL   H375 6777   3.947   5.637   2.066  0.9516 -0.6627 -0.1034
   12MOL   H376 6778   4.103   5.764   2.031 -1.2858  1.2834 -0.1370
   12MOL   H377 6779   4.127   5.510   2.173 -0.2965 -1.4101  0.0960
   12MOL   H378 6780   4.116   5.601   2.317  0.1571 -0.2152  0.2878
   12MOL   C379 6781   4.010   5.357   2.348 -0.2769 -0.1762 -0.3946
   12MOL   C380 6782   3.903   5.265   2.404  0.0972  0.0949  0.8297
   12MOL   O381 6783   3.886   5.154   2.311  0.4223  0.3543 -0.4380
   12MOL   C382 6784   3.923   5.212   2.543  0.2890  0.6587 -0.2136
   12MOL   O383 6785   3.825   5.111   2.571  0.5217 -0.2635  0.5373
   12MOL   C384 6786   3.839   5.028   2.684 -0.6472  0.2038 -0.4987
   12MOL   C385 6787   3.712   4.940   2.692  0.2911 -0.2917 -0.3867
   12MOL   C386 6788   3.583   5.025   2.687  0.3942 -0.2707  0.3002
   12MOL   O387 6789   3.459   4.955   2.715  0.9834  0.2680  0.5268
   12MOL   C388 6790   3.340   5.033   2.695 -0.1229 -0.6154 -0.5623
   12MOL   O389 6791   3.316   5.068   2.558  0.5884 -0.5160 -0.6640
   12MOL   C390 6792   3.215   4.960   2.752  0.1953 -0.4466 -0.7290
   12MOL   O391 6793   3.164   5.030   2.869  0.1936 -0.4540  0.1417
   12MOL   H392 6794   4.063   5.399   2.433 -0.4961  1.9666 -1.2803
   12MOL   H393 6795   4.091   5.311   2.291 -1.7660 -1.4191 -1.5667
   12MOL   H394 6796   3.813   5.327   2.411 -0.4604 -0.7971  1.7347
   12MOL   H395 6797   3.833   5.089   2.355  2.1147 -2.8111 -2.8469
   12MOL   H396 6798   4.013   5.151   2.542  0.0249  0.2404  0.6816
   12MOL   H397 6799   3.931   5.284   2.624 -1.9538  0.4232  0.2349
   12MOL   H398 6800   3.868   5.094   2.765 -2.8848  1.9783 -1.0704
   12MOL   H399 6801   3.931   4.970   2.677 -1.2338 -0.8484  0.3205
   12MOL   H400 6802   3.712   4.881   2.783  1.2560  0.0686 -0.1401
   12MOL   H401 6803   3.717   4.859   2.619 -0.6448 -0.8653  0.1798
   12MOL   H402 6804   3.598   5.110   2.755 -0.3413  0.9008 -0.9815
   12MOL   H403 6805   3.581   5.079   2.593 -1.4729  1.2151  1.1435
   12MOL   H404 6806   3.371   5.125   2.745  0.5440 -1.1334 -0.0278
   12MOL   H405 6807   3.285   4.988   2.517  0.8499 -0.4802 -0.9382
   12MOL   H406 6808   3.137   4.949   2.677 -0.4987 -0.4470 -0.0038
   12MOL   H407 6809   3.246   4.858   2.771  0.1097  0.0098  1.9924
   12MOL   C408 6810   3.243   5.019   2.988  0.1024 -0.0017 -0.0021
   12MOL   C409 6811   3.179   5.090   3.115  0.0932 -0.4943  1.1585
   12MOL   O410 6812   3.189   5.227   3.096  0.3791 -0.1552  0.4876
   12MOL   C411 6813   3.240   5.057   3.248  0.7561  0.0715  0.0027
   12MOL   O412 6814   3.192   4.938   3.315 -0.1597  0.1368 -0.7240
   12MOL   C413 6815   3.275   4.909   3.425  0.1259 -0.7220 -0.2615
   12MOL   C414 6816   3.219   4.783   3.492  0.1336  0.0472  0.7006
   12MOL   C415 6817   3.250   4.658   3.407  0.1508  0.0183 -0.1777
   12MOL   O416 6818   3.187   4.545   3.459 -0.4667 -0.1731 -0.2998
   12MOL   C417 6819   3.228   4.426   3.396 -0.0634  0.5539 -0.7300
   12MOL   O418 6820   3.187   4.424   3.263 -0.0308  0.0784  0.4848
   12MOL   C419 6821   3.155   4.313   3.478 -0.0464  0.0762  0.5048
   12MOL   O420 6822   3.229   4.279   3.596 -0.1612  0.3822 -0.4246
   12MOL   H421 6823   3.346   5.050   2.972  0.2117 -0.6623 -0.6417
   12MOL   H422 6824   3.255   4.913   3.008 -0.1956 -0.2304 -0.9611
   12MOL   H423 6825   3.073   5.066   3.115 -0.3251  1.2055 -1.0435
   12MOL   H424 6826   3.164   5.230   3.005  1.3554  0.6659  0.2451
   12MOL   H425 6827   3.348   5.064   3.234  0.6477 -0.3617 -1.0896
   12MOL   H426 6828   3.212   5.139   3.314  0.9444  0.5394 -0.4896
   12MOL   H427 6829   3.378   4.905   3.387  0.5990 -1.1167  1.0491
   12MOL   H428 6830   3.256   4.988   3.497  0.9875  1.2328 -2.1020
   12MOL   H429 6831   3.111   4.796   3.505 -0.3511 -2.6094 -0.5117
   12MOL   H430 6832   3.248   4.766   3.596  0.4128 -1.4143  0.3839
   12MOL   H431 6833   3.219   4.679   3.305 -2.5207  2.4296  1.0392
   12MOL   H432 6834   3.357   4.641   3.407  0.1213 -0.3196  1.8223
   12MOL   H433 6835   3.336   4.410   3.397 -0.1174  0.2416  0.2876
   12MOL   H434 6836   3.097   4.453   3.259  0.5015  1.5886 -1.0517
   12MOL   H435 6837   3.049   4.330   3.494 -0.0341  0.5684  0.1012
   12MOL   H436 6838   3.160   4.220   3.421 -0.0973  1.0320 -1.1009
   12MOL   C437 6839   3.191   4.364   3.699  0.2528  0.1111  0.6170
   12MOL   C438 6840   3.197   4.296   3.838 -0.5470  0.3007  0.2323
   12MOL   O439 6841   3.071   4.237   3.865  0.3807  0.0301 -0.1982
   12MOL   C440 6842   3.235   4.402   3.938  0.0712 -0.0663 -0.4200
   12MOL   O441 6843   3.130   4.498   3.933 -0.0859 -0.5278 -0.1044
   12MOL   C442 6844   3.133   4.593   4.047 -0.8604 -0.2005 -0.2633
   12MOL   C443 6845   3.021   4.694   4.007  0.0708  0.0974  0.0304
   12MOL   C444 6846   3.002   4.788   4.127 -0.1737  0.3187 -0.4331
   12MOL   O445 6847   2.882   4.858   4.093  0.7157 -0.4051 -0.4427
   12MOL   C446 6848   2.855   4.952   4.196 -0.1672  0.1134 -0.5125
   12MOL   O447 6849   2.799   4.892   4.316  0.2963  0.3132  0.5189
   12MOL   C448 6850   2.766   5.070   4.134  0.1019  0.4779  0.5874
   12MOL   O449 6851   2.839   5.147   4.047  0.6560 -0.3440  0.0745
   12MOL   H450 6852   3.255   4.453   3.689 -1.2668  1.1069 -0.4093
   12MOL   H451 6853   3.094   4.412   3.690  1.3389  1.9952 -1.4641
   12MOL   H452 6854   3.270   4.217   3.824 -0.8218  0.1289 -0.2644
   12MOL   H453 6855   3.017   4.309   3.896 -0.3583 -1.0667  1.1216
   12MOL   H454 6856   3.243   4.361   4.038  0.9936  0.0748 -0.4308
   12MOL   H455 6857   3.331   4.448   3.914  0.6971 -1.7123 -1.2337
   12MOL   H456 6858   3.228   4.644   4.062 -1.0812  0.3929 -0.8477
   12MOL   H457 6859   3.099   4.542   4.138 -0.1480 -0.1904  0.0121
   12MOL   H458 6860   2.928   4.645   3.975 -0.7489  1.9130 -0.4238
   12MOL   H459 6861   3.044   4.746   3.914 -2.4084  1.2542  0.0327
   12MOL   H460 6862   2.984   4.737   4.221  1.6090  0.2031 -0.1241
   12MOL   H461 6863   3.091   4.850   4.141  0.2155  0.2231 -2.3107
   12MOL   H462 6864   2.950   4.995   4.228  0.5946 -2.3339  0.6872
   12MOL   H463 6865   2.710   4.866   4.301  0.4786 -0.2978  0.4833
   12MOL   H464 6866   2.675   5.042   4.080 -0.3772  3.7461 -0.4358
   12MOL   H465 6867   2.739   5.139   4.215 -1.1603 -1.3600  1.7628
   12MOL   C466 6868   2.784   5.267   3.995 -0.3667  0.7267  0.5688
   12MOL   C467 6869   2.774   5.387   4.097  0.0619 -1.3277 -0.4002
   12MOL   O468 6870   2.902   5.405   4.142 -0.2249  0.4943  0.2126
   12MOL   C469 6871   2.738   5.527   4.047  0.8339 -0.8687 -0.6849
   12MOL   O470 6872   2.682   5.614   4.150  0.2055 -0.2330 -0.6474
   12MOL   C471 6873   2.614   5.716   4.091 -0.3383  0.8745  0.7387
   12MOL   C472 6874   2.579   5.825   4.187  0.0263  0.5494 -0.4424
   12MOL   C473 6875   2.505   5.945   4.126 -0.0141 -0.0530  0.3537
   12MOL   O474 6876   2.381   5.891   4.069 -0.3416  0.4827 -0.2114
   12MOL   C475 6877   2.299   5.988   4.018  0.1687 -0.4956  0.2656
   12MOL   O476 6878   2.208   6.036   4.112  0.3457 -0.0312 -0.5758
   12MOL   C477 6879   2.230   5.943   3.889 -0.0661  0.3479 -0.2083
   12MOL   O478 6880   2.328   5.927   3.790 -0.2312  0.6045  0.6522
   12MOL   H479 6881   2.684   5.249   3.955 -0.3528  1.6529  0.1030
   12MOL   H480 6882   2.841   5.284   3.903 -0.4331 -1.2373  0.1449
   12MOL   H481 6883   2.703   5.356   4.173 -0.7390  0.8725 -0.2214
   12MOL   H482 6884   2.890   5.486   4.189  1.4335  1.2715 -0.6609
   12MOL   H483 6885   2.828   5.570   4.002  0.5969  1.1717  0.7259
   12MOL   H484 6886   2.670   5.508   3.964  1.1265  1.0250 -1.3762
   12MOL   H485 6887   2.526   5.667   4.051 -0.5977  0.7309  1.4814
   12MOL   H486 6888   2.655   5.758   3.999 -1.1835  1.4352  0.6102
   12MOL   H487 6889   2.670   5.848   4.243 -1.6155  1.2287  2.0011
   12MOL   H488 6890   2.522   5.775   4.265  1.8049  0.4479  0.8119
   12MOL   H489 6891   2.475   6.012   4.206 -0.9819  1.8752 -1.5839
   12MOL   H490 6892   2.571   5.997   4.057  1.1126 -0.8796  0.7813
   12MOL   H491 6893   2.366   6.072   3.999  0.1559 -0.5367  0.0426
   12MOL   H492 6894   2.182   6.119   4.076  1.1446 -0.1188 -1.3824
   12MOL   H493 6895   2.182   5.848   3.913  0.8456  0.1828  1.0250
   12MOL   H494 6896   2.162   6.026   3.868  1.1724  1.4695  0.1614
   12MOL   C495 6897   2.295   5.860   3.672  0.6246 -0.2703 -0.6440
   12MOL   C496 6898   2.265   5.715   3.680 -0.1040  0.9095 -1.2029
   12MOL   O497 6899   2.274   5.665   3.544  0.2113  0.1437 -0.2634
   12MOL   C498 6900   2.362   5.632   3.757 -0.1645 -0.0372  0.4193
   12MOL   O499 6901   2.291   5.510   3.797  0.2711 -0.3352  0.2136
   12MOL   C500 6902   2.379   5.419   3.873  0.2952 -0.1385 -0.1628
   12MOL   C501 6903   2.301   5.355   3.984  0.4881 -0.2672 -0.1031
   12MOL   C502 6904   2.384   5.250   4.058  0.2208  0.5378  0.7291
   12MOL   O503 6905   2.468   5.307   4.153  0.2709 -0.8302 -0.4204
   12MOL   C504 6906   2.416   5.332   4.276 -0.5484 -0.0607 -0.2814
   12MOL   O505 6907   2.366   5.459   4.276  0.1614 -0.2263 -0.3794
   12MOL   C506 6908   2.522   5.306   4.385  0.2418  0.1923  0.2620
   12MOL   O507 6909   2.613   5.415   4.383  0.3038 -0.8307  0.2446
   12MOL   H508 6910   2.363   5.884   3.591 -1.0715  3.3733 -1.0913
   12MOL   H509 6911   2.205   5.907   3.633  0.3705 -1.3774 -1.4298
   12MOL   H510 6912   2.161   5.699   3.707  0.2498  1.4979  0.5349
   12MOL   H511 6913   2.364   5.672   3.517 -0.8259 -2.1089 -4.6548
   12MOL   H512 6914   2.447   5.606   3.694  0.3286 -0.2072  1.1473
   12MOL   H513 6915   2.391   5.684   3.848  0.9302  0.2138 -0.0659
   12MOL   H514 6916   2.460   5.471   3.924  1.4069 -2.1994  0.2262
   12MOL   H515 6917   2.435   5.346   3.814 -1.6129 -1.6110 -0.2009
   12MOL   H516 6918   2.224   5.306   3.924  0.7090  1.6899 -2.0502
   12MOL   H517 6919   2.265   5.431   4.054  0.8875 -0.3449  0.1885
   12MOL   H518 6920   2.320   5.171   4.098  0.0736 -0.2427 -1.0032
   12MOL   H519 6921   2.446   5.197   3.987 -0.4609 -0.5585  0.9363
   12MOL   H520 6922   2.339   5.260   4.302 -0.9124  0.1364 -0.8085
   12MOL   H521 6923   2.443   5.510   4.255  1.1816 -2.4305 -2.2549
   12MOL   H522 6924   2.468   5.295   4.479 -1.1359  1.3564 -0.3745
   12MOL   H523 6925   2.572   5.211   4.366  0.7200  0.5541 -0.3021
   12MOL   C524 6926   2.714   5.407   4.485  0.3213 -0.2754 -0.3149
   12MOL   C525 6927   2.808   5.522   4.471 -0.0742 -0.4106 -0.1351
   12MOL   O526 6928   2.921   5.485   4.390 -0.3960 -0.4813  0.6153
   12MOL   C527 6929   2.846   5.574   4.616  0.1417 -0.2459 -0.3570
   12MOL   O528 6930   2.924   5.482   4.698 -0.2373  0.2666  0.6433
   12MOL   C529 6931   3.065   5.489   4.674  0.1941 -0.2775 -0.6837
   12MOL   C530 6932   3.136   5.603   4.746 -0.1743 -0.4249 -0.5167
   12MOL   C531 6933   3.284   5.595   4.741  0.6287 -0.5192 -0.6259
   12MOL   O532 6934   3.333   5.716   4.790  0.4026  0.3422 -0.7364
   12MOL   C533 6935   3.474   5.718   4.796 -0.1641  0.3761 -0.1236
   12MOL   O534 6936   3.544   5.714   4.671 -0.1435 -0.3345  0.1621
   12MOL   C535 6937   3.525   5.847   4.856 -0.9424 -0.1649 -0.0670
   12MOL   O536 6938   3.525   5.837   4.993 -0.1442  0.2671 -0.1927
   12MOL   H537 6939   2.771   5.314   4.480  0.2532 -0.2629 -1.4199
   12MOL   H538 6940   2.663   5.409   4.581  2.3991 -0.1738  0.8082
   12MOL   H539 6941   2.764   5.613   4.431 -1.3336 -0.3512  1.3251
   12MOL   H540 6942   2.953   5.402   4.419  0.5884 -0.3208  0.0201
   12MOL   H541 6943   2.901   5.669   4.609  0.0154  0.2274  3.6515
   12MOL   H542 6944   2.761   5.619   4.667 -0.5803 -0.8617 -1.0157
   12MOL   H543 6945   3.082   5.480   4.567 -0.3310 -2.3454 -0.6185
   12MOL   H544 6946   3.113   5.399   4.713 -1.1152 -0.1963  1.2077
   12MOL   H545 6947   3.102   5.599   4.850 -1.8086 -2.3830 -1.0944
   12MOL   H546 6948   3.101   5.698   4.705  0.7162  1.4788  2.8391
   12MOL   H547 6949   3.322   5.506   4.791 -1.2943 -0.3897  1.1264
   12MOL   H548 6950   3.303   5.579   4.635  3.6226 -1.2142 -0.0366
   12MOL   H549 6951   3.507   5.636   4.860 -0.1972  1.3852  1.2115
   12MOL   H550 6952   3.517   5.791   4.623  0.3945 -1.0317 -1.2888
   12MOL   H551 6953   3.628   5.867   4.828 -1.1196  1.4834  0.3981
   12MOL   H552 6954   3.462   5.934   4.836 -1.4281 -0.8429 -1.5275
   12MOL   C553 6955   3.592   5.944   5.052 -0.1776  0.3566 -0.9150
   12MOL   C554 6956   3.617   5.912   5.201 -0.1060  0.3912  0.0451
   12MOL   O555 6957   3.688   6.006   5.277 -0.5833  0.3684 -0.0691
   12MOL   C556 6958   3.701   5.780   5.214 -0.0260  0.4958  0.4532
   12MOL   O557 6959   3.630   5.689   5.300 -0.1240 -0.1415 -0.3851
   12MOL   C558 6960   3.712   5.579   5.329 -0.1392  0.3492  0.7244
   12MOL   C559 6961   3.634   5.475   5.399 -0.0080  0.0347 -0.6235
   12MOL   C560 6962   3.514   5.424   5.324 -0.1673  0.2883 -0.1798
   12MOL   O561 6963   3.455   5.321   5.402  0.2097  0.4644  0.3470
   12MOL   C562 6964   3.336   5.263   5.354  0.1108 -0.1277 -0.6262
   12MOL   O563 6965   3.363   5.200   5.230 -0.2634  0.1198 -0.3260
   12MOL   C564 6966   3.273   5.159   5.444  0.3801  1.2088  0.0172
   12MOL   O565 6967   3.219   5.232   5.549  0.0421 -0.5737 -0.5412
   12MOL   H566 6968   3.539   6.039   5.040 -0.6583  0.2845  0.5400
   12MOL   H567 6969   3.690   5.970   5.013  0.3113  0.4393  0.3514
   12MOL   H568 6970   3.520   5.902   5.249  0.7766  0.2813  1.8377
   12MOL   H569 6971   3.692   5.961   5.360  1.7217 -0.7527 -0.7236
   12MOL   H570 6972   3.720   5.728   5.120  1.9020 -1.4683  1.8717
   12MOL   H571 6973   3.802   5.805   5.249 -0.4080  2.5623  0.1248
   12MOL   H572 6974   3.746   5.537   5.234 -1.2074  3.3612 -1.0490
   12MOL   H573 6975   3.797   5.613   5.387 -0.0656  2.7955 -0.7804
   12MOL   H574 6976   3.598   5.511   5.495 -0.1782  3.0878 -1.7799
   12MOL   H575 6977   3.695   5.385   5.406  1.7755  1.2583 -0.1559
   12MOL   H576 6978   3.458   5.514   5.298 -0.5270 -0.3357 -1.6305
   12MOL   H577 6979   3.551   5.382   5.230  0.6822  0.1796  0.2036
   12MOL   H578 6980   3.269   5.347   5.332 -1.3700 -1.9306 -3.2006
   12MOL   H579 6981   3.395   5.113   5.251  0.0687  0.2946 -0.1172
   12MOL   H580 6982   3.189   5.110   5.395  1.0561  1.5133 -1.5028
   12MOL   H581 6983   3.348   5.085   5.469  0.6841  1.4779 -0.0932
   12MOL   H582 6984   3.160   5.292   5.506  1.4214  0.0910 -1.5324
   13MOL     C1 6985   5.493   2.703   7.339 -0.4431  0.0670  0.2011
   13MOL     C2 6986   5.343   2.717   7.362 -0.1417  0.1511 -0.0569
   13MOL     O3 6987   5.320   2.707   7.503  0.4507  0.2018  0.3056
   13MOL     C4 6988   5.278   2.845   7.311 -0.0912 -0.1166 -0.3725
   13MOL     O5 6989   5.346   2.958   7.366 -0.3769  0.0222 -0.3480
   13MOL     C6 6990   5.281   3.085   7.376 -0.0204  0.4907 -0.9289
   13MOL     C7 6991   5.380   3.191   7.416  0.0301 -0.4760 -0.3171
   13MOL     C8 6992   5.324   3.331   7.413  0.0475  0.4392  0.3728
   13MOL     O9 6993   5.414   3.432   7.448  0.1678  0.8236 -0.0745
   13MOL    C10 6994   5.354   3.554   7.416 -0.1278 -0.7498  0.0527
   13MOL    O11 6995   5.365   3.591   7.283 -0.3379  0.2107 -0.3613
   13MOL    C12 6996   5.412   3.662   7.506 -0.6061  0.0608  0.0775
   13MOL    O13 6997   5.362   3.662   7.641  0.3851  0.5430  0.0588
   13MOL    H14 6998   5.516   2.713   7.233  1.3016  1.0596  0.6709
   13MOL    H15 6999   5.520   2.604   7.374 -1.1406  0.1164  0.9011
   13MOL    H16 7000   5.290   2.640   7.306 -2.9750  0.9504  1.4196
   13MOL    H17 7001   5.353   2.790   7.534  0.6225 -0.3716  1.7053
   13MOL    H18 7002   5.283   2.841   7.202 -1.3137  3.2278 -0.6027
   13MOL    H19 7003   5.177   2.846   7.349  0.5797  0.6965  1.4480
   13MOL    H20 7004   5.204   3.077   7.453 -0.8199  0.7878 -1.6887
   13MOL    H21 7005   5.226   3.112   7.286  0.5281  0.6013 -1.2323
   13MOL    H22 7006   5.477   3.180   7.367 -0.5595 -0.5482 -1.4939
   13MOL    H23 7007   5.408   3.169   7.519  0.4288  2.7603  0.3103
   13MOL    H24 7008   5.289   3.335   7.310  1.0606  0.3867  0.0155
   13MOL    H25 7009   5.238   3.334   7.479 -2.4501  1.2670 -2.8263
   13MOL    H26 7010   5.246   3.559   7.430 -0.5510  0.5262 -3.1472
   13MOL    H27 7011   5.428   3.661   7.274 -2.0025  2.0675  1.9558
   13MOL    H28 7012   5.520   3.672   7.506 -0.7121  1.2648  1.1777
   13MOL    H29 7013   5.367   3.750   7.459  1.4336  1.0636 -0.0662
   13MOL    H30 7014   5.537   2.790   7.388 -0.0315 -0.9509  1.6678
   13MOL    C31 7015   5.446   3.590   0.042  0.3078  0.0545 -0.0908
   13MOL    C32 7016   5.371   3.576   0.174  0.1605  0.1693  0.2656
   13MOL    O33 7017   5.335   3.709   0.214  0.9228 -0.2350  0.4551
   13MOL    C34 7018   5.456   3.516   0.283  0.2797  0.1013 -0.0164
   13MOL    O35 7019   5.375   3.478   0.399 -0.0792 -0.8531  0.0472
   13MOL    C36 7020   5.462   3.474   0.516  0.5365 -0.2902 -0.4551
   13MOL    C37 7021   5.401   3.413   0.637 -0.3837  0.1912 -0.1972
   13MOL    C38 7022   5.501   3.371   0.737 -0.0231 -0.6889 -0.9954
   13MOL    O39 7023   5.440   3.348   0.864  0.5691  0.2627 -0.1390
   13MOL    C40 7024   5.509   3.258   0.953 -0.0783  0.2381  1.1299
   13MOL    O41 7025   5.480   3.123   0.932  0.1083 -0.8810  0.0385
   13MOL    C42 7026   5.486   3.304   1.098 -0.5313  0.2420 -0.1826
   13MOL    O43 7027   5.601   3.366   1.150  0.3361 -0.3121  0.0491
   13MOL    H44 7028   5.476   3.493   0.002  0.2764  1.1623 -2.9369
   13MOL    H45 7029   5.535   3.653   0.038  0.5369 -0.2742 -0.1661
   13MOL    H46 7030   5.280   3.517   0.169 -0.4691  1.2095 -0.7300
   13MOL    H47 7031   5.269   3.737   0.152 -1.1563 -0.7215  2.3754
   13MOL    H48 7032   5.507   3.430   0.240 -0.9897 -1.0825  0.8419
   13MOL    H49 7033   5.536   3.583   0.317  1.5211 -0.5273 -1.5954
   13MOL    H50 7034   5.506   3.570   0.543 -0.6408  0.0298  0.3279
   13MOL    H51 7035   5.547   3.411   0.488  0.6954  0.3164 -1.3858
   13MOL    H52 7036   5.336   3.327   0.617 -1.0981  0.8924 -0.9534
   13MOL    H53 7037   5.334   3.487   0.681 -0.5383 -1.1612  1.9157
   13MOL    H54 7038   5.556   3.283   0.704 -1.1221 -1.3688 -1.0322
   13MOL    H55 7039   5.568   3.457   0.743 -0.6067 -0.3436  0.7724
   13MOL    H56 7040   5.616   3.266   0.932 -0.0122  1.2969  1.7788
   13MOL    H57 7041   5.389   3.114   0.954 -0.2837  0.3453 -1.0276
   13MOL    H58 7042   5.400   3.371   1.093 -1.3616 -0.6043  2.1432
   13MOL    H59 7043   5.447   3.226   1.163 -0.3410 -0.5000 -0.9489
   13MOL    C60 7044   5.581   3.407   1.284  0.9009  0.1056 -0.1877
   13MOL    C61 7045   5.700   3.492   1.327 -0.9468  0.5000 -0.5162
   13MOL    O62 7046   5.807   3.400   1.358 -0.0527  0.1169 -0.5352
   13MOL    C63 7047   5.652   3.580   1.454 -1.1240  0.7345 -0.1564
   13MOL    O64 7048   5.587   3.700   1.417  0.2421  0.0288  0.6294
   13MOL    C65 7049   5.518   3.767   1.525 -1.0733  0.5095  0.8460
   13MOL    C66 7050   5.468   3.904   1.476 -0.0110 -0.4075 -0.6392
   13MOL    C67 7051   5.587   3.983   1.420 -0.4781  0.3642  1.0754
   13MOL    O68 7052   5.533   4.107   1.363 -0.2497 -0.7327  0.1638
   13MOL    C69 7053   5.631   4.201   1.318  0.1414 -0.0848  0.1308
   13MOL    O70 7054   5.706   4.169   1.197 -0.5620 -0.7019 -0.3628
   13MOL    C71 7055   5.562   4.326   1.280  0.1358  0.2552 -0.3733
   13MOL    O72 7056   5.488   4.313   1.155 -0.3404  0.4149 -0.7593
   13MOL    H73 7057   5.563   3.328   1.356  0.9951  0.5062  0.2821
   13MOL    H74 7058   5.495   3.474   1.290  1.4118  0.6524  1.5488
   13MOL    H75 7059   5.732   3.567   1.255  2.4180  0.3925  0.7662
   13MOL    H76 7060   5.826   3.350   1.279 -1.7155 -0.0330 -0.8451
   13MOL    H77 7061   5.585   3.516   1.512 -0.5772 -1.5968 -2.0185
   13MOL    H78 7062   5.746   3.608   1.501  0.8947 -5.5166  0.0517
   13MOL    H79 7063   5.592   3.785   1.603  0.0933 -0.2219 -0.0772
   13MOL    H80 7064   5.438   3.702   1.562 -2.2112  1.1280 -0.4771
   13MOL    H81 7065   5.417   3.956   1.557 -1.7462  1.1537 -2.7066
   13MOL    H82 7066   5.392   3.892   1.399  1.6809 -0.8255 -2.2754
   13MOL    H83 7067   5.648   3.935   1.344 -0.2119  0.1778  1.4044
   13MOL    H84 7068   5.659   4.011   1.497  0.3384 -0.6545  0.6919
   13MOL    H85 7069   5.696   4.226   1.401  0.7513  0.3087 -0.4659
   13MOL    H86 7070   5.658   4.199   1.122  2.6001 -0.5673 -2.4122
   13MOL    H87 7071   5.495   4.363   1.357 -1.1780 -0.9561 -0.9140
   13MOL    H88 7072   5.643   4.398   1.265  1.1850 -0.2530  2.5899
   13MOL    C89 7073   5.371   4.232   1.162  0.5997  0.3181 -0.4152
   13MOL    C90 7074   5.297   4.256   1.028  0.6109  0.1435  0.1962
   13MOL    O91 7075   5.193   4.164   1.006  0.4378  0.0629 -0.4967
   13MOL    C92 7076   5.231   4.399   1.026 -0.4429  0.2041  0.9039
   13MOL    O93 7077   5.172   4.417   0.896 -0.1174  0.5241  0.2059
   13MOL    C94 7078   5.093   4.530   0.893 -0.3700 -0.1887 -0.4028
   13MOL    C95 7079   5.158   4.634   0.800 -0.3810  0.3489 -0.0286
   13MOL    C96 7080   5.061   4.754   0.782  0.3481  0.3626 -0.2087
   13MOL    O97 7081   5.130   4.856   0.716 -0.0545  0.2996 -0.1006
   13MOL    C98 7082   5.091   4.986   0.758  0.1474 -0.4120  0.0548
   13MOL    O99 7083   5.174   5.033   0.856 -0.2557  0.4896 -0.9108
   13MOL   C100 7084   5.098   5.091   0.642 -0.2163  0.7359  0.1771
   13MOL   O101 7085   5.237   5.118   0.617  0.4185  0.5124  0.5568
   13MOL   H102 7086   5.300   4.254   1.242  0.0203 -0.2289 -0.7757
   13MOL   H103 7087   5.395   4.127   1.174 -2.7869 -0.5005 -0.4750
   13MOL   H104 7088   5.368   4.246   0.946  0.5700  0.5052  0.1148
   13MOL   H105 7089   5.144   4.205   0.936  1.8944  4.8385  1.1223
   13MOL   H106 7090   5.149   4.398   1.097 -0.6837  0.3308  0.6261
   13MOL   H107 7091   5.309   4.469   1.056  0.2143 -0.4119  0.6764
   13MOL   H108 7092   5.072   4.575   0.990 -0.1891  0.8115 -0.8205
   13MOL   H109 7093   4.995   4.500   0.855 -0.7620  1.2057 -0.4963
   13MOL   H110 7094   5.187   4.586   0.707  2.7572 -0.5541  1.3265
   13MOL   H111 7095   5.254   4.667   0.842 -0.2376 -0.4728  0.2894
   13MOL   H112 7096   4.969   4.725   0.731  1.4130 -1.2738 -1.2667
   13MOL   H113 7097   5.035   4.794   0.880  0.0161  0.6679 -0.4193
   13MOL   H114 7098   4.991   4.988   0.801  0.5989  1.2087  1.0595
   13MOL   H115 7099   5.253   5.065   0.817 -2.5694  0.1345 -6.3561
   13MOL   H116 7100   5.046   5.043   0.560  1.4945 -2.2114  0.7511
   13MOL   H117 7101   5.033   5.176   0.666  0.2649  0.3251  3.1307
   13MOL   C118 7102   5.271   5.200   0.510 -0.4409  0.0213  0.2561
   13MOL   C119 7103   5.416   5.252   0.518 -0.4855 -0.5917  0.3538
   13MOL   O120 7104   5.413   5.378   0.586  0.1830  0.2193  0.2329
   13MOL   C121 7105   5.480   5.282   0.382 -0.6001  0.2435  0.7278
   13MOL   O122 7106   5.404   5.380   0.318 -0.4042  0.3743  0.7939
   13MOL   C123 7107   5.466   5.430   0.191  0.0879  0.3601 -0.4011
   13MOL   C124 7108   5.373   5.545   0.140 -0.2365  0.0274 -0.0660
   13MOL   C125 7109   5.381   5.563   7.683  0.8483  0.1506  0.4500
   13MOL   O126 7110   5.322   5.688   7.641 -0.3320  0.1480 -0.6680
   13MOL   C127 7111   5.183   5.708   7.624 -0.7704  0.1822  0.0491
   13MOL   O128 7112   5.140   5.653   7.504 -0.2549 -0.5889  0.3789
   13MOL   C129 7113   5.155   5.859   7.636  0.4521  0.9030  0.0795
   13MOL   O130 7114   5.163   5.896   0.076 -0.5686 -0.3819 -0.4815
   13MOL   H131 7115   5.253   5.133   0.426 -0.0852 -0.5941  0.6623
   13MOL   H132 7116   5.202   5.283   0.499 -0.7365 -0.3167 -0.4209
   13MOL   H133 7117   5.485   5.185   0.568 -0.4757 -0.9358 -0.1190
   13MOL   H134 7118   5.373   5.448   0.537 -0.7127 -1.4268 -1.4550
   13MOL   H135 7119   5.581   5.316   0.402 -0.0602 -1.0767  0.2947
   13MOL   H136 7120   5.488   5.189   0.325 -0.0283  0.2979  0.7199
   13MOL   H137 7121   5.487   5.351   0.119  0.8207  0.8250 -0.7025
   13MOL   H138 7122   5.566   5.471   0.207  0.4038 -0.3670 -0.5038
   13MOL   H139 7123   5.403   5.635   0.195  1.2210  0.1621 -1.0539
   13MOL   H140 7124   5.276   5.524   0.185  0.1149 -0.3385  0.5256
   13MOL   H141 7125   5.488   5.558   7.663  0.9254  0.1386  0.8676
   13MOL   H142 7126   5.340   5.480   7.625 -0.4967  1.1369 -0.0370
   13MOL   H143 7127   5.134   5.659   0.014 -0.1942 -0.2771  0.1218
   13MOL   H144 7128   5.087   5.577   7.521  1.7725 -2.5618 -1.8128
   13MOL   H145 7129   5.227   5.913   7.575  2.9804 -1.4424  0.8697
   13MOL   H146 7130   5.055   5.884   7.601 -0.0127 -1.4441 -0.3503
   13MOL   C147 7131   5.294   5.926   0.132 -0.0104  0.4315 -0.3066
   13MOL   C148 7132   5.297   5.979   0.279 -0.3335  0.0195 -0.3530
   13MOL   O149 7133   5.264   5.878   0.369 -0.0199 -0.4681  0.0342
   13MOL   C150 7134   5.199   6.094   0.301 -0.6017 -0.4184  0.0317
   13MOL   O151 7135   5.236   6.166   0.426 -0.3569 -0.6179 -0.0082
   13MOL   C152 7136   5.193   6.300   0.427 -0.0052 -0.4021 -0.1798
   13MOL   C153 7137   5.228   6.379   0.552 -0.2763 -0.0327 -0.9648
   13MOL   C154 7138   5.133   6.349   0.676  0.0599 -0.0969  0.4275
   13MOL   O155 7139   5.008   6.424   0.656  0.3576 -0.2311 -0.2009
   13MOL   C156 7140   4.929   6.429   0.776  0.5996  0.1193 -0.5907
   13MOL   O157 7141   4.875   6.303   0.810  0.5426 -0.1029  0.5992
   13MOL   C158 7142   4.818   6.532   0.771 -0.3951  0.1265 -0.8712
   13MOL   O159 7143   4.865   6.656   0.819 -0.2891  0.3029  0.1761
   13MOL   H160 7144   5.343   5.999   0.068 -1.2644  3.0587  1.6489
   13MOL   H161 7145   5.346   5.830   0.130 -0.9308 -0.1002  0.6551
   13MOL   H162 7146   5.396   6.019   0.304 -0.4074  0.5611 -0.9109
   13MOL   H163 7147   5.271   5.918   0.454 -2.4854  1.6446 -0.6861
   13MOL   H164 7148   5.202   6.156   0.212  0.1978 -1.8480 -0.9636
   13MOL   H165 7149   5.095   6.061   0.306 -1.5337  2.4964  1.2379
   13MOL   H166 7150   5.086   6.305   0.402 -0.4752  0.8638  1.9894
   13MOL   H167 7151   5.250   6.339   0.342 -2.2823  1.8126 -0.7836
   13MOL   H168 7152   5.235   6.486   0.533  0.1390  0.2165  0.4842
   13MOL   H169 7153   5.330   6.352   0.580  0.1120 -0.0111 -2.3451
   13MOL   H170 7154   5.107   6.244   0.688  0.4362 -0.3798 -1.1987
   13MOL   H171 7155   5.192   6.376   0.763  1.5732 -2.0167  0.0319
   13MOL   H172 7156   4.981   6.447   0.871 -0.1626 -1.0792  0.0581
   13MOL   H173 7157   4.868   6.299   0.904 -0.8483  3.3346  0.6964
   13MOL   H174 7158   4.772   6.548   0.674  1.3910 -0.1664 -1.7911
   13MOL   H175 7159   4.741   6.499   0.841  0.4870  0.9818  0.5381
   13MOL   C176 7160   4.770   6.755   0.832 -0.2527 -0.1637  0.5568
   13MOL   C177 7161   4.816   6.851   0.946  0.1382 -0.1950 -0.5502
   13MOL   O178 7162   4.782   6.799   1.067  0.5105 -0.2687 -0.5018
   13MOL   C179 7163   4.767   6.993   0.916  0.3986  0.7447 -0.9246
   13MOL   O180 7164   4.803   7.034   0.790 -0.0189  0.1547  0.2842
   13MOL   C181 7165   4.758   7.159   0.745  0.3953  0.2767 -0.7956
   13MOL   C182 7166   4.789   7.175   0.594  0.2855  0.1850  0.6737
   13MOL   C183 7167   4.753   7.312   0.539  0.2679 -0.3733  0.2538
   13MOL   O184 7168   4.757   7.303   0.400  0.0864  0.1859  0.0359
   13MOL   C185 7169   4.879   7.344   0.346  0.5639  0.3555 -0.2532
   13MOL   O186 7170   4.905   7.484   0.354  0.0604  0.6324 -0.3918
   13MOL   C187 7171   4.886   7.293   0.199  0.4981 -0.5459  0.1025
   13MOL   O188 7172   4.770   7.337   0.135 -0.5301  0.7218  0.4765
   13MOL   H189 7173   4.666   6.722   0.836  0.7148 -3.6192 -0.5759
   13MOL   H190 7174   4.777   6.815   0.741  1.4374 -0.7487  0.2851
   13MOL   H191 7175   4.924   6.861   0.951  0.0931  0.3325 -0.5651
   13MOL   H192 7176   4.816   6.711   1.067  0.6097 -0.2859  3.1436
   13MOL   H193 7177   4.658   6.997   0.916  0.4214  2.4602  1.5596
   13MOL   H194 7178   4.797   7.060   0.997 -0.6662 -1.3771  1.3075
   13MOL   H195 7179   4.802   7.246   0.795  0.1404  1.5779 -2.7660
   13MOL   H196 7180   4.652   7.173   0.765  0.4758 -0.1183 -0.0832
   13MOL   H197 7181   4.728   7.101   0.542  1.9047 -0.0361 -0.9983
   13MOL   H198 7182   4.892   7.147   0.570  0.0131 -0.3647  0.1412
   13MOL   H199 7183   4.650   7.331   0.567  0.6770  0.7495  1.0105
   13MOL   H200 7184   4.810   7.394   0.584  0.2473  0.9630 -2.0730
   13MOL   H201 7185   4.954   7.292   0.406  2.1772  1.9171 -0.8683
   13MOL   H202 7186   4.897   7.516   0.266 -0.1044 -0.1174 -0.6610
   13MOL   H203 7187   4.973   7.343   0.154  1.0634  0.5859  2.3595
   13MOL   H204 7188   4.887   7.185   0.191  0.1688 -0.5783  0.5337
   13MOL   C205 7189   4.784   7.387   0.008  0.4139 -0.6904  0.5139
   13MOL   C206 7190   4.823   7.537   0.012  0.1147  0.3453 -0.3150
   13MOL   O207 7191   4.967   7.547   0.026 -0.5811 -0.3249  0.5820
   13MOL   C208 7192   4.783   7.614   7.577  0.7550 -0.3679  0.5690
   13MOL   O209 7193   4.803   0.061   7.588 -0.7510  0.2145  0.0123
   13MOL   C210 7194   4.755   0.149   7.482 -0.3822  0.1027  0.4401
   13MOL   C211 7195   4.805   0.290   7.516 -0.8489 -0.0144 -0.4112
   13MOL   C212 7196   4.963   0.301   7.507 -0.3002 -0.0394  0.7137
   13MOL   O213 7197   4.996   0.282   7.365  0.0554 -0.8911 -0.3498
   13MOL   C214 7198   5.129   0.276   7.331 -0.7508  0.5960  0.2461
   13MOL   O215 7199   5.209   0.387   7.358 -0.0390 -0.3624 -0.3750
   13MOL   C216 7200   5.130   0.257   7.182  0.0064  0.8632 -0.3865
   13MOL   O217 7201   5.239   0.165   7.155 -0.2503 -0.1226  0.1097
   13MOL   H218 7202   4.683   7.383   7.662  1.4695  0.0314 -2.3127
   13MOL   H219 7203   4.853   7.335   7.636 -0.7112  0.6330 -1.7445
   13MOL   H220 7204   4.775   7.581   0.099  2.1928 -1.2374  1.7196
   13MOL   H221 7205   4.981   7.640   0.029 -2.9438  0.1240 -0.6569
   13MOL   H222 7206   4.836   7.587   7.486  1.9943  1.5960  0.6736
   13MOL   H223 7207   4.683   7.601   7.536  1.2875  1.7899 -1.4869
   13MOL   H224 7208   4.647   0.149   7.465 -0.5753  1.7963  1.6056
   13MOL   H225 7209   4.782   0.132   7.378  1.2803 -0.7888  0.9977
   13MOL   H226 7210   4.781   0.311   7.620  1.2931  0.3998  0.0176
   13MOL   H227 7211   4.761   0.359   7.444  0.2551  0.7363 -0.3738
   13MOL   H228 7212   4.999   0.401   7.531  0.4870 -0.2198  0.2889
   13MOL   H229 7213   5.017   0.231   7.571 -0.9289 -1.6456 -0.4832
   13MOL   H230 7214   5.176   0.195   7.387 -1.2669  0.7770  0.9495
   13MOL   H231 7215   5.226   0.434   7.278 -0.3988  1.4570  0.5860
   13MOL   H232 7216   5.033   0.217   7.153 -0.2134  1.2777 -0.2283
   13MOL   H233 7217   5.140   0.349   7.124  1.1901  1.1052  0.1663
   13MOL   C234 7218   5.240   0.125   7.017  0.0129  0.0378  0.1780
   13MOL   C235 7219   5.372   0.045   6.997  0.5046  0.0472  0.4839
   13MOL   O236 7220   5.473   0.148   7.003  0.2934  0.1940 -0.6496
   13MOL   C237 7221   5.380   7.669   6.865 -0.4764 -0.1546  0.8883
   13MOL   O238 7222   5.481   7.569   6.886 -0.2821  0.8719 -0.4088
   13MOL   C239 7223   5.496   7.463   6.784  0.3742  0.2126  0.8253
   13MOL   C240 7224   5.576   7.523   6.670  0.6000 -0.3651  0.1551
   13MOL   C241 7225   5.652   7.424   6.582  0.3740 -0.3497  1.0283
   13MOL   O242 7226   5.708   7.506   6.485 -0.8196 -0.2565 -0.0074
   13MOL   C243 7227   5.771   7.459   6.368  0.6718 -0.0609 -0.2936
   13MOL   O244 7228   5.900   7.415   6.401 -0.1212 -0.2528 -0.6962
   13MOL   C245 7229   5.778   7.582   6.267  0.5521 -0.2774  0.3579
   13MOL   O246 7230   5.658   7.607   6.207 -0.2999  0.4615  0.6363
   13MOL   H247 7231   5.155   0.061   6.994 -0.7581  1.1338 -0.0843
   13MOL   H248 7232   5.235   0.209   6.947 -0.6685 -0.9279 -0.9449
   13MOL   H249 7233   5.386   7.668   7.078 -2.8513 -0.4435  0.7316
   13MOL   H250 7234   5.446   0.202   7.075  0.5204  0.3943 -0.7171
   13MOL   H251 7235   5.278   7.635   6.843 -0.4103 -0.0296  0.3792
   13MOL   H252 7236   5.414   0.036   6.782 -1.0089 -0.7409  0.2370
   13MOL   H253 7237   5.403   7.433   6.736  0.9574 -1.0598  0.4738
   13MOL   H254 7238   5.548   7.379   6.830  1.0825  0.0173 -0.3187
   13MOL   H255 7239   5.642   7.598   6.713  0.1621 -0.4288  0.9403
   13MOL   H256 7240   5.501   7.572   6.608 -0.8662 -1.7140  0.8345
   13MOL   H257 7241   5.725   7.361   6.633  1.8361  0.7461  0.3303
   13MOL   H258 7242   5.589   7.353   6.528  0.1877  0.3961  0.2525
   13MOL   H259 7243   5.713   7.380   6.320  0.7457  0.2827 -0.9579
   13MOL   H260 7244   5.951   7.493   6.416  0.3511 -0.7726  0.5386
   13MOL   H261 7245   5.819   7.664   6.326  0.4436 -0.6182  0.9120
   13MOL   H262 7246   5.843   7.557   6.183 -0.7539  2.3921 -1.5198
   13MOL   C263 7247   5.606   0.038   6.249 -0.1967  0.5592  0.2207
   13MOL   C264 7248   5.481   0.069   6.164 -0.2757 -0.5049  0.3547
   13MOL   O265 7249   5.363   7.688   6.197 -0.0511 -0.9248 -0.2140
   13MOL   C266 7250   5.447   0.215   6.166  0.0429  0.4468  0.3376
   13MOL   O267 7251   5.379   0.242   6.042 -0.2378  0.5099 -1.1724
   13MOL   C268 7252   5.307   0.363   6.046  0.2851  0.3461  0.0095
   13MOL   C269 7253   5.402   0.477   6.019  0.3222 -0.4570  0.4113
   13MOL   C270 7254   5.314   0.603   6.023  0.0982  0.0983 -0.2933
   13MOL   O271 7255   5.259   0.629   6.155  0.0872 -0.8565  0.2985
   13MOL   C272 7256   5.163   0.739   6.164  0.7904  0.2066  0.5656
   13MOL   O273 7257   5.048   0.706   6.099 -0.2790  0.5597 -0.1627
   13MOL   C274 7258   5.142   0.770   6.309  0.4765  0.6386  0.1373
   13MOL   O275 7259   5.058   0.671   6.366 -0.3806 -0.4792  0.0081
   13MOL   H276 7260   5.676   0.117   6.224  1.0377 -0.6827 -0.3457
   13MOL   H277 7261   5.588   0.053   6.355  3.3942 -1.1362  1.1539
   13MOL   H278 7262   5.513   0.044   6.062  1.4019  1.0964  0.4583
   13MOL   H279 7263   5.295   0.031   6.143  0.4903 -1.6961 -1.4567
   13MOL   H280 7264   5.381   0.243   6.248 -3.8878 -0.3149 -2.4290
   13MOL   H281 7265   5.539   0.273   6.157  0.0340 -0.0203 -3.5927
   13MOL   H282 7266   5.254   0.363   6.141 -0.6140 -1.6120 -0.4454
   13MOL   H283 7267   5.229   0.366   5.970  1.0959 -1.1022 -0.9049
   13MOL   H284 7268   5.445   0.464   5.920 -1.7487 -0.8970 -0.4495
   13MOL   H285 7269   5.487   0.472   6.087  0.5007 -1.2433  0.1480
   13MOL   H286 7270   5.383   0.686   6.006  0.0748 -0.0107 -0.9337
   13MOL   H287 7271   5.236   0.604   5.947 -0.8512  0.5550  0.6620
   13MOL   H288 7272   5.219   0.818   6.114 -1.7426  0.7637 -1.5161
   13MOL   H289 7273   5.009   0.645   6.160 -1.8766  1.4150 -0.3006
   13MOL   H290 7274   5.239   0.781   6.358  0.8222  1.6245 -0.7396
   13MOL   H291 7275   5.092   0.867   6.312 -0.2073  0.2795  0.1918
   13MOL   C292 7276   5.102   0.632   6.496 -0.6601 -0.2141 -0.4814
   13MOL   C293 7277   5.202   0.516   6.491  0.0618  0.2851 -0.1431
   13MOL   O294 7278   5.274   0.512   6.612 -0.0510  0.1527 -0.0446
   13MOL   C295 7279   5.119   0.393   6.473 -0.6751  0.1724  0.3962
   13MOL   O296 7280   5.207   0.279   6.487 -0.4191  0.2704  0.1304
   13MOL   C297 7281   5.152   0.149   6.501  0.6531 -0.1399 -0.5145
   13MOL   C298 7282   5.118   0.124   6.645 -0.1454 -0.2096  0.4214
   13MOL   C299 7283   5.051   7.681   6.645 -0.4949 -0.4599 -0.7013
   13MOL   O300 7284   5.028   7.657   6.782  0.0093  0.4226 -0.0933
   13MOL   C301 7285   4.972   7.525   6.803  0.3536 -0.2438  0.1714
   13MOL   O302 7286   5.060   7.422   6.773 -0.2074  0.5461  0.4322
   13MOL   C303 7287   4.923   7.515   6.946  0.3663  0.5470 -0.3567
   13MOL   O304 7288   4.801   7.585   6.966 -0.2708 -0.2490 -0.5130
   13MOL   H305 7289   5.140   0.720   6.548 -1.6064 -0.3477  0.4814
   13MOL   H306 7290   5.026   0.598   6.568  0.5244 -3.4783 -0.7043
   13MOL   H307 7291   5.264   0.540   6.405  1.5964  2.4872  1.5181
   13MOL   H308 7292   5.321   0.430   6.614  0.7889  0.6414  1.0609
   13MOL   H309 7293   5.029   0.379   6.533 -2.2878  1.1014 -1.7618
   13MOL   H310 7294   5.079   0.391   6.372 -0.7400  2.2674  0.3477
   13MOL   H311 7295   5.227   0.079   6.465  0.4921 -0.6067  0.0383
   13MOL   H312 7296   5.068   0.134   6.434 -0.6748  0.8351  0.8955
   13MOL   H313 7297   5.063   0.204   6.694 -2.0605 -0.4438 -1.3036
   13MOL   H314 7298   5.212   0.117   6.699 -1.6323 -0.4679  3.0599
   13MOL   H315 7299   4.965   7.666   6.579 -1.1453  2.0875 -0.4723
   13MOL   H316 7300   5.124   7.609   6.610 -1.2479 -0.2848 -2.7443
   13MOL   H317 7301   4.889   7.512   6.734  1.0179 -1.7220 -0.3622
   13MOL   H318 7302   5.014   7.349   6.736  1.1671 -0.7833  1.2634
   13MOL   H319 7303   5.004   7.536   7.016  0.2245  0.6959 -0.2381
   13MOL   H320 7304   4.902   7.410   6.968  1.4804  0.0878 -1.4779
   13MOL   C321 7305   4.782   7.635   7.099 -0.2127  0.2955  0.0855
   13MOL   C322 7306   4.637   7.678   7.105  0.1154 -0.5007 -0.1042
   13MOL   O323 7307   4.616   0.017   7.234  0.3660 -0.6976 -0.3711
   13MOL   C324 7308   4.625   0.112   7.021 -0.7172  0.3238  0.3286
   13MOL   O325 7309   4.486   0.139   6.999 -0.1278  0.2773  0.4259
   13MOL   C326 7310   4.407   0.070   6.901 -1.0158 -0.0519 -0.4724
   13MOL   C327 7311   4.453   0.137   6.765  0.2484  0.3616  0.0856
   13MOL   C328 7312   4.344   0.111   6.657 -0.7350 -0.1906 -0.0756
   13MOL   O329 7313   4.403   0.153   6.531  0.4029 -0.1503 -0.4238
   13MOL   C330 7314   4.310   0.191   6.435  0.1144 -0.2388 -0.1945
   13MOL   O331 7315   4.358   0.309   6.376  0.0403 -0.4343 -0.2717
   13MOL   C332 7316   4.289   0.088   6.327  0.3882  0.2885  0.7553
   13MOL   O333 7317   4.221   7.670   6.370  0.0360  0.4327  0.4241
   13MOL   H334 7318   4.848   0.026   7.111 -0.2976  0.0671  2.3174
   13MOL   H335 7319   4.811   7.559   7.171 -2.2912 -1.0561 -0.4372
   13MOL   H336 7320   4.564   7.609   7.062 -3.8080  2.5853  1.3819
   13MOL   H337 7321   4.540   0.072   7.245  1.0538 -0.2585  2.6558
   13MOL   H338 7322   4.675   0.109   6.924  0.1891 -0.6510  0.8192
   13MOL   H339 7323   4.681   0.192   7.070  0.1455 -0.5249  0.7227
   13MOL   H340 7324   4.301   0.088   6.917 -0.9688 -0.8839  0.8473
   13MOL   H341 7325   4.426   7.657   6.894 -0.2106 -0.0239  1.0598
   13MOL   H342 7326   4.474   0.241   6.790  2.8866  0.1097 -0.8436
   13MOL   H343 7327   4.553   0.099   6.743  0.4099  0.4030  0.7374
   13MOL   H344 7328   4.319   0.006   6.666  2.1265 -1.3867 -4.6519
   13MOL   H345 7329   4.253   0.168   6.675 -1.0394 -0.6518 -0.1532
   13MOL   H346 7330   4.215   0.224   6.477  0.3271  0.3514 -0.1693
   13MOL   H347 7331   4.436   0.285   6.330  1.5136 -0.1211  2.0039
   13MOL   H348 7332   4.236   0.130   6.242  0.0034 -1.5961  0.0481
   13MOL   H349 7333   4.384   0.041   6.300 -0.5704 -1.3006  0.0742
   13MOL   C350 7334   4.163   7.586   6.276  0.5313 -0.4286  0.3830
   13MOL   C351 7335   4.084   7.472   6.341 -0.4427  0.3324  0.0155
   13MOL   O352 7336   3.989   7.543   6.411  0.2444 -0.4325  0.2292
   13MOL   C353 7337   4.025   7.360   6.253  0.0791  0.0348  0.7347
   13MOL   O354 7338   3.975   7.255   6.323 -0.0904  0.2178 -0.4456
   13MOL   C355 7339   3.838   7.273   6.376  0.3059  1.4491 -0.5241
   13MOL   C356 7340   3.802   7.140   6.440  0.0698 -0.1366  0.6244
   13MOL   C357 7341   3.666   7.138   6.505 -0.2536 -0.0106  0.3930
   13MOL   O358 7342   3.683   7.216   6.627 -0.2250 -0.4141  0.2509
   13MOL   C359 7343   3.567   7.255   6.683  0.1907  0.8440  0.4521
   13MOL   O360 7344   3.492   7.152   6.744  0.3191 -0.1209  0.3161
   13MOL   C361 7345   3.588   7.362   6.784 -0.1700  0.3342 -0.0008
   13MOL   O362 7346   3.646   7.313   6.908 -0.1808 -0.2422  0.0122
   13MOL   H363 7347   4.234   7.548   6.202  0.5337 -1.4243  0.9013
   13MOL   H364 7348   4.096   7.647   6.216  2.3082  1.4495  0.2443
   13MOL   H365 7349   4.145   7.426   6.419 -0.1721 -0.5149 -0.7005
   13MOL   H366 7350   4.008   7.565   6.501 -0.1214  1.7546 -0.1952
   13MOL   H367 7351   3.956   7.396   6.177  0.9491 -1.9374 -1.0677
   13MOL   H368 7352   4.114   7.324   6.200 -0.8094 -0.8958 -0.1601
   13MOL   H369 7353   3.760   7.303   6.306  0.1367  0.5376 -0.7347
   13MOL   H370 7354   3.832   7.340   6.461 -2.8903 -0.7101  1.0395
   13MOL   H371 7355   3.877   7.123   6.517 -0.4772  0.0783  1.2113
   13MOL   H372 7356   3.809   7.058   6.369 -2.0185  0.8032 -0.7219
   13MOL   H373 7357   3.608   7.183   6.424  1.3033  1.0629 -0.1628
   13MOL   H374 7358   3.631   7.035   6.509 -2.2953  0.7241  3.2980
   13MOL   H375 7359   3.509   7.298   6.601 -1.3175  1.7917  1.9752
   13MOL   H376 7360   3.535   7.135   6.827  2.5428 -1.8913 -1.1268
   13MOL   H377 7361   3.650   7.443   6.744  0.4330  0.6375  1.5026
   13MOL   H378 7362   3.494   7.398   6.826  0.5381  1.2582  0.8160
   13MOL   C379 7363   3.678   7.414   7.001  0.3305 -0.2935  0.1222
   13MOL   C380 7364   3.558   7.462   7.085  0.4426  0.4144 -0.3695
   13MOL   O381 7365   3.515   7.364   7.174  0.4656  0.3144  0.6414
   13MOL   C382 7366   3.582   7.589   7.157 -0.1268 -0.1154 -0.3718
   13MOL   O383 7367   3.713   7.583   7.214  0.5553 -0.3204 -0.6051
   13MOL   C384 7368   3.712   7.545   7.353 -0.2608  0.4727  0.4530
   13MOL   C385 7369   3.843   7.467   7.385  0.0706  0.0940 -0.6490
   13MOL   C386 7370   3.870   7.467   7.535 -0.3469  0.0712  0.6432
   13MOL   O387 7371   4.006   7.421   7.566 -0.1033  0.4228 -0.4141
   13MOL   C388 7372   4.040   7.422   0.001 -0.2029  0.3601 -0.2490
   13MOL   O389 7373   3.972   7.316   0.074 -0.4461  0.5608  0.1291
   13MOL   C390 7374   4.194   7.431   0.020 -0.3942 -0.4148 -0.2561
   13MOL   O391 7375   4.257   7.337   7.628  0.0939  0.4375  0.3144
   13MOL   H392 7376   3.717   7.497   6.941  1.1140 -2.9479 -3.1954
   13MOL   H393 7377   3.760   7.376   7.061 -0.2142 -2.8884 -0.7094
   13MOL   H394 7378   3.465   7.471   7.031  0.4928 -1.4426 -0.8083
   13MOL   H395 7379   3.519   7.280   7.131 -1.0515  0.4136  0.2650
   13MOL   H396 7380   3.578   7.674   7.090 -2.1831  0.6129  0.6285
   13MOL   H397 7381   3.497   7.605   7.224  0.7224  0.9613  0.4594
   13MOL   H398 7382   3.625   7.484   7.379 -0.0236  0.3374  0.9212
   13MOL   H399 7383   3.698   7.634   7.414  2.9120  1.6180 -0.3993
   13MOL   H400 7384   3.936   7.513   7.352 -0.3018  0.7887 -0.7404
   13MOL   H401 7385   3.845   7.363   7.353  2.6818  0.3108 -1.3315
   13MOL   H402 7386   3.853   7.570   7.567  0.3965  0.6613 -0.7915
   13MOL   H403 7387   3.799   7.409   7.594  2.4827 -2.1209  1.9995
   13MOL   H404 7388   4.004   7.520   0.033 -0.4832  1.1108 -2.7164
   13MOL   H405 7389   4.013   7.236   0.047  0.3455  1.6981 -2.1877
   13MOL   H406 7390   4.219   7.533   7.686 -0.9795  0.0600  0.8879
   13MOL   H407 7391   4.219   7.412   0.125 -0.4833  0.7739 -0.0076
   13MOL   C408 7392   4.400   7.335   7.634 -0.1173  0.4071 -0.0625
   13MOL   C409 7393   4.464   7.248   7.517  0.4118  0.2693 -0.6874
   13MOL   O410 7394   4.479   7.335   7.407  0.5880 -0.3489  0.3311
   13MOL   C411 7395   4.378   7.127   7.488  0.8369 -0.4331  0.5644
   13MOL   O412 7396   4.429   7.025   7.407  0.1595  0.0609  0.5076
   13MOL   C413 7397   4.332   6.929   7.355 -0.0603 -1.4644  0.1334
   13MOL   C414 7398   4.241   6.993   7.243  0.4880 -0.1493  0.4755
   13MOL   C415 7399   4.317   7.017   7.114 -0.2918 -0.1915  0.7511
   13MOL   O416 7400   4.331   6.894   7.046 -0.7985  0.6330  0.3030
   13MOL   C417 7401   4.423   6.891   6.945 -0.3403  0.4772 -0.3834
   13MOL   O418 7402   4.383   6.963   6.834  0.3404  0.4893  0.6106
   13MOL   C419 7403   4.449   6.738   6.905 -0.2519  0.4796  0.0754
   13MOL   O420 7404   4.335   6.703   6.828 -0.0525  0.7415 -0.1352
   13MOL   H421 7405   4.422   7.288   0.036  1.8160  1.9857  0.2906
   13MOL   H422 7406   4.450   7.430   7.647 -0.5679  1.0815 -2.9065
   13MOL   H423 7407   4.558   7.205   7.554  0.9106  1.1262 -0.9467
   13MOL   H424 7408   4.396   7.354   7.367  1.0310 -0.1953 -0.5279
   13MOL   H425 7409   4.357   7.077   7.583  0.7044  2.5253  2.1892
   13MOL   H426 7410   4.274   7.153   7.468  0.1108 -1.6316  2.5761
   13MOL   H427 7411   4.381   6.840   7.315  1.4704 -0.4879 -0.2182
   13MOL   H428 7412   4.269   6.893   7.437  0.4039  0.8513  1.5368
   13MOL   H429 7413   4.186   7.080   7.278 -0.6581 -0.3139 -0.8727
   13MOL   H430 7414   4.169   6.918   7.211  0.3093 -0.0475  0.6430
   13MOL   H431 7415   4.260   7.081   7.046 -0.3353 -1.1734 -0.1438
   13MOL   H432 7416   4.417   7.060   7.126 -0.5224  1.4904 -2.6318
   13MOL   H433 7417   4.520   6.925   6.981 -1.0236  0.3595  1.6113
   13MOL   H434 7418   4.334   6.894   6.791  1.3573 -0.1048  0.3785
   13MOL   H435 7419   4.549   6.731   6.864 -0.7458  0.4259 -1.1479
   13MOL   H436 7420   4.459   6.680   6.997 -1.7488  0.8552  0.4894
   13MOL   C437 7421   4.337   6.565   6.795  0.0535  0.0737  0.3149
   13MOL   C438 7422   4.255   6.486   6.891  0.7062 -0.5635  0.7024
   13MOL   O439 7423   4.331   6.452   6.997  0.1283 -0.0487  0.2502
   13MOL   C440 7424   4.214   6.351   6.818 -0.4115 -0.3440 -0.8316
   13MOL   O441 7425   4.112   6.293   6.899 -0.2032  0.0983 -0.1509
   13MOL   C442 7426   4.086   6.158   6.860 -0.8049 -0.4622 -0.0447
   13MOL   C443 7427   3.999   6.080   6.959 -0.0765  0.4639 -0.3428
   13MOL   C444 7428   3.996   5.933   6.928  0.4540  0.1932 -0.1207
   13MOL   O445 7429   4.108   5.871   6.865 -0.6402  0.2768  0.1317
   13MOL   C446 7430   4.108   5.732   6.874 -0.7075  0.5347  0.4809
   13MOL   O447 7431   4.170   5.686   6.994 -0.3782  0.3508 -0.4110
   13MOL   C448 7432   4.198   5.686   6.753  0.0212  0.0530  0.0280
   13MOL   O449 7433   4.136   5.704   6.624 -0.2433 -0.1434  0.1649
   13MOL   H450 7434   4.275   6.564   6.705 -0.6613  0.9412  0.7936
   13MOL   H451 7435   4.433   6.528   6.760  0.1617  2.1375 -1.6441
   13MOL   H452 7436   4.163   6.541   6.909  1.7733  1.5504 -0.1724
   13MOL   H453 7437   4.280   6.455   7.077 -0.7119  3.7302 -0.3274
   13MOL   H454 7438   4.176   6.372   6.718 -1.2128  1.1610 -0.2291
   13MOL   H455 7439   4.302   6.288   6.806  0.1333  0.3093 -0.3223
   13MOL   H456 7440   4.184   6.109   6.862 -0.9862 -0.8330 -0.1785
   13MOL   H457 7441   4.041   6.154   6.760 -0.0539 -0.0408 -0.4057
   13MOL   H458 7442   3.898   6.120   6.953 -0.0511  0.5007 -0.5369
   13MOL   H459 7443   4.032   6.082   7.062 -0.2175 -2.6218 -0.1727
   13MOL   H460 7444   3.975   5.889   7.026  1.0452 -0.3246 -0.2226
   13MOL   H461 7445   3.911   5.912   6.864  0.6681 -0.2569 -0.2597
   13MOL   H462 7446   4.011   5.687   6.856  0.2453 -0.6489 -1.9160
   13MOL   H463 7447   4.263   5.704   6.990 -0.1260 -0.9966 -0.8984
   13MOL   H464 7448   4.284   5.753   6.747 -0.8227  1.0013 -1.7529
   13MOL   H465 7449   4.224   5.580   6.764  0.0950 -0.0871 -1.3767
   13MOL   C466 7450   4.024   5.617   6.590  0.4145 -0.2614  0.8257
   13MOL   C467 7451   3.991   5.654   6.435 -0.9911  0.9107  0.2746
   13MOL   O468 7452   4.064   5.583   6.338  0.4545  0.2198  0.4459
   13MOL   C469 7453   3.849   5.606   6.408  0.4030  0.5122  0.6314
   13MOL   O470 7454   3.840   5.471   6.446  0.3047  0.1001  0.3370
   13MOL   C471 7455   3.739   5.398   6.377 -0.3937 -0.3737 -0.1424
   13MOL   C472 7456   3.698   5.266   6.442 -0.0838 -0.6453  0.2434
   13MOL   C473 7457   3.576   5.207   6.365  0.9669  0.3410  0.1806
   13MOL   O474 7458   3.613   5.191   6.228  0.4689 -0.2426 -0.5507
   13MOL   C475 7459   3.547   5.099   6.149 -0.6935  0.5722 -0.4259
   13MOL   O476 7460   3.582   4.963   6.182  0.4446 -0.5130  0.0364
   13MOL   C477 7461   3.595   5.126   6.007  0.0752 -0.3216  0.0462
   13MOL   O478 7462   3.534   5.246   5.962 -0.3770  0.6205 -0.3308
   13MOL   H479 7463   3.937   5.646   6.649 -0.0876 -0.0054 -0.0352
   13MOL   H480 7464   4.035   5.509   6.599  1.7203 -0.1692  0.4734
   13MOL   H481 7465   3.993   5.761   6.417 -0.5357  0.8009 -0.3315
   13MOL   H482 7466   4.059   5.497   6.375  2.2487 -0.3348 -0.5394
   13MOL   H483 7467   3.780   5.656   6.475  0.0413 -0.5495  1.0755
   13MOL   H484 7468   3.821   5.617   6.303  2.6284 -0.3926 -0.0942
   13MOL   H485 7469   3.776   5.386   6.276  1.4568  3.1335  0.0626
   13MOL   H486 7470   3.651   5.463   6.384  1.0750  1.6402  0.0939
   13MOL   H487 7471   3.679   5.280   6.548  0.3765  2.2327 -0.0368
   13MOL   H488 7472   3.781   5.195   6.442 -0.0643 -0.6352 -0.5048
   13MOL   H489 7473   3.550   5.107   6.400 -0.6148  0.1941 -1.3540
   13MOL   H490 7474   3.493   5.277   6.363 -0.4515 -1.3458 -1.0514
   13MOL   H491 7475   3.439   5.109   6.159 -1.2749 -3.4643 -1.7075
   13MOL   H492 7476   3.672   4.946   6.205 -0.7600 -2.1687  4.0387
   13MOL   H493 7477   3.704   5.132   6.007  0.0928 -0.7084 -1.1507
   13MOL   H494 7478   3.565   5.046   5.940  0.7621 -0.4496 -0.1072
   13MOL   C495 7479   3.605   5.304   5.855 -0.3118 -0.6822 -1.1635
   13MOL   C496 7480   3.540   5.442   5.828  0.1065 -0.0953 -0.5708
   13MOL   O497 7481   3.643   5.508   5.758  0.1413  0.1462  0.0720
   13MOL   C498 7482   3.415   5.445   5.732 -0.4327  0.8168  0.2699
   13MOL   O499 7483   3.356   5.573   5.720 -0.1635 -0.3156 -0.4938
   13MOL   C500 7484   3.224   5.567   5.675 -0.3993  0.3979 -0.4445
   13MOL   C501 7485   3.190   5.701   5.615 -0.5246  0.5231  0.1059
   13MOL   C502 7486   3.257   5.735   5.481 -0.4063  0.1130 -0.8198
   13MOL   O503 7487   3.186   5.666   5.379 -0.7894 -0.0738  0.0460
   13MOL   C504 7488   3.228   5.707   5.248  0.0963 -0.4742  0.0109
   13MOL   O505 7489   3.170   5.830   5.217 -0.2282  0.1482 -0.3822
   13MOL   C506 7490   3.195   5.603   5.146 -1.3394 -0.6967  0.0012
   13MOL   O507 7491   3.057   5.583   5.159 -0.2584  0.2958  0.2291
   13MOL   H508 7492   3.608   5.239   5.768  4.3160 -2.3101  0.0986
   13MOL   H509 7493   3.710   5.323   5.875 -0.5460 -0.1701 -0.3820
   13MOL   H510 7494   3.507   5.486   5.922 -1.5290  1.7431 -1.9822
   13MOL   H511 7495   3.605   5.583   5.715 -0.0340  0.3492  0.5853
   13MOL   H512 7496   3.436   5.418   5.629  1.9411  0.8734  0.6995
   13MOL   H513 7497   3.341   5.373   5.765  0.5947  1.2793  3.7687
   13MOL   H514 7498   3.159   5.535   5.756  1.3484 -2.1416  0.0251
   13MOL   H515 7499   3.222   5.495   5.593 -1.5624  0.4705 -0.4814
   13MOL   H516 7500   3.207   5.772   5.695  0.0436 -0.5306  0.9388
   13MOL   H517 7501   3.082   5.712   5.604 -0.8207 -0.8157  1.5677
   13MOL   H518 7502   3.242   5.841   5.463 -3.8179 -0.1682  0.0105
   13MOL   H519 7503   3.364   5.715   5.487 -0.6898 -2.2191 -2.7714
   13MOL   H520 7504   3.335   5.727   5.238  0.0182 -0.4610 -0.9139
   13MOL   H521 7505   3.076   5.822   5.219 -0.3578  1.7100  0.5157
   13MOL   H522 7506   3.233   5.632   5.048  1.0477  0.3628  1.1861
   13MOL   H523 7507   3.259   5.520   5.177  1.0157  1.4701  1.1207
   13MOL   C524 7508   3.029   5.440   5.143 -0.7023  0.3998  0.0274
   13MOL   C525 7509   2.947   5.399   5.260  0.1759  0.0937 -0.8851
   13MOL   O526 7510   3.040   5.419   5.369 -0.2874  0.4082  0.2797
   13MOL   C527 7511   2.898   5.254   5.246  0.2639 -0.3440  0.2359
   13MOL   O528 7512   2.794   5.236   5.342  0.7617  0.7214  0.2855
   13MOL   C529 7513   2.766   5.102   5.370  0.1200  0.1780  0.3814
   13MOL   C530 7514   2.645   5.083   5.461  0.1460 -0.2173 -0.3335
   13MOL   C531 7515   2.610   4.940   5.507 -0.4678  0.3191 -0.7738
   13MOL   O532 7516   2.571   4.863   5.396 -0.0578  0.3317 -1.0127
   13MOL   C533 7517   2.496   4.746   5.424 -0.0910 -0.2698  0.3020
   13MOL   O534 7518   2.382   4.774   5.509  0.0043  0.2867 -0.3919
   13MOL   C535 7519   2.431   4.694   5.290 -0.1391 -0.0451 -0.0029
   13MOL   O536 7520   2.358   4.810   5.232 -0.7408  0.4713 -0.2395
   13MOL   H537 7521   3.113   5.371   5.131  0.0199  1.1741  0.5289
   13MOL   H538 7522   2.973   5.428   5.051  0.0171  0.0430 -0.3730
   13MOL   H539 7523   2.869   5.473   5.271  0.0079 -0.4280  1.7432
   13MOL   H540 7524   3.056   5.511   5.358  0.4900  0.0321 -2.1433
   13MOL   H541 7525   2.866   5.250   5.142 -2.3295  2.6384  0.8151
   13MOL   H542 7526   2.984   5.189   5.262 -1.1526 -2.7593 -1.6139
   13MOL   H543 7527   2.855   5.058   5.414  0.1199 -0.7890 -0.5523
   13MOL   H544 7528   2.743   5.048   5.277  3.3384  0.7452 -0.7891
   13MOL   H545 7529   2.555   5.126   5.416  0.0893 -1.1201 -1.1020
   13MOL   H546 7530   2.659   5.150   5.546 -1.0847  1.6373 -1.5411
   13MOL   H547 7531   2.702   4.900   5.551 -0.1978  0.3211 -1.3257
   13MOL   H548 7532   2.530   4.960   5.578 -1.2050 -2.1219 -0.8619
   13MOL   H549 7533   2.563   4.676   5.474  0.5844 -0.5388 -0.9869
   13MOL   H550 7534   2.316   4.790   5.443 -0.5924 -2.3838 -0.5251
   13MOL   H551 7535   2.515   4.673   5.223  0.4181  0.6045  0.4772
   13MOL   H552 7536   2.371   4.605   5.308 -0.3510  0.0709 -0.1317
   13MOL   C553 7537   2.311   4.777   5.102 -0.1433 -0.0137  0.0128
   13MOL   C554 7538   2.232   4.894   5.051 -0.0472  0.4450  0.3531
   13MOL   O555 7539   2.100   4.876   5.101  0.0017  0.0764  0.2975
   13MOL   C556 7540   2.232   4.905   4.894  0.7895  0.1622 -0.0222
   13MOL   O557 7541   2.178   5.028   4.882  0.2881 -0.0500 -0.2357
   13MOL   C558 7542   2.172   5.069   4.749  0.7882 -0.0619  0.0230
   13MOL   C559 7543   2.156   5.218   4.741 -0.6917  0.5788 -0.1348
   13MOL   C560 7544   2.163   5.276   4.596 -0.4987 -0.0412 -0.0527
   13MOL   O561 7545   2.036   5.260   4.532  0.3072 -0.3282 -0.0864
   13MOL   C562 7546   2.035   5.263   4.396 -0.0207  0.3200  0.2208
   13MOL   O563 7547   2.119   5.169   4.331  0.1417 -0.6243 -0.0265
   13MOL   C564 7548   1.892   5.208   4.352 -0.4344 -0.2317 -0.4639
   13MOL   O565 7549   1.898   5.068   4.364  0.0456  0.1874 -0.0149
   13MOL   H566 7550   2.241   4.694   5.107 -3.0686  2.3272 -1.1119
   13MOL   H567 7551   2.395   4.760   5.035 -0.1450 -0.5670  0.1464
   13MOL   H568 7552   2.285   4.984   5.081  1.5021 -0.6247  0.9058
   13MOL   H569 7553   2.054   4.945   5.056  0.9416  0.4178 -0.1627
   13MOL   H570 7554   2.334   4.911   4.856 -0.1779  0.1335 -2.6662
   13MOL   H571 7555   2.180   4.830   4.836 -1.3622  0.1834  1.8100
   13MOL   H572 7556   2.270   5.042   4.710  0.7262  1.0542 -0.9445
   13MOL   H573 7557   2.100   5.018   4.686  1.4211 -2.8301  1.4658
   13MOL   H574 7558   2.228   5.262   4.810 -0.0991 -0.5467 -0.0107
   13MOL   H575 7559   2.061   5.246   4.787 -1.0595  0.5404 -0.8648
   13MOL   H576 7560   2.200   5.379   4.598  0.7836 -0.4503 -1.5478
   13MOL   H577 7561   2.241   5.225   4.539  0.1799  2.0580 -1.0917
   13MOL   H578 7562   2.048   5.359   4.347 -1.1320  0.5031  0.2574
   13MOL   H579 7563   2.082   5.087   4.357 -0.8592 -0.4936 -1.0405
   13MOL   H580 7564   1.804   5.245   4.404 -0.9399 -1.0658 -0.7177
   13MOL   H581 7565   1.866   5.229   4.248 -0.6593  0.1795 -0.3255
   13MOL   H582 7566   1.810   5.038   4.348  0.1777 -0.5489  0.6056
   14MOL     C1 7567   3.993   3.474   7.113  0.1330 -0.0092 -0.0943
   14MOL     C2 7568   3.900   3.379   7.033 -0.3897 -0.1123  0.2187
   14MOL     O3 7569   3.947   3.369   6.898  0.0695 -0.2191 -0.7332
   14MOL     C4 7570   3.886   3.235   7.092 -0.5238 -0.2358 -0.9662
   14MOL     O5 7571   4.022   3.196   7.130  0.7061 -0.5802 -0.4199
   14MOL     C6 7572   4.029   3.064   7.181 -0.1240 -0.8240  0.1127
   14MOL     C7 7573   4.167   3.038   7.236 -0.4453 -0.1101 -0.0091
   14MOL     C8 7574   4.209   3.120   7.353 -0.2809 -0.2243 -0.7892
   14MOL     O9 7575   4.324   3.060   7.410  0.0331 -0.6647  0.2164
   14MOL    C10 7576   4.385   3.143   7.501  0.1169  0.4339  0.2216
   14MOL    O11 7577   4.444   3.262   7.439 -0.2737 -0.7254  0.2502
   14MOL    C12 7578   4.495   3.056   7.564 -0.6028  0.4949 -0.7917
   14MOL    O13 7579   4.499   3.091   0.012  0.0419  0.5831  0.5648
   14MOL    H14 7580   4.091   3.426   7.116  0.3202  0.2911 -1.3392
   14MOL    H15 7581   3.965   3.507   7.213  0.8720  1.9910 -0.5154
   14MOL    H16 7582   3.802   3.424   7.020 -0.5153 -0.2665  0.6449
   14MOL    H17 7583   4.041   3.378   6.906  0.0214  0.7512 -1.1781
   14MOL    H18 7584   3.824   3.236   7.181 -0.4610 -1.6746 -0.8974
   14MOL    H19 7585   3.844   3.178   7.009 -0.0632  0.0725 -1.4178
   14MOL    H20 7586   4.006   3.006   7.092  0.7011 -1.5427  0.3529
   14MOL    H21 7587   3.951   3.050   7.257  0.8235 -0.3270  1.1901
   14MOL    H22 7588   4.240   3.062   7.158 -0.1608 -0.1364  0.2521
   14MOL    H23 7589   4.168   2.933   7.265  1.7766  0.2481  1.2951
   14MOL    H24 7590   4.245   3.217   7.320 -0.9693  1.1612  2.3268
   14MOL    H25 7591   4.131   3.130   7.429  2.4966 -1.3620  2.3674
   14MOL    H26 7592   4.312   3.175   7.576 -0.9803 -1.5480  0.0242
   14MOL    H27 7593   4.520   3.233   7.392 -0.0149  0.3978 -0.0530
   14MOL    H28 7594   4.485   2.949   7.549 -0.0301  0.3754 -0.3627
   14MOL    H29 7595   4.593   3.091   7.530  0.4989 -1.8357 -0.1583
   14MOL    H30 7596   4.008   3.569   7.062  1.1144 -1.1466 -1.9823
   14MOL    C31 7597   4.614   3.048   0.083 -0.7527  0.0137  0.1956
   14MOL    C32 7598   4.595   3.071   0.233 -0.6308 -0.5669 -0.8478
   14MOL    O33 7599   4.611   3.205   0.254  0.6493  0.6471  0.4803
   14MOL    C34 7600   4.705   2.999   0.329 -0.5305 -0.1755  0.0355
   14MOL    O35 7601   4.668   3.017   0.468 -0.3164 -0.0019  0.4144
   14MOL    C36 7602   4.762   2.967   0.562 -0.0052  0.1674 -0.4733
   14MOL    C37 7603   4.702   2.966   0.697 -0.8927 -1.1799 -0.0606
   14MOL    C38 7604   4.790   2.896   0.793 -0.8827  0.1059  0.4607
   14MOL    O39 7605   4.732   2.869   0.924  0.0609  0.3026  0.4512
   14MOL    C40 7606   4.828   2.831   1.018  0.1895  0.8485 -0.5238
   14MOL    O41 7607   4.873   2.702   0.992  0.2684 -0.4585 -0.0352
   14MOL    C42 7608   4.762   2.843   1.155 -0.0121  0.8194 -0.9820
   14MOL    O43 7609   4.751   2.976   1.202  1.1136 -0.3091  0.5345
   14MOL    H44 7610   4.637   2.945   0.057  1.1070  0.5277 -0.2720
   14MOL    H45 7611   4.704   3.100   0.049 -0.3193 -0.5622  0.4438
   14MOL    H46 7612   4.494   3.042   0.263 -0.0712 -1.7940 -0.0808
   14MOL    H47 7613   4.568   3.250   0.183  0.9132 -1.2141 -0.8894
   14MOL    H48 7614   4.713   2.891   0.319  2.6799  0.0730 -0.3480
   14MOL    H49 7615   4.805   3.031   0.301 -0.9202  1.9538  0.8796
   14MOL    H50 7616   4.842   3.041   0.557  0.9266 -0.8535 -1.0624
   14MOL    H51 7617   4.803   2.872   0.526 -1.5732 -0.6099 -0.2636
   14MOL    H52 7618   4.603   2.920   0.698 -1.6536  0.2986 -1.9391
   14MOL    H53 7619   4.677   3.061   0.744  2.0615 -0.1814 -0.3951
   14MOL    H54 7620   4.815   2.794   0.765  0.4785  0.8200 -0.9863
   14MOL    H55 7621   4.882   2.954   0.799  0.4775 -1.6035 -2.5240
   14MOL    H56 7622   4.910   2.902   1.020  0.1474  0.9131 -1.0982
   14MOL    H57 7623   4.802   2.641   1.005 -0.2348  0.2309  0.4606
   14MOL    H58 7624   4.670   2.786   1.165  0.1166  0.4109 -2.0296
   14MOL    H59 7625   4.828   2.804   1.233 -2.7526  0.7175  1.3797
   14MOL    C60 7626   4.635   3.049   1.152  0.1676  0.5587 -0.2019
   14MOL    C61 7627   4.611   3.162   1.254 -0.1523 -0.4370 -0.9014
   14MOL    O62 7628   4.553   3.105   1.374  0.1759 -0.0192 -0.2361
   14MOL    C63 7629   4.512   3.267   1.210  0.0925 -0.0913 -0.1664
   14MOL    O64 7630   4.397   3.205   1.160  0.3656  0.6242 -0.0010
   14MOL    C65 7631   4.327   3.294   1.075  0.0603 -0.6286  0.5908
   14MOL    C66 7632   4.199   3.222   1.025 -0.3910  0.3425 -0.5837
   14MOL    C67 7633   4.226   3.103   0.933 -0.1158  0.1981 -0.4961
   14MOL    O68 7634   4.254   3.142   0.799  0.3802  0.6474 -0.1832
   14MOL    C69 7635   4.293   3.032   0.734 -0.7782  0.0293 -0.1120
   14MOL    O70 7636   4.193   2.936   0.730 -0.1733  0.3912 -0.1482
   14MOL    C71 7637   4.340   3.078   0.598  0.5432 -0.1601  0.0832
   14MOL    O72 7638   4.451   3.150   0.620 -0.3857  0.1423 -0.7442
   14MOL    H73 7639   4.553   2.979   1.139  0.9360 -0.3570 -0.1744
   14MOL    H74 7640   4.655   3.090   1.053 -0.6552 -1.1750 -1.1109
   14MOL    H75 7641   4.704   3.205   1.293 -2.2935  3.5232  0.1635
   14MOL    H76 7642   4.482   3.049   1.348  1.2594 -1.7157  0.3508
   14MOL    H77 7643   4.483   3.334   1.291 -1.0489 -1.3687  0.4946
   14MOL    H78 7644   4.562   3.319   1.127 -0.3555 -1.0914 -1.0816
   14MOL    H79 7645   4.391   3.329   0.994 -1.0150 -2.0916 -0.9401
   14MOL    H80 7646   4.305   3.384   1.132  0.5764 -0.0994 -0.0328
   14MOL    H81 7647   4.134   3.282   0.962 -0.3720  0.3439 -0.6019
   14MOL    H82 7648   4.139   3.190   1.110 -0.7830  0.2069 -0.9099
   14MOL    H83 7649   4.135   3.043   0.940  0.8432 -1.1325  1.0812
   14MOL    H84 7650   4.305   3.048   0.984  0.1442  0.6959 -0.3484
   14MOL    H85 7651   4.377   2.988   0.787 -0.6075  1.2529  0.6558
   14MOL    H86 7652   4.118   2.970   0.682 -0.3914 -1.8452 -1.4349
   14MOL    H87 7653   4.370   2.991   0.539  0.3600  0.0422 -0.3127
   14MOL    H88 7654   4.256   3.128   0.549  0.7726 -0.7885 -0.9723
   14MOL    C89 7655   4.441   3.286   0.591 -0.4206 -0.6968 -0.0731
   14MOL    C90 7656   4.585   3.337   0.617  0.0271  0.1124 -0.2001
   14MOL    O91 7657   4.630   3.412   0.503  0.6594  0.3447  0.0815
   14MOL    C92 7658   4.617   3.426   0.742  0.5369 -0.3763  0.2002
   14MOL    O93 7659   4.753   3.462   0.769 -0.0906 -0.1207  0.4557
   14MOL    C94 7660   4.819   3.345   0.813 -0.3307 -0.4907  0.1424
   14MOL    C95 7661   4.958   3.394   0.848 -0.0751 -0.3858  0.7281
   14MOL    C96 7662   5.033   3.273   0.912 -0.0926  0.5191 -0.1077
   14MOL    O97 7663   5.053   3.165   0.817  0.2170 -0.2028  0.0206
   14MOL    C98 7664   5.177   3.120   0.796  0.0785  0.1821  0.4292
   14MOL    O99 7665   5.210   3.069   0.920 -0.5873  0.5493 -0.1646
   14MOL   C100 7666   5.168   3.008   0.695  0.3823 -0.0630  0.6100
   14MOL   O101 7667   5.289   2.989   0.625 -0.0280 -0.2101 -0.1654
   14MOL   H102 7668   4.372   3.341   0.655  0.5274 -0.7531  1.0123
   14MOL   H103 7669   4.422   3.308   0.486  2.0095 -0.6458 -0.5282
   14MOL   H104 7670   4.647   3.247   0.618  0.4174  0.3650 -0.8469
   14MOL   H105 7671   4.675   3.349   0.449  0.4271  0.5642 -0.3707
   14MOL   H106 7672   4.565   3.522   0.732  2.2073  0.2376 -3.4839
   14MOL   H107 7673   4.569   3.390   0.832 -2.9104  0.3618 -1.2697
   14MOL   H108 7674   4.831   3.259   0.747  0.7441 -0.8485  0.7865
   14MOL   H109 7675   4.772   3.311   0.906 -0.3550  0.4501  0.4774
   14MOL   H110 7676   4.961   3.477   0.919  0.4179  0.1371  0.1144
   14MOL   H111 7677   5.005   3.417   0.752 -1.4737  0.0065  0.1174
   14MOL   H112 7678   5.133   3.309   0.933  0.3622 -0.7598 -0.0846
   14MOL   H113 7679   4.987   3.241   1.005  1.9819 -1.2057  0.3500
   14MOL   H114 7680   5.240   3.206   0.774  0.7439 -0.8483 -1.8600
   14MOL   H115 7681   5.200   2.976   0.917  1.3014  0.2594  1.2547
   14MOL   H116 7682   5.138   2.912   0.738  0.5656 -0.4767 -0.1706
   14MOL   H117 7683   5.081   3.036   0.636  0.2619  0.3310  0.9742
   14MOL   C118 7684   5.279   2.877   0.531  0.6366 -0.4096 -0.6990
   14MOL   C119 7685   5.415   2.874   0.457 -0.0338  0.1077 -0.2163
   14MOL   O120 7686   5.503   2.835   0.557  0.8048 -0.6025 -0.1130
   14MOL   C121 7687   5.447   3.009   0.381  0.2682 -0.8616  0.1673
   14MOL   O122 7688   5.343   3.016   0.283 -0.0606 -0.6225  0.1104
   14MOL   C123 7689   5.365   3.128   0.194 -0.1608 -0.0207  0.0504
   14MOL   C124 7690   5.230   3.164   0.132  0.0016  0.0101 -0.0734
   14MOL   C125 7691   5.141   3.217   0.239  0.0100 -0.0810  0.3900
   14MOL   O126 7692   5.022   3.243   0.175  0.0567 -0.6795 -0.1594
   14MOL   C127 7693   4.937   3.337   0.249  1.1374  0.3352 -0.4985
   14MOL   O128 7694   4.891   3.288   0.372 -0.9986 -0.1066 -0.2768
   14MOL   C129 7695   4.826   3.387   0.153 -0.1412  0.2987 -0.1307
   14MOL   O130 7696   4.891   3.494   0.075 -0.4925 -0.3339  0.0261
   14MOL   H131 7697   5.271   2.785   0.590 -0.0292 -1.2464 -2.0509
   14MOL   H132 7698   5.194   2.883   0.462  1.0922  1.0244 -1.1513
   14MOL   H133 7699   5.411   2.795   0.382  0.0201 -1.1181  1.0314
   14MOL   H134 7700   5.482   2.888   0.633  2.5340  1.9701 -1.3615
   14MOL   H135 7701   5.449   3.091   0.452 -1.9838 -0.8864  0.2972
   14MOL   H136 7702   5.544   3.005   0.333  0.6347 -0.4275  0.8719
   14MOL   H137 7703   5.423   3.079   0.116  0.6605  0.9819  0.0350
   14MOL   H138 7704   5.420   3.207   0.245  1.2946 -1.1305  0.2311
   14MOL   H139 7705   5.176   3.080   0.090 -0.3344 -0.4838  1.2997
   14MOL   H140 7706   5.249   3.246   0.062 -0.9750 -0.7761 -1.2690
   14MOL   H141 7707   5.119   3.152   0.323 -1.5108 -0.7847 -0.5341
   14MOL   H142 7708   5.190   3.305   0.282 -0.5411  0.3199  0.2025
   14MOL   H143 7709   4.994   3.424   0.280  1.3177  0.2834 -0.6814
   14MOL   H144 7710   4.853   3.202   0.363  0.4311 -0.9902  1.8523
   14MOL   H145 7711   4.803   3.308   0.082 -1.5142 -0.3843  1.0347
   14MOL   H146 7712   4.741   3.422   0.212 -0.8989  0.3877 -1.2758
   14MOL   C147 7713   4.805   3.557   7.674 -0.0462 -1.0647 -0.2522
   14MOL   C148 7714   4.787   3.464   7.559 -0.3873 -0.4371  0.0147
   14MOL   O149 7715   4.920   3.441   7.497  0.4948  0.2351  0.0078
   14MOL   C150 7716   4.686   3.522   7.453  0.4857 -0.1509 -0.0766
   14MOL   O151 7717   4.672   3.439   7.340 -0.2747  0.4202 -0.2799
   14MOL   C152 7718   4.587   3.504   7.253 -0.6768  0.2011 -0.3883
   14MOL   C153 7719   4.560   3.412   7.136  0.3803 -0.7364  0.3249
   14MOL   C154 7720   4.454   3.466   7.039  0.5967  0.3025 -0.0472
   14MOL   O155 7721   4.442   3.381   6.926 -0.2621 -0.0343  0.2524
   14MOL   C156 7722   4.369   3.443   6.825 -0.3793 -0.1558 -0.3075
   14MOL   O157 7723   4.233   3.453   6.852 -0.6088  0.2286 -0.2264
   14MOL   C158 7724   4.394   3.357   6.702 -0.5437 -0.0339  0.4758
   14MOL   O159 7725   4.493   3.431   6.626 -0.1794  0.1436 -0.4518
   14MOL   H160 7726   4.845   3.650   7.636 -1.8173 -0.0805  0.2159
   14MOL   H161 7727   4.708   3.588   0.020 -0.6269 -1.9521 -0.9409
   14MOL   H162 7728   4.746   3.366   7.584  0.1603 -0.3181  1.4171
   14MOL   H163 7729   4.973   3.479   7.565 -1.9222  1.6283  1.1670
   14MOL   H164 7730   4.595   3.536   7.512 -1.2238  0.7742 -2.8009
   14MOL   H165 7731   4.729   3.618   7.424  0.8170 -0.5551 -0.9212
   14MOL   H166 7732   4.636   3.592   7.213  2.1937 -1.3081 -0.2792
   14MOL   H167 7733   4.492   3.530   7.301 -0.4173  0.4564 -0.0114
   14MOL   H168 7734   4.529   3.311   7.162 -3.3753 -0.2356 -1.8287
   14MOL   H169 7735   4.650   3.407   7.073 -0.2471  2.2979 -0.9063
   14MOL   H170 7736   4.354   3.472   7.082  0.3492  0.7470 -0.6930
   14MOL   H171 7737   4.501   3.560   7.013 -2.5923  1.9912  0.0586
   14MOL   H172 7738   4.410   3.542   6.802 -0.9823 -0.4504 -2.7739
   14MOL   H173 7739   4.187   3.472   6.771 -0.1110  0.3932 -0.4713
   14MOL   H174 7740   4.424   3.257   6.734 -0.7867 -0.6218 -1.0689
   14MOL   H175 7741   4.305   3.333   6.643  0.1838 -0.5563 -0.4286
   14MOL   C176 7742   4.620   3.388   6.649  0.0002 -0.2058  1.3107
   14MOL   C177 7743   4.724   3.496   6.618 -0.5209 -0.3623 -0.9875
   14MOL   O178 7744   4.733   3.511   6.479  0.1002  0.2017 -0.7264
   14MOL   C179 7745   4.867   3.465   6.674  0.4885  0.2278  0.3964
   14MOL   O180 7746   4.859   3.472   6.822 -0.0037 -0.3257 -0.9336
   14MOL   C181 7747   4.963   3.389   6.878  0.0637  0.3126 -0.4986
   14MOL   C182 7748   5.100   3.454   6.862 -0.2960 -0.2552  0.4243
   14MOL   C183 7749   5.218   3.371   6.914 -0.1871  0.2563 -0.1023
   14MOL   O184 7750   5.243   3.250   6.843 -0.0203 -0.2196 -0.3525
   14MOL   C185 7751   5.311   3.269   6.723 -0.4428  0.0768 -0.5570
   14MOL   O186 7752   5.232   3.305   6.610 -0.1681 -0.2291 -0.1083
   14MOL   C187 7753   5.380   3.147   6.685  0.1881  0.3431 -0.2023
   14MOL   O188 7754   5.278   3.045   6.668  0.3634 -0.2698  0.5782
   14MOL   H189 7755   4.632   3.297   6.590  1.2032  0.3111  0.7263
   14MOL   H190 7756   4.636   3.364   6.754 -0.9749  1.4750  1.8482
   14MOL   H191 7757   4.701   3.593   6.662  0.2571 -0.0306 -1.2899
   14MOL   H192 7758   4.642   3.515   6.453 -0.0197  0.8622 -0.2102
   14MOL   H193 7759   4.899   3.365   6.643  2.6358  1.2961 -0.9387
   14MOL   H194 7760   4.940   3.534   6.632  1.7045 -1.6402 -0.6560
   14MOL   H195 7761   4.956   3.284   6.848  2.3545  0.1366 -0.5667
   14MOL   H196 7762   4.942   3.383   6.984 -0.1018 -0.1665 -0.5578
   14MOL   H197 7763   5.095   3.545   6.922  0.2547 -0.6255  1.0405
   14MOL   H198 7764   5.127   3.485   6.761  1.6323  0.4862  1.1352
   14MOL   H199 7765   5.307   3.434   6.907  0.2178 -0.5344 -2.4395
   14MOL   H200 7766   5.204   3.343   7.018 -1.6579  0.8939 -0.1106
   14MOL   H201 7767   5.380   3.352   6.736  1.4032 -1.8034  1.9750
   14MOL   H202 7768   5.174   3.235   6.586 -0.0796 -0.5653  0.6359
   14MOL   H203 7769   5.438   3.164   6.594  1.9792 -1.2578  0.5928
   14MOL   H204 7770   5.441   3.106   6.766  0.7033  1.9460  0.2285
   14MOL   C205 7771   5.326   2.922   6.605 -0.7315 -0.5232 -0.2779
   14MOL   C206 7772   5.258   2.918   6.460  0.2900 -0.2841 -0.0863
   14MOL   O207 7773   5.308   3.025   6.388 -0.0924  0.5292 -0.0336
   14MOL   C208 7774   5.303   2.782   6.393  0.1111  0.3947 -0.2828
   14MOL   O209 7775   5.250   2.774   6.263 -0.3995 -0.2847 -0.1988
   14MOL   C210 7776   5.297   2.658   6.189  0.1547  0.2797  0.8048
   14MOL   C211 7777   5.276   2.680   6.039 -0.4260 -0.4860  0.4110
   14MOL   C212 7778   5.360   2.784   5.964  0.5654  0.6542 -1.0780
   14MOL   O213 7779   5.297   2.908   5.996 -0.3244  0.3604  0.5218
   14MOL   C214 7780   5.385   3.012   6.027  0.0318  0.5645  0.5214
   14MOL   O215 7781   5.443   2.996   6.153 -0.1414 -0.2980  0.1846
   14MOL   C216 7782   5.301   3.140   6.018 -0.0774  0.5249 -0.3590
   14MOL   O217 7783   5.188   3.133   6.098  0.5224 -0.0967 -0.1816
   14MOL   H218 7784   5.283   2.856   6.680  0.4574  0.6129  1.4672
   14MOL   H219 7785   5.434   2.918   6.619 -0.7711  0.5471  0.4121
   14MOL   H220 7786   5.151   2.910   6.480  0.3696  1.1567  0.9614
   14MOL   H221 7787   5.296   3.101   6.442  1.4348 -0.0764  1.1740
   14MOL   H222 7788   5.412   2.775   6.396 -0.1144 -3.3648  0.7072
   14MOL   H223 7789   5.262   2.708   6.462  1.3940  1.8465  2.1100
   14MOL   H224 7790   5.244   2.569   6.225 -1.0704  1.4157  1.8464
   14MOL   H225 7791   5.401   2.635   6.208  0.0104 -0.1208  1.1170
   14MOL   H226 7792   5.171   2.686   6.009 -0.9865 -2.2085  1.9392
   14MOL   H227 7793   5.317   2.585   6.008 -0.6247  0.1783 -1.9878
   14MOL   H228 7794   5.466   2.781   5.990  0.0271  1.3726  1.2697
   14MOL   H229 7795   5.360   2.768   5.856  0.5728  2.2074 -1.3109
   14MOL   H230 7796   5.471   3.019   5.960 -0.1814 -0.3010  0.1543
   14MOL   H231 7797   5.371   3.011   6.212 -1.9299 -0.7792 -1.8134
   14MOL   H232 7798   5.363   3.227   6.041 -0.3774  0.5211  0.4892
   14MOL   H233 7799   5.272   3.161   5.915  0.1202  0.7014 -0.3774
   14MOL   C234 7800   5.119   3.259   6.119  0.2647  0.0439  0.9499
   14MOL   C235 7801   4.998   3.254   6.209 -0.2179 -0.4830 -0.0857
   14MOL   O236 7802   4.901   3.165   6.159 -0.5513  0.1121 -0.6895
   14MOL   C237 7803   4.939   3.396   6.230  0.2931  0.7516 -0.0941
   14MOL   O238 7804   5.029   3.487   6.295 -0.0981  0.5034 -0.6333
   14MOL   C239 7805   5.003   3.622   6.276 -1.1028  0.2410  0.7885
   14MOL   C240 7806   5.118   3.709   6.327  0.0337 -0.6901  0.0955
   14MOL   C241 7807   5.138   3.681   6.479 -0.1500 -0.6314 -0.2090
   14MOL   O242 7808   5.260   3.752   6.525 -0.1800  0.2422  0.3900
   14MOL   C243 7809   5.324   3.704   6.640  0.0433  0.2537 -0.0724
   14MOL   O244 7810   5.281   3.775   6.757 -0.3909  0.2179 -0.4911
   14MOL   C245 7811   5.471   3.712   6.627 -0.5580 -0.8208 -0.1127
   14MOL   O246 7812   5.513   3.845   6.620 -0.4430  0.1646  0.5208
   14MOL   H247 7813   5.189   3.329   6.164  0.5560 -0.0609  0.6658
   14MOL   H248 7814   5.086   3.292   6.021  0.7444 -1.6288  0.2097
   14MOL   H249 7815   5.009   3.211   6.308  0.8059 -2.5727 -1.0692
   14MOL   H250 7816   4.942   3.088   6.124  0.3675  0.5326 -0.5609
   14MOL   H251 7817   4.907   3.437   6.134 -1.0545 -1.6849 -0.7334
   14MOL   H252 7818   4.847   3.394   6.288 -0.4035 -0.2504 -1.2166
   14MOL   H253 7819   4.911   3.650   6.328 -1.4090 -0.9097  0.8813
   14MOL   H254 7820   5.001   3.647   6.170  0.1656  0.0292  0.7131
   14MOL   H255 7821   5.082   3.811   6.319  2.5366  0.4422  2.5680
   14MOL   H256 7822   5.208   3.687   6.269  0.1227 -0.4553  0.1482
   14MOL   H257 7823   5.060   3.723   6.542  2.2306  0.8727  1.8267
   14MOL   H258 7824   5.154   3.574   6.489  0.7232 -0.4599  0.3536
   14MOL   H259 7825   5.289   3.603   6.660  0.3816 -0.0282 -0.9148
   14MOL   H260 7826   5.314   3.863   6.747 -0.7044  0.2692 -1.1174
   14MOL   H261 7827   5.517   3.666   6.714 -0.2203  1.7756  1.1330
   14MOL   H262 7828   5.496   3.647   6.543 -2.5350 -3.2508  1.0896
   14MOL   C263 7829   5.657   3.854   6.614 -0.6354 -0.0645 -0.0171
   14MOL   C264 7830   5.689   3.883   6.465  0.4068 -0.4898  0.1899
   14MOL   O265 7831   5.710   4.015   6.439 -0.0762  0.6187 -0.4420
   14MOL   C266 7832   5.800   3.797   6.402  0.2749  0.4067 -0.1514
   14MOL   O267 7833   5.822   3.835   6.274  0.5829 -0.1229  0.5493
   14MOL   C268 7834   5.911   3.739   6.208 -0.3994 -0.3442 -0.0526
   14MOL   C269 7835   5.964   3.801   6.077 -0.2554  0.0670 -0.5289
   14MOL   C270 7836   6.063   3.704   6.014 -0.3620  0.6761  0.0867
   14MOL   O271 7837   6.118   3.758   5.893 -0.1303 -0.4616  0.0904
   14MOL   C272 7838   6.175   3.664   5.805  0.0992  0.0873 -0.6904
   14MOL   O273 7839   6.072   3.590   5.742  0.3575  0.2013  0.1491
   14MOL   C274 7840   6.251   3.744   5.697 -0.1779  0.2431 -0.6886
   14MOL   O275 7841   6.360   3.666   5.645  0.3080  0.7968  0.1872
   14MOL   H276 7842   5.707   3.760   6.637 -0.9034 -0.4363 -0.9569
   14MOL   H277 7843   5.681   3.923   6.695  2.8219  0.2952 -1.2728
   14MOL   H278 7844   5.598   3.859   6.409 -0.2784  0.9761  0.6618
   14MOL   H279 7845   5.780   4.018   6.375 -0.8056 -0.5602 -1.3334
   14MOL   H280 7846   5.902   3.808   6.439  0.3146 -0.6750  0.0678
   14MOL   H281 7847   5.760   3.696   6.408 -2.1536  1.2669 -1.0891
   14MOL   H282 7848   5.856   3.649   6.183 -0.9508 -0.0637  0.1305
   14MOL   H283 7849   6.000   3.720   6.267  0.1508 -1.4078 -1.2082
   14MOL   H284 7850   6.001   3.902   6.093 -2.8215  0.9106  0.4292
   14MOL   H285 7851   5.893   3.819   5.997 -0.2871  1.7000 -0.1451
   14MOL   H286 7852   6.142   3.694   6.089 -1.6166 -1.6513  1.1643
   14MOL   H287 7853   6.019   3.605   5.999 -0.8416  0.8970  0.0121
   14MOL   H288 7854   6.229   3.593   5.867 -0.0327  0.8579  0.3191
   14MOL   H289 7855   6.003   3.649   5.716 -0.7769 -1.0675  0.2034
   14MOL   H290 7856   6.178   3.773   5.621  0.5177  1.0098 -1.0649
   14MOL   H291 7857   6.291   3.832   5.746 -0.3372  0.7109 -1.3892
   14MOL   C292 7858   6.327   3.553   5.556 -0.3080  0.3393  0.8039
   14MOL   C293 7859   6.446   3.488   5.494 -0.7412  0.8066  0.3058
   14MOL   O294 7860   6.480   3.575   5.385 -0.6130  0.0186 -0.2915
   14MOL   C295 7861   6.569   3.482   5.583 -0.0133  0.2368 -0.6322
   14MOL   O296 7862   6.677   3.426   5.500 -0.2213 -0.1992 -0.0036
   14MOL   C297 7863   6.790   3.387   5.574 -0.2378 -0.0092 -0.2426
   14MOL   C298 7864   6.892   3.328   5.480  0.4975  0.7337 -0.2573
   14MOL   C299 7865   7.025   3.308   5.537  0.2660  0.4592 -0.3188
   14MOL   O300 7866   7.084   3.434   5.524 -0.3224 -0.3187 -0.4982
   14MOL   C301 7867   7.193   3.448   5.603 -0.8280 -0.3509 -0.3379
   14MOL   O302 7868   7.305   3.376   5.557 -0.1506  0.3060 -0.1176
   14MOL   C303 7869   7.226   3.597   5.620 -0.6143 -0.5440 -0.1529
   14MOL   O304 7870   7.132   3.658   5.706  0.2205 -0.1819 -0.0140
   14MOL   H305 7871   6.269   3.483   5.616  0.9604 -0.7055  0.8296
   14MOL   H306 7872   6.259   3.589   5.479  2.2515  1.6023 -0.9381
   14MOL   H307 7873   6.420   3.394   5.447  0.5914  1.5839 -2.0914
   14MOL   H308 7874   6.568   3.549   5.363 -0.5230 -0.5743  0.7158
   14MOL   H309 7875   6.587   3.584   5.619 -2.1671 -0.5993  3.1190
   14MOL   H310 7876   6.556   3.418   5.670  1.3980  0.9160  0.0986
   14MOL   H311 7877   6.760   3.318   5.653  0.0276  2.2631  1.8988
   14MOL   H312 7878   6.833   3.476   5.620 -0.3470 -0.5900  1.0202
   14MOL   H313 7879   6.890   3.388   5.389 -2.3552 -0.1277 -0.8325
   14MOL   H314 7880   6.851   3.233   5.444 -0.1084  0.7645  0.3377
   14MOL   H315 7881   7.012   3.263   5.636  0.9251 -3.2138 -1.8166
   14MOL   H316 7882   7.088   3.234   5.488  3.0165  1.8712  0.9541
   14MOL   H317 7883   7.174   3.404   5.701 -0.5611  1.9889  0.8014
   14MOL   H318 7884   7.350   3.345   5.634 -0.0082 -1.2496 -0.8080
   14MOL   H319 7885   7.218   3.635   5.518 -3.1159 -1.5059 -0.3352
   14MOL   H320 7886   7.324   3.601   5.667 -0.3265 -2.1819 -0.6001
   14MOL   C321 7887   7.015   3.710   5.638 -0.2718 -0.3227 -0.1555
   14MOL   C322 7888   6.911   3.762   5.737 -0.4010 -0.7187  0.0784
   14MOL   O323 7889   6.962   3.876   5.799 -0.3523 -0.0164 -0.1714
   14MOL   C324 7890   6.780   3.809   5.678 -0.3735 -0.6490  0.0848
   14MOL   O325 7891   6.807   3.912   5.591  0.7721 -0.5957  0.3404
   14MOL   C326 7892   6.694   3.981   5.544  0.1515 -0.2068  0.2118
   14MOL   C327 7893   6.596   3.902   5.454 -0.5978  0.2454 -0.9073
   14MOL   C328 7894   6.487   3.990   5.387 -0.3862  0.6970  0.2490
   14MOL   O329 7895   6.528   4.099   5.301 -0.0167 -0.0083 -0.1332
   14MOL   C330 7896   6.566   4.052   5.177 -0.1420 -0.0546 -0.0711
   14MOL   O331 7897   6.458   4.031   5.098  0.4521  0.4553  0.3399
   14MOL   C332 7898   6.661   4.157   5.115 -0.6732  0.5374 -0.2780
   14MOL   O333 7899   6.734   4.118   4.995 -0.2845 -0.3068 -0.1619
   14MOL   H334 7900   6.979   3.624   5.582  1.9340 -0.4820 -1.4091
   14MOL   H335 7901   7.032   3.790   5.567 -0.5264  0.2004  0.3695
   14MOL   H336 7902   6.895   3.685   5.813  0.3015  1.6007  2.6469
   14MOL   H337 7903   6.961   3.942   5.731 -1.0931 -1.8545 -2.0124
   14MOL   H338 7904   6.708   3.833   5.757  0.7659 -0.6999  1.1537
   14MOL   H339 7905   6.745   3.721   5.625  1.5330  0.0804 -2.4777
   14MOL   H340 7906   6.714   4.069   5.483  1.7588 -2.0353 -1.9944
   14MOL   H341 7907   6.633   4.010   5.629  0.6630 -1.6800  1.1171
   14MOL   H342 7908   6.636   3.837   5.375  0.3030  1.1656 -1.2161
   14MOL   H343 7909   6.537   3.837   5.519  1.0455  0.2790  0.6832
   14MOL   H344 7910   6.410   3.922   5.349  1.5735 -0.9303 -0.8927
   14MOL   H345 7911   6.437   4.037   5.471  3.1838  1.9527  1.7508
   14MOL   H346 7912   6.621   3.958   5.179 -0.4536 -0.3138 -2.7562
   14MOL   H347 7913   6.436   4.117   5.065  3.3339  1.3047  0.5072
   14MOL   H348 7914   6.602   4.246   5.092 -0.3013  0.7795 -0.2895
   14MOL   H349 7915   6.729   4.197   5.190  1.5227  0.7814 -2.3498
   14MOL   C350 7916   6.826   4.215   4.954  0.2535  0.5527 -0.1206
   14MOL   C351 7917   6.911   4.156   4.834 -0.1699  0.6457  0.0752
   14MOL   O352 7918   6.831   4.166   4.707 -0.0914  0.4642  0.3913
   14MOL   C353 7919   7.048   4.222   4.823 -0.5571 -0.0667  0.4277
   14MOL   O354 7920   7.135   4.135   4.753  0.7037 -0.1418 -0.5162
   14MOL   C355 7921   7.263   4.198   4.736  0.5994  0.3329 -0.1655
   14MOL   C356 7922   7.362   4.090   4.685  0.9288  0.0969 -0.8390
   14MOL   C357 7923   7.499   4.154   4.653  0.6447  0.3453 -0.1186
   14MOL   O358 7924   7.590   4.048   4.623  0.3793  0.2202 -0.3036
   14MOL   C359 7925   0.024   4.070   4.576 -0.4156 -0.3379  0.0581
   14MOL   O360 7926   0.096   4.144   4.662  0.2833 -0.5741 -0.4265
   14MOL   C361 7927   0.088   3.931   4.545 -0.0730 -0.1991 -0.2119
   14MOL   O362 7928   0.080   3.833   4.651  0.1206 -0.2586 -0.2480
   14MOL   H363 7929   6.893   4.245   5.035  1.8075 -0.7164 -0.9071
   14MOL   H364 7930   6.782   4.310   4.922  0.0398 -0.2722 -2.3721
   14MOL   H365 7931   6.940   4.053   4.853 -0.4896  0.3887 -0.8000
   14MOL   H366 7932   6.737   4.165   4.723 -0.2563  0.8667 -0.5150
   14MOL   H367 7933   7.034   4.325   4.787 -2.5415 -0.3435  0.3520
   14MOL   H368 7934   7.080   4.225   4.927  0.0129 -1.2268  0.2843
   14MOL   H369 7935   7.312   4.239   4.824  0.5656 -1.1147  0.5492
   14MOL   H370 7936   7.247   4.269   4.655 -0.2153 -0.0084 -0.3105
   14MOL   H371 7937   7.315   4.043   4.599 -1.6207  0.9944 -0.0115
   14MOL   H372 7938   7.384   4.016   4.762 -0.5217 -0.7500 -1.2181
   14MOL   H373 7939   7.481   4.225   4.572 -0.2672  1.4146  0.9935
   14MOL   H374 7940   7.532   4.212   4.740  0.0631  0.1075  0.2645
   14MOL   H375 7941   0.014   4.130   4.486  0.0924 -0.2120  0.0838
   14MOL   H376 7942   0.141   4.081   4.717 -0.4425 -0.7616 -0.0404
   14MOL   H377 7943   0.033   3.892   4.459  0.1792 -1.4094  0.1685
   14MOL   H378 7944   0.191   3.958   4.523 -0.0869  1.5058  1.7339
   14MOL   C379 7945   7.648   3.763   4.658  0.0064 -0.0800  0.0292
   14MOL   C380 7946   7.675   3.673   4.775  0.0040 -0.3454 -0.4900
   14MOL   O381 7947   7.682   3.747   4.894 -0.2657 -0.0480 -0.1118
   14MOL   C382 7948   7.578   3.551   4.774  0.3317 -0.7862 -0.2765
   14MOL   O383 7949   7.446   3.600   4.752 -0.0584  0.4355 -0.5326
   14MOL   C384 7950   7.354   3.496   4.771 -0.1392  0.2861  0.3269
   14MOL   C385 7951   7.214   3.538   4.730 -0.1774 -0.2663 -0.0003
   14MOL   C386 7952   7.114   3.426   4.764  0.5282 -0.6103  0.2261
   14MOL   O387 7953   7.120   3.421   4.909  0.5163  0.1100 -0.2099
   14MOL   C388 7954   7.060   3.310   4.968 -0.2757 -0.3249  0.6341
   14MOL   O389 7955   7.129   3.191   4.945 -0.2246 -0.1449 -0.4498
   14MOL   C390 7956   7.043   3.348   5.117  0.1204  0.2656  0.6605
   14MOL   O391 7957   6.922   3.428   5.137 -0.2806  0.0791 -0.5594
   14MOL   H392 7958   7.634   3.697   4.572 -1.1700 -0.1020  0.2297
   14MOL   H393 7959   7.557   3.823   4.661  0.1595  0.2038 -0.7421
   14MOL   H394 7960   0.079   3.627   4.762 -1.4753 -3.0922 -2.7561
   14MOL   H395 7961   7.591   3.761   4.918  0.4482  1.3682  1.9794
   14MOL   H396 7962   7.616   3.481   4.699 -0.7371 -2.0306  0.3301
   14MOL   H397 7963   7.594   3.513   4.875  1.4412 -1.2343 -0.6148
   14MOL   H398 7964   7.353   3.461   4.874 -0.4160 -0.5176  0.0516
   14MOL   H399 7965   7.392   3.414   4.709 -0.4313  1.7933 -1.9005
   14MOL   H400 7966   7.232   3.571   4.628  0.8406 -0.9741 -0.0587
   14MOL   H401 7967   7.170   3.621   4.786 -1.7788 -1.9848  1.3839
   14MOL   H402 7968   7.014   3.453   4.732  0.2933  0.4207  1.7820
   14MOL   H403 7969   7.145   3.333   4.716  0.0330 -0.5766 -0.1559
   14MOL   H404 7970   6.960   3.296   4.927  0.3914  0.1215 -1.1867
   14MOL   H405 7971   7.222   3.206   4.955 -0.3641 -0.0111  0.7139
   14MOL   H406 7972   7.023   3.260   5.177 -2.1481 -0.3953 -0.9730
   14MOL   H407 7973   7.131   3.395   5.161  0.2469  0.5377  0.1201
   14MOL   C408 7974   6.935   3.566   5.148  0.6042  0.6175 -0.2037
   14MOL   C409 7975   6.798   3.631   5.170  0.2536  0.0014  0.2202
   14MOL   O410 7976   6.762   3.601   5.299 -0.1750  0.1125  0.0513
   14MOL   C411 7977   6.687   3.598   5.063  0.2362  0.3835 -0.0349
   14MOL   O412 7978   6.737   3.607   4.929  0.4080 -0.3159  0.1707
   14MOL   C413 7979   6.744   3.736   4.868  0.0530 -0.5764 -0.2199
   14MOL   C414 7980   6.820   3.723   4.739  0.2028  0.4461 -0.4970
   14MOL   C415 7981   6.883   3.846   4.675  0.6380 -0.3135 -0.0838
   14MOL   O416 7982   6.952   3.816   4.555 -0.1576  0.8507  0.1130
   14MOL   C417 7983   7.028   3.926   4.500  0.4887 -0.1266  0.5420
   14MOL   O418 7984   6.950   4.035   4.460 -0.2977  0.1510  0.0733
   14MOL   C419 7985   7.110   3.870   4.382  0.5841 -0.8172  0.4331
   14MOL   O420 7986   7.220   3.795   4.424  0.5871 -0.0961  0.3263
   14MOL   H421 7987   6.979   3.607   5.057 -0.8761  1.6560 -0.4820
   14MOL   H422 7988   7.009   3.590   5.224 -1.0773 -0.9001  1.9658
   14MOL   H423 7989   6.802   3.740   5.175  1.1814  0.0526 -1.4402
   14MOL   H424 7990   6.785   3.511   5.314 -1.0368 -0.4020 -1.5927
   14MOL   H425 7991   6.647   3.500   5.087  0.2527  0.6428  1.0386
   14MOL   H426 7992   6.604   3.666   5.078 -0.9998 -0.7632 -1.4227
   14MOL   H427 7993   6.643   3.778   4.865 -1.2885 -3.6691 -0.2833
   14MOL   H428 7994   6.794   3.803   4.938  0.1509 -0.8090 -0.0659
   14MOL   H429 7995   6.750   3.681   4.666  1.4988 -3.7162  0.5076
   14MOL   H430 7996   6.897   3.647   4.754 -1.5342 -1.2383  0.2099
   14MOL   H431 7997   6.812   3.926   4.655  1.2120 -0.4342 -2.7711
   14MOL   H432 7998   6.960   3.881   4.745  0.2937 -0.5175  0.4040
   14MOL   H433 7999   7.099   3.959   4.577  1.7663 -1.4658 -0.0260
   14MOL   H434 8000   6.933   4.086   4.538 -1.4808  0.9771 -0.6998
   14MOL   H435 8001   7.047   3.807   4.319 -0.6672 -0.0730  0.9364
   14MOL   H436 8002   7.144   3.955   4.322 -1.5895  0.2503  0.6996
   14MOL   C437 8003   7.307   3.754   4.321  0.2693 -0.0980 -0.3035
   14MOL   C438 8004   7.404   3.644   4.369  0.7009  0.3412 -0.2340
   14MOL   O439 8005   7.517   3.649   4.290 -0.3807  0.4169  0.4446
   14MOL   C440 8006   7.340   3.505   4.343  0.2760 -0.3630 -0.0735
   14MOL   O441 8007   7.418   3.395   4.404 -0.1503  0.1280 -0.1981
   14MOL   C442 8008   7.366   3.273   4.355 -0.0421 -0.1013 -0.5086
   14MOL   C443 8009   7.425   3.150   4.433  0.7167  0.0449  0.2991
   14MOL   C444 8010   7.380   3.149   4.573 -0.3688  0.2307  0.5177
   14MOL   O445 8011   7.405   3.023   4.635  0.1067 -0.0274  0.1705
   14MOL   C446 8012   7.353   3.011   4.769  0.4335  0.2514  0.0170
   14MOL   O447 8013   7.396   3.113   4.851 -0.5695  0.1003  0.5673
   14MOL   C448 8014   7.372   2.868   4.828 -0.3644 -0.0927  0.4812
   14MOL   O449 8015   7.508   2.851   4.828 -0.2515 -0.1705  0.3411
   14MOL   H450 8016   7.251   3.716   4.236 -0.1844  1.2975 -0.6331
   14MOL   H451 8017   7.353   3.844   4.281 -0.3757 -0.2293 -1.3450
   14MOL   H452 8018   7.438   3.652   4.472  0.2251  0.4032 -0.0767
   14MOL   H453 8019   7.489   3.653   4.199  1.1491 -0.7176 -0.1014
   14MOL   H454 8020   7.237   3.506   4.379  0.0385  0.7176 -0.7622
   14MOL   H455 8021   7.341   3.484   4.236 -0.2707  0.7735 -0.3168
   14MOL   H456 8022   7.393   3.254   4.251  2.5018  2.3300 -0.3417
   14MOL   H457 8023   7.257   3.263   4.357 -0.2162  1.6605 -0.1291
   14MOL   H458 8024   7.534   3.154   4.429  0.7445  0.4994  1.3703
   14MOL   H459 8025   7.393   3.063   4.376  3.4124 -1.5393  1.1006
   14MOL   H460 8026   7.450   3.218   4.620  1.9401 -1.4815 -0.3353
   14MOL   H461 8027   7.272   3.162   4.587 -0.6359 -1.0760 -0.2855
   14MOL   H462 8028   7.245   3.017   4.759  0.5851 -1.2710 -3.3307
   14MOL   H463 8029   7.483   3.086   4.875 -0.3208 -0.4778 -0.8982
   14MOL   H464 8030   7.326   2.870   4.927  0.7865  1.2736  1.0017
   14MOL   H465 8031   7.313   2.800   4.767 -0.0659 -0.8231  1.0076
   14MOL   C466 8032   7.544   2.720   4.815 -0.1437  0.3350 -0.0372
   14MOL   C467 8033   0.001   2.704   4.789  0.5295 -0.0346  0.5258
   14MOL   O468 8034   0.079   2.749   4.893 -0.2412  0.3539 -0.1049
   14MOL   C469 8035   0.055   2.565   4.749 -0.3170 -0.4330  0.6760
   14MOL   O470 8036   7.680   2.468   4.821 -0.0837 -0.2620  0.5128
   14MOL   C471 8037   0.047   2.445   4.946  0.6028  0.4001 -0.2752
   14MOL   C472 8038   7.653   2.367   5.037  0.4851 -0.0419 -0.8492
   14MOL   C473 8039   7.693   2.359   5.183  0.3271 -0.2998  0.4872
   14MOL   O474 8040   7.607   2.261   5.242  0.3432  0.3814 -0.7882
   14MOL   C475 8041   7.616   2.259   5.377  0.0701 -0.0832 -0.3150
   14MOL   O476 8042   0.036   2.187   5.415  0.1803  0.0779  0.6137
   14MOL   C477 8043   7.485   2.177   5.418  0.5572  0.0703  0.1498
   14MOL   O478 8044   7.489   2.047   5.356 -1.0323 -0.3432  0.3717
   14MOL   H479 8045   7.494   2.671   4.731  0.3172  1.4442 -0.9664
   14MOL   H480 8046   7.514   2.671   4.908  1.6146 -0.6226  0.0498
   14MOL   H481 8047   0.030   2.777   4.714 -0.0457 -0.6640 -0.3146
   14MOL   H482 8048   0.070   2.842   4.904  0.8552  0.0578  4.1955
   14MOL   H483 8049   0.032   2.553   4.643 -0.7776  0.6208  0.6490
   14MOL   H484 8050   0.164   2.560   4.755 -0.2412  0.6732  0.3385
   14MOL   H485 8051   0.063   2.542   4.994 -0.3746  0.4522 -0.0249
   14MOL   H486 8052   0.145   2.401   4.933  0.4167  0.9038 -3.6625
   14MOL   H487 8053   7.652   2.264   4.999  1.6975 -0.7763  1.0207
   14MOL   H488 8054   7.557   2.418   5.035  0.1574 -0.2391  3.9483
   14MOL   H489 8055   0.102   2.324   5.189  0.1195 -0.8594  0.8099
   14MOL   H490 8056   0.015   2.457   5.229  2.0024 -0.0911 -0.4867
   14MOL   H491 8057   7.618   2.360   5.418  0.6433 -0.7816  1.4368
   14MOL   H492 8058   0.005   2.098   5.406 -0.5007  0.3696 -0.0109
   14MOL   H493 8059   7.489   2.172   5.527  0.1846  2.3125  0.3090
   14MOL   H494 8060   7.396   2.237   5.395  0.5578  0.6837  1.6593
   14MOL   C495 8061   7.359   1.992   5.327 -0.0229  0.3013 -0.2597
   14MOL   C496 8062   7.285   2.075   5.223 -0.3328  0.2033 -0.7597
   14MOL   O497 8063   7.374   2.077   5.110  0.5526  0.0062 -0.2691
   14MOL   C498 8064   7.151   2.010   5.170  0.7408 -0.8094  0.8061
   14MOL   O499 8065   7.053   2.107   5.153 -0.2236  0.3194  0.3105
   14MOL   C500 8066   6.930   2.048   5.123  0.9133 -0.4111 -0.5665
   14MOL   C501 8067   6.834   2.162   5.086 -0.2319  0.0207  0.8134
   14MOL   C502 8068   6.693   2.112   5.053  0.8659 -0.4228 -0.1827
   14MOL   O503 8069   6.609   2.098   5.167  0.4485 -0.4901  0.1073
   14MOL   C504 8070   6.480   2.080   5.137 -0.4199  0.3420  0.0675
   14MOL   O505 8071   6.399   2.202   5.128  0.9767  0.2324  0.7248
   14MOL   C506 8072   6.417   2.000   5.242  1.0903  0.0488 -0.3345
   14MOL   O507 8073   6.457   1.858   5.227  0.1413 -0.1903 -0.5453
   14MOL   H508 8074   7.309   1.996   5.424 -1.6334  0.4720 -1.0912
   14MOL   H509 8075   7.369   1.888   5.294  1.1737  0.9230 -1.9009
   14MOL   H510 8076   7.253   2.174   5.255 -2.6716 -1.0505  0.9531
   14MOL   H511 8077   7.456   2.118   5.133  0.4661  0.0317 -0.0027
   14MOL   H512 8078   7.172   1.959   5.076 -0.7348 -0.5078  0.3106
   14MOL   H513 8079   7.110   1.928   5.229 -2.0950  0.2666  0.3875
   14MOL   H514 8080   6.889   1.989   5.205 -0.9680 -0.7912 -1.7626
   14MOL   H515 8081   6.935   1.987   5.033  0.4811  0.1917 -0.9989
   14MOL   H516 8082   6.879   2.211   5.000 -1.6899 -1.6272 -0.9442
   14MOL   H517 8083   6.835   2.231   5.170 -0.9051 -0.3167  1.1034
   14MOL   H518 8084   6.643   2.174   4.978 -0.2414  0.8604  1.5585
   14MOL   H519 8085   6.686   2.021   4.994 -2.6768 -0.0472 -0.4524
   14MOL   H520 8086   6.466   2.023   5.045  3.1505 -0.1439 -0.2717
   14MOL   H521 8087   6.378   2.234   5.215  1.7025 -0.1716  1.0479
   14MOL   H522 8088   6.445   2.027   5.344 -0.6984  2.0131 -0.3381
   14MOL   H523 8089   6.310   2.015   5.235  1.0315 -0.0655  0.3017
   14MOL   C524 8090   6.391   1.779   5.315  0.2275 -0.0486 -0.0023
   14MOL   C525 8091   6.327   1.663   5.235 -0.1981 -0.2066 -0.2638
   14MOL   O526 8092   6.220   1.707   5.146  0.4356  0.3401 -0.0133
   14MOL   C527 8093   6.260   1.558   5.327  0.2581 -0.4295  0.1065
   14MOL   O528 8094   6.136   1.603   5.378  0.0280 -0.2045 -0.9749
   14MOL   C529 8095   6.064   1.497   5.438 -0.0660 -0.3371 -0.2848
   14MOL   C530 8096   5.924   1.537   5.476  0.1191 -0.0064 -0.0125
   14MOL   C531 8097   5.842   1.416   5.531 -0.3946 -0.6495  0.1528
   14MOL   O532 8098   5.709   1.471   5.560  0.5952  0.1244 -0.0940
   14MOL   C533 8099   5.620   1.373   5.598 -0.4753  0.2038 -0.2412
   14MOL   O534 8100   5.659   1.306   5.717  0.1074  0.6688  0.3852
   14MOL   C535 8101   5.486   1.448   5.616  0.4684 -0.2684 -0.0754
   14MOL   O536 8102   5.434   1.494   5.497 -0.2079 -0.6247  0.1706
   14MOL   H537 8103   6.324   1.839   5.376 -0.5569 -0.4780 -0.4370
   14MOL   H538 8104   6.455   1.732   5.389  0.4625  0.4207  0.0950
   14MOL   H539 8105   6.413   1.620   5.184 -1.1512 -1.8141 -0.5554
   14MOL   H540 8106   6.139   1.713   5.195 -0.0938  0.8339 -0.9391
   14MOL   H541 8107   6.240   1.469   5.266 -0.6771  0.2478 -0.6083
   14MOL   H542 8108   6.325   1.526   5.408  0.8262  2.8973  1.0401
   14MOL   H543 8109   6.119   1.471   5.530 -0.3111  0.5379  0.1114
   14MOL   H544 8110   6.066   1.410   5.372  1.6434  0.5002 -1.3770
   14MOL   H545 8111   5.870   1.578   5.391  0.5308  1.1919  0.2894
   14MOL   H546 8112   5.922   1.620   5.547 -1.4225 -0.5029  0.5382
   14MOL   H547 8113   5.838   1.336   5.457  0.9018 -0.0532 -0.5847
   14MOL   H548 8114   5.892   1.373   5.618 -0.5367 -0.5198  0.2998
   14MOL   H549 8115   5.615   1.297   5.520 -1.5828  0.4923 -0.4614
   14MOL   H550 8116   5.645   1.366   5.789  0.1042  0.9901  0.1186
   14MOL   H551 8117   5.414   1.381   5.665  1.2994 -0.4698  0.8861
   14MOL   H552 8118   5.499   1.537   5.677  0.8059 -0.4678  0.1445
   14MOL   C553 8119   5.376   1.393   5.409  0.2306 -0.3025  0.0705
   14MOL   C554 8120   5.381   1.459   5.272 -1.1974 -0.2281  0.2397
   14MOL   O555 8121   5.515   1.493   5.246 -0.3326 -0.1703 -0.6936
   14MOL   C556 8122   5.305   1.594   5.270  0.2460  0.7449  0.2851
   14MOL   O557 8123   5.239   1.605   5.140  0.1517 -0.1929  0.7500
   14MOL   C558 8124   5.322   1.669   5.051  0.5593  0.1449  0.9163
   14MOL   C559 8125   5.261   1.638   4.910 -0.8920 -0.4423 -0.7582
   14MOL   C560 8126   5.307   1.495   4.876 -0.0571 -0.1403 -0.8715
   14MOL   O561 8127   5.247   1.454   4.752 -1.0054  0.6341 -0.8522
   14MOL   C562 8128   5.277   1.319   4.716  0.1569 -0.7132  0.2181
   14MOL   O563 8129   5.200   1.223   4.781  0.0193  0.0917  0.0126
   14MOL   C564 8130   5.263   1.306   4.560 -0.1943  0.2035 -0.4164
   14MOL   O565 8131   5.128   1.273   4.533 -0.2059  0.4174  0.4272
   14MOL   H566 8132   5.276   1.366   5.445  1.5426 -1.6090  2.9047
   14MOL   H567 8133   5.435   1.302   5.411  0.9947  0.1987  1.4859
   14MOL   H568 8134   5.352   1.399   5.186  1.8176  1.7825 -2.2784
   14MOL   H569 8135   5.553   1.536   5.321 -1.3708 -0.1198 -0.1721
   14MOL   H570 8136   5.222   1.575   5.339 -0.4156 -0.2652 -0.7735
   14MOL   H571 8137   5.364   1.678   5.308 -1.5118 -0.0801  5.3187
   14MOL   H572 8138   5.322   1.774   5.081 -1.1177  1.0510 -2.0564
   14MOL   H573 8139   5.426   1.636   5.058  0.4050 -0.4370  0.5286
   14MOL   H574 8140   5.295   1.707   4.832  0.6286  0.8649  1.0309
   14MOL   H575 8141   5.152   1.645   4.903 -0.8021  0.1952 -1.5970
   14MOL   H576 8142   5.414   1.478   4.871 -0.1649 -1.5349  1.2461
   14MOL   H577 8143   5.278   1.433   4.960 -1.0206  3.2981  1.4337
   14MOL   H578 8144   5.383   1.301   4.733  0.1089 -4.6055 -2.8361
   14MOL   H579 8145   5.133   1.194   4.721 -0.0693  1.3918 -0.5394
   14MOL   H580 8146   5.285   1.407   4.524 -0.9795  0.7690  0.6641
   14MOL   H581 8147   5.338   1.244   4.512  0.3538  0.5310  0.0114
   14MOL   H582 8148   5.081   1.338   4.583  0.0234 -0.2991  1.5941
   15MOL     C1 8149   5.572   2.112   5.934  0.2838  0.1086  0.1437
   15MOL     C2 8150   5.553   2.258   5.895 -0.2050  0.2637  0.2609
   15MOL     O3 8151   5.651   2.333   5.964 -0.1621 -0.7621 -0.0882
   15MOL     C4 8152   5.578   2.297   5.748 -0.4824 -0.1379  0.2196
   15MOL     O5 8153   5.573   2.440   5.745  0.6335 -0.0092 -0.3126
   15MOL     C6 8154   5.616   2.501   5.628  1.1733 -0.1777  0.2741
   15MOL     C7 8155   5.578   2.643   5.646 -0.1732  0.5547 -0.7569
   15MOL     C8 8156   5.659   2.707   5.756  0.4058 -0.5396  0.4808
   15MOL     O9 8157   5.651   2.843   5.731 -0.5225 -0.0284 -0.2679
   15MOL    C10 8158   5.762   2.914   5.777  0.4040  0.6249 -0.1635
   15MOL    O11 8159   5.767   2.913   5.921  0.5555  0.0270  0.1513
   15MOL    C12 8160   5.734   3.066   5.729 -0.6255 -0.1087  0.3284
   15MOL    O13 8161   5.800   3.098   5.609  0.2771 -0.3081 -0.1981
   15MOL    H14 8162   5.663   2.064   5.897 -0.5147 -0.7642 -0.7441
   15MOL    H15 8163   5.484   2.051   5.909  0.9548 -1.2138  0.9819
   15MOL    H16 8164   5.454   2.281   5.936  0.4476  0.8932  1.5154
   15MOL    H17 8165   5.666   2.411   5.913 -0.4296 -1.6271 -1.5084
   15MOL    H18 8166   5.672   2.254   5.714 -0.6930 -1.1989  0.9576
   15MOL    H19 8167   5.500   2.258   5.682 -1.3695  0.5420  0.8556
   15MOL    H20 8168   5.573   2.460   5.537 -3.2664  2.4162  1.0465
   15MOL    H21 8169   5.724   2.490   5.616  0.9546 -0.3585 -1.5734
   15MOL    H22 8170   5.472   2.661   5.667  0.0171  1.0288 -0.1744
   15MOL    H23 8171   5.589   2.692   5.549 -0.0026 -1.1035 -1.5836
   15MOL    H24 8172   5.626   2.690   5.859  1.6431  2.4021  1.4125
   15MOL    H25 8173   5.761   2.667   5.753  1.0500  1.1064  0.3600
   15MOL    H26 8174   5.861   2.880   5.747  0.7412  0.5005  1.0920
   15MOL    H27 8175   5.691   2.957   5.957  0.1380 -0.0516 -0.6344
   15MOL    H28 8176   5.628   3.088   5.712 -0.8085 -1.0839  0.1347
   15MOL    H29 8177   5.771   3.134   5.806 -0.0622  0.9445 -0.8568
   15MOL    H30 8178   5.590   2.098   6.040  2.4416  0.2194 -0.1961
   15MOL    C31 8179   5.801   3.239   5.577 -0.6165 -0.2104 -0.9101
   15MOL    C32 8180   5.915   3.278   5.480 -0.3059  0.1704  0.0334
   15MOL    O33 8181   6.029   3.255   5.561 -0.0273  0.1382 -0.3985
   15MOL    C34 8182   5.913   3.419   5.430  0.1997  0.8239  0.4071
   15MOL    O35 8183   5.965   3.428   5.301  0.1003  0.3973 -0.2029
   15MOL    C36 8184   6.099   3.474   5.291 -0.2257  0.5480  0.2923
   15MOL    C37 8185   6.147   3.473   5.141  0.5379  0.8196 -0.4652
   15MOL    C38 8186   6.292   3.487   5.120  0.8561 -0.3368 -0.3352
   15MOL    O39 8187   6.329   3.435   4.993 -0.0463  0.3818  0.2495
   15MOL    C40 8188   6.278   3.509   4.891  0.7195  0.1633  0.5537
   15MOL    O41 8189   6.170   3.443   4.828 -0.5852 -0.1910 -0.1214
   15MOL    C42 8190   6.390   3.532   4.776 -0.3383 -0.2603  0.0207
   15MOL    O43 8191   6.470   3.423   4.751  0.5090 -0.0415 -0.0349
   15MOL    H44 8192   5.702   3.257   5.535 -1.4046 -0.7490  0.6473
   15MOL    H45 8193   5.807   3.299   5.668  2.6445  1.1706 -1.9895
   15MOL    H46 8194   5.915   3.217   5.389 -0.1680  0.4387 -0.1461
   15MOL    H47 8195   6.021   3.168   5.598  1.1897  0.1424 -0.1085
   15MOL    H48 8196   5.811   3.457   5.428  0.1473  0.7597  1.8120
   15MOL    H49 8197   5.967   3.487   5.496  1.4790  0.5663 -0.3587
   15MOL    H50 8198   6.161   3.419   5.362  1.2683  1.0348 -0.6140
   15MOL    H51 8199   6.108   3.576   5.328 -0.0686  0.7288 -0.2417
   15MOL    H52 8200   6.088   3.551   5.092  0.1965  0.5097 -0.5463
   15MOL    H53 8201   6.108   3.375   5.114  1.5326 -0.7567  3.5234
   15MOL    H54 8202   6.338   3.586   5.123  0.8213 -0.3442  0.8856
   15MOL    H55 8203   6.347   3.433   5.197  2.5329  0.2023 -1.1507
   15MOL    H56 8204   6.247   3.609   4.922  1.9932  0.6082  0.4188
   15MOL    H57 8205   6.210   3.362   4.801  0.7189 -0.0076  1.1736
   15MOL    H58 8206   6.347   3.583   4.690 -1.1610 -0.3259  0.3884
   15MOL    H59 8207   6.458   3.611   4.808 -1.7569  1.4089 -0.9917
   15MOL    C60 8208   6.558   3.430   4.648  0.5558 -0.4092 -0.9655
   15MOL    C61 8209   6.652   3.314   4.668 -0.1030  0.5014 -0.0699
   15MOL    O62 8210   6.764   3.357   4.741  0.0717 -0.2826 -0.3213
   15MOL    C63 8211   6.701   3.240   4.538 -0.1386  0.3475 -0.1839
   15MOL    O64 8212   6.720   3.328   4.429  0.4475  0.3782 -0.3196
   15MOL    C65 8213   6.825   3.426   4.448 -0.1851  0.0281  0.4193
   15MOL    C66 8214   6.880   3.494   4.323  0.4943  0.2123 -0.4683
   15MOL    C67 8215   6.982   3.392   4.250  0.0495 -0.4188  0.4540
   15MOL    O68 8216   7.028   3.461   4.139 -0.5451 -0.0346 -0.0532
   15MOL    C69 8217   7.120   3.385   4.062  0.3769 -0.4862  0.1704
   15MOL    O70 8218   7.062   3.262   4.015  0.1534  0.0647 -0.2505
   15MOL    C71 8219   7.165   3.467   3.940 -0.5074  0.2721  0.5875
   15MOL    O72 8220   7.277   3.399   3.876 -0.0892 -0.2112 -0.8199
   15MOL    H73 8221   6.606   3.528   4.648 -2.4393  1.1134 -0.8413
   15MOL    H74 8222   6.506   3.426   4.552 -1.2558  0.2916 -0.0428
   15MOL    H75 8223   6.596   3.243   4.728 -1.4384  0.8693 -0.8392
   15MOL    H76 8224   6.729   3.380   4.825 -2.1052  0.4329 -1.3775
   15MOL    H77 8225   6.799   3.200   4.562 -1.1433 -2.5931 -0.8291
   15MOL    H78 8226   6.630   3.160   4.515  0.0885 -0.1636  0.8298
   15MOL    H79 8227   6.902   3.376   4.508  0.8602 -1.1553 -1.8270
   15MOL    H80 8228   6.787   3.509   4.507  1.0254  0.5401  0.5004
   15MOL    H81 8229   6.920   3.591   4.354  1.0646  0.6581 -2.4988
   15MOL    H82 8230   6.791   3.519   4.264  0.2585 -1.2595 -0.7372
   15MOL    H83 8231   6.926   3.304   4.218  0.9768 -1.1760  0.8886
   15MOL    H84 8232   7.062   3.383   4.323  1.0914 -0.0913 -0.6173
   15MOL    H85 8233   7.206   3.361   4.123  0.9900 -2.3387 -1.3805
   15MOL    H86 8234   7.084   3.262   3.923 -0.1117 -1.6770 -0.3412
   15MOL    H87 8235   7.084   3.466   3.867  0.0830  0.4884 -0.0795
   15MOL    H88 8236   7.193   3.570   3.961 -0.4494  0.1015  1.3643
   15MOL    C89 8237   7.408   3.420   3.939  0.4755  0.3265  0.0026
   15MOL    C90 8238   7.499   3.541   3.912  0.7290 -0.1361  0.0313
   15MOL    O91 8239   7.474   3.642   4.011  0.4678 -0.0588  0.4865
   15MOL    C92 8240   7.649   3.521   3.915  0.3249 -0.8564 -0.0424
   15MOL    O93 8241   7.670   3.433   3.805  0.3269  0.1261  0.2734
   15MOL    C94 8242   0.088   3.345   3.815  0.1298 -0.1732  0.8397
   15MOL    C95 8243   0.071   3.207   3.880  0.0843 -0.5300  0.6305
   15MOL    C96 8244   0.192   3.117   3.878 -0.2532 -0.3643 -0.1100
   15MOL    O97 8245   0.231   3.074   3.746 -0.8498  0.2538  0.1451
   15MOL    C98 8246   0.353   3.021   3.724  0.1052  0.4528 -0.1079
   15MOL    O99 8247   0.331   2.888   3.686 -0.1584  0.3883  0.1867
   15MOL   C100 8248   0.425   3.109   3.619 -0.4187 -0.4329 -0.6751
   15MOL   O101 8249   0.520   3.200   3.669  0.7804 -0.0667  0.4949
   15MOL   H102 8250   7.462   3.331   3.905 -2.3896 -1.5020  0.1352
   15MOL   H103 8251   7.403   3.407   4.047  0.5883  2.0169  0.2219
   15MOL   H104 8252   7.465   3.587   3.818  1.2402 -0.0923 -0.1328
   15MOL   H105 8253   7.510   3.726   3.984 -1.2200  0.4051 -0.3814
   15MOL   H106 8254   0.007   3.614   3.891  0.5507 -0.2398  2.6800
   15MOL   H107 8255   7.680   3.480   4.011  1.6961 -1.2572 -0.6531
   15MOL   H108 8256   0.168   3.407   3.857  1.5587 -0.9668 -0.6644
   15MOL   H109 8257   0.127   3.338   3.714 -0.1941  0.6588  0.6526
   15MOL   H110 8258   7.679   3.164   3.830  0.4353  0.7363 -1.1095
   15MOL   H111 8259   0.035   3.229   3.981  0.8962  0.6392  0.6830
   15MOL   H112 8260   0.271   3.164   3.936 -1.3785 -0.1710  1.2909
   15MOL   H113 8261   0.174   3.026   3.936  1.0851  0.5690  1.8219
   15MOL   H114 8262   0.404   3.010   3.820  1.3403  1.2660 -0.6509
   15MOL   H115 8263   0.287   2.892   3.602  0.7102 -0.4753 -0.3292
   15MOL   H116 8264   0.485   3.049   3.550  1.7568  0.6233  0.2370
   15MOL   H117 8265   0.345   3.150   3.557 -1.4669 -0.1307  0.8621
   15MOL   C118 8266   0.545   3.293   3.571  0.0000 -0.8380  0.4642
   15MOL   C119 8267   0.634   3.404   3.634 -0.1799  0.6191 -0.0381
   15MOL   O120 8268   0.657   3.504   3.536 -0.1714  0.2525  0.2158
   15MOL   C121 8269   0.775   3.353   3.666  0.4245  0.3210  0.3245
   15MOL   O122 8270   0.840   3.460   3.731  0.8539 -0.1576  0.7334
   15MOL   C123 8271   0.964   3.432   3.789 -0.3219 -0.0843 -0.3457
   15MOL   C124 8272   0.996   3.554   3.881  0.2790 -0.0934  0.1919
   15MOL   C125 8273   0.993   3.691   3.808 -0.1480 -0.5046  0.1511
   15MOL   O126 8274   1.078   3.788   3.871  0.4861  0.0200 -0.1125
   15MOL   C127 8275   1.082   3.913   3.807  0.4781  0.5278 -0.0427
   15MOL   O128 8276   1.137   3.905   3.680  0.1208  0.3942 -0.1200
   15MOL   C129 8277   1.175   4.005   3.886  0.0814  0.2706  0.4712
   15MOL   O130 8278   1.157   4.143   3.848  0.2471 -0.3179  0.5593
   15MOL   H131 8279   0.598   3.261   3.480  1.0651 -2.7606  1.7260
   15MOL   H132 8280   0.452   3.337   3.534  0.3789  0.0845  0.6037
   15MOL   H133 8281   0.591   3.454   3.720 -4.0650  0.9378 -2.0884
   15MOL   H134 8282   0.710   3.573   3.571  0.7125  0.1723 -0.9268
   15MOL   H135 8283   0.773   3.271   3.739 -0.4252  1.0626  1.1480
   15MOL   H136 8284   0.835   3.317   3.582 -2.8330 -0.6141 -1.6648
   15MOL   H137 8285   1.043   3.412   3.717  1.5711  0.5286  1.5276
   15MOL   H138 8286   0.958   3.342   3.851  0.0939 -0.0389 -0.2386
   15MOL   H139 8287   1.098   3.545   3.919  0.5857  0.5172 -0.4586
   15MOL   H140 8288   0.924   3.557   3.962  0.6851 -2.6690  0.6646
   15MOL   H141 8289   1.018   3.680   3.702  0.0340 -3.0222  0.4255
   15MOL   H142 8290   0.891   3.726   3.823 -0.5575 -0.7777 -1.8722
   15MOL   H143 8291   0.978   3.945   3.799  0.9075  1.4900 -2.0056
   15MOL   H144 8292   1.228   3.886   3.696  0.2548  1.5682  0.5043
   15MOL   H145 8293   1.152   3.994   3.992  0.8228  2.1536  0.8356
   15MOL   H146 8294   1.280   3.975   3.882 -0.3841 -1.8149  2.3340
   15MOL   C147 8295   1.251   4.225   3.915  0.4571  0.1211  0.2335
   15MOL   C148 8296   1.218   4.367   3.896  0.5513 -0.1138  0.6620
   15MOL   O149 8297   1.249   4.405   3.762  0.4737 -0.3669  0.4776
   15MOL   C150 8298   1.294   4.463   3.986 -0.4231  0.7192 -0.4337
   15MOL   O151 8299   1.228   4.597   3.982 -0.1974 -0.2239 -1.2356
   15MOL   C152 8300   1.255   4.691   4.084  0.4895 -0.3974 -0.4866
   15MOL   C153 8301   1.153   4.809   4.060  0.0567  0.5348 -0.5178
   15MOL   C154 8302   1.176   4.921   4.155 -0.8735 -0.0983 -0.3587
   15MOL   O155 8303   1.131   4.869   4.284 -0.4090  0.1425  0.5896
   15MOL   C156 8304   1.154   4.957   4.392 -0.0102 -0.7428 -0.2231
   15MOL   O157 8305   1.292   4.967   4.425  0.2313 -0.0390  0.4184
   15MOL   C158 8306   1.078   4.917   4.516  0.5684  0.8077  0.3407
   15MOL   O159 8307   1.142   4.816   4.592 -0.1255 -0.6164  0.2730
   15MOL   H160 8308   1.349   4.210   3.870  0.4933 -1.4784  0.7945
   15MOL   H161 8309   1.235   4.216   4.023 -1.1589 -0.5614 -0.0526
   15MOL   H162 8310   1.112   4.381   3.915  1.1003  1.7569  2.6648
   15MOL   H163 8311   1.185   4.471   3.737  1.7110 -0.6017 -3.8383
   15MOL   H164 8312   1.284   4.430   4.089 -0.2752 -0.6213 -0.8368
   15MOL   H165 8313   1.399   4.472   3.957 -0.1707 -0.3342  0.1387
   15MOL   H166 8314   1.351   4.738   4.062 -0.1630  0.0158 -2.6637
   15MOL   H167 8315   1.245   4.641   4.180 -3.0160  1.2814  0.0832
   15MOL   H168 8316   1.057   4.758   4.065  0.9235 -0.9764  0.9531
   15MOL   H169 8317   1.175   4.833   3.955  1.8382 -1.6035 -0.6603
   15MOL   H170 8318   1.277   4.960   4.167 -1.1974  0.6279  0.0959
   15MOL   H171 8319   1.108   5.004   4.133 -0.4290  0.6846  1.1140
   15MOL   H172 8320   1.117   5.054   4.357  2.0274  0.0309 -0.3337
   15MOL   H173 8321   1.297   4.953   4.518  1.8526 -0.5877  0.2677
   15MOL   H174 8322   1.084   5.001   4.585  1.0859  1.5280 -0.5692
   15MOL   H175 8323   0.978   4.896   4.479  0.3711  1.5212  0.4752
   15MOL   C176 8324   1.107   4.686   4.553 -0.1260 -0.1087  0.0991
   15MOL   C177 8325   1.194   4.583   4.626  0.5743  0.9442 -0.8969
   15MOL   O178 8326   1.110   4.549   4.734 -0.0154  0.0704  0.2605
   15MOL   C179 8327   1.336   4.628   4.666  0.1981  0.7098  0.5293
   15MOL   O180 8328   1.403   4.669   4.546 -0.4006  0.2525 -0.1654
   15MOL   C181 8329   1.521   4.760   4.557 -0.0174 -1.1016 -0.2014
   15MOL   C182 8330   1.645   4.707   4.633 -0.0347  0.8895  0.0202
   15MOL   C183 8331   1.765   4.810   4.635  0.2469 -0.0161  0.0433
   15MOL   O184 8332   1.722   4.939   4.658 -0.4877  0.1689  0.6615
   15MOL   C185 8333   1.814   5.037   4.692  0.8802 -0.1493 -0.2621
   15MOL   O186 8334   1.848   5.019   4.829  0.3581 -0.0162  0.6069
   15MOL   C187 8335   1.738   5.167   4.674 -0.3730 -0.8862 -0.3123
   15MOL   O188 8336   1.820   5.281   4.693  0.2029 -0.1959  0.1825
   15MOL   H189 8337   1.124   4.670   4.446  0.7663 -1.3374  0.4184
   15MOL   H190 8338   1.001   4.662   4.561 -0.2882 -0.6492 -3.1234
   15MOL   H191 8339   1.187   4.499   4.558 -1.0292  0.6989 -0.4554
   15MOL   H192 8340   1.081   4.632   4.769  2.1096 -0.7163  4.2134
   15MOL   H193 8341   1.349   4.709   4.738  0.2916  2.0798 -1.0201
   15MOL   H194 8342   1.390   4.546   4.714 -1.0278  0.5668  1.7053
   15MOL   H195 8343   1.482   4.848   4.608  0.7511 -1.0886  0.3638
   15MOL   H196 8344   1.549   4.799   4.460  2.3600 -2.2131  0.0097
   15MOL   H197 8345   1.687   4.624   4.577 -1.7918  0.1820 -0.2786
   15MOL   H198 8346   1.619   4.675   4.734  1.4676  3.4565  1.2733
   15MOL   H199 8347   1.833   4.775   4.713  0.3492  0.7852  0.3148
   15MOL   H200 8348   1.823   4.804   4.543  0.8722  1.3455  0.3384
   15MOL   H201 8349   1.897   5.031   4.622  1.9412 -2.8738  1.1454
   15MOL   H202 8350   1.911   5.086   4.847  0.7453  0.0731 -0.9838
   15MOL   H203 8351   1.704   5.175   4.571 -0.2163  0.2451 -0.2823
   15MOL   H204 8352   1.654   5.172   4.743 -2.2848  0.3380 -2.6325
   15MOL   C205 8353   1.755   5.403   4.662 -0.4539  0.9545 -0.7369
   15MOL   C206 8354   1.841   5.521   4.708 -0.8780  0.3134 -0.5375
   15MOL   O207 8355   1.963   5.505   4.633  0.3172  0.6714 -0.1954
   15MOL   C208 8356   1.787   5.655   4.671 -0.4675  0.3568 -0.7662
   15MOL   O209 8357   1.666   5.687   4.724 -0.2083 -0.2901  0.0768
   15MOL   C210 8358   1.605   5.788   4.650  0.1205 -0.2818 -0.1544
   15MOL   C211 8359   1.472   5.821   4.722  0.3953  0.0407 -0.1214
   15MOL   C212 8360   1.369   5.712   4.713 -0.2199  0.0610 -0.1319
   15MOL   O213 8361   1.271   5.749   4.808 -0.0888  0.3433 -0.7170
   15MOL   C214 8362   1.142   5.740   4.765 -0.3846 -0.4852 -0.1986
   15MOL   O215 8363   1.114   5.613   4.707 -0.2943 -0.0746  0.2444
   15MOL   C216 8364   1.115   5.850   4.664 -0.3979  0.2419 -0.0938
   15MOL   O217 8365   1.035   5.955   4.728  0.8559  0.1346 -0.0280
   15MOL   H218 8366   1.653   5.403   4.700  0.1325  0.9523  0.8994
   15MOL   H219 8367   1.733   5.401   4.556  0.1569 -0.6868 -0.8495
   15MOL   H220 8368   1.862   5.498   4.812 -2.8143  0.4338 -0.1042
   15MOL   H221 8369   1.979   5.413   4.617  1.8812  0.6471  1.4054
   15MOL   H222 8370   1.860   5.736   4.682 -0.1116  0.1551 -1.5845
   15MOL   H223 8371   1.786   5.656   4.562 -3.2008 -0.5810 -0.7821
   15MOL   H224 8372   1.584   5.767   4.545  2.8635 -1.6893 -0.4813
   15MOL   H225 8373   1.666   5.878   4.657  0.6174 -0.7373  1.6032
   15MOL   H226 8374   1.427   5.912   4.685  3.6892  2.4665  1.5376
   15MOL   H227 8375   1.494   5.835   4.828 -0.8653 -1.5789  0.3918
   15MOL   H228 8376   1.338   5.697   4.609  2.7365 -0.1582 -1.0312
   15MOL   H229 8377   1.414   5.618   4.744  0.7613  0.0119 -1.6153
   15MOL   H230 8378   1.075   5.750   4.851 -0.1525  2.6979 -0.3302
   15MOL   H231 8379   1.172   5.600   4.633  1.1621 -1.2008  1.5502
   15MOL   H232 8380   1.210   5.892   4.630  1.0515 -3.2088 -0.4691
   15MOL   H233 8381   1.060   5.813   4.578  2.0560 -1.2723 -1.0765
   15MOL   C234 8382   0.997   6.048   4.628  0.6772 -0.6025 -0.2855
   15MOL   C235 8383   0.871   6.138   4.661  0.1860  0.3477  0.2780
   15MOL   O236 8384   0.916   6.268   4.716 -0.0479  0.6445  0.3620
   15MOL   C237 8385   0.762   6.061   4.733 -0.0271  0.4831 -0.1245
   15MOL   O238 8386   0.635   6.115   4.707 -0.4706 -0.1952  0.0776
   15MOL   C239 8387   0.538   6.088   4.814  0.4980 -0.3712 -0.3154
   15MOL   C240 8388   0.398   6.103   4.759  0.1595  0.4033  0.0726
   15MOL   C241 8389   0.344   5.988   4.674 -0.1521 -0.6479 -0.3549
   15MOL   O242 8390   0.335   5.863   4.749  0.0891 -0.3470  0.0660
   15MOL   C243 8391   0.249   5.865   4.856 -0.0422 -0.3882  0.4483
   15MOL   O244 8392   0.319   5.900   4.973  0.2462  0.3145  0.5679
   15MOL   C245 8393   0.196   5.725   4.871  0.3427  0.6048  0.1463
   15MOL   O246 8394   0.068   5.741   4.931 -0.4005 -0.0119 -0.8167
   15MOL   H247 8395   1.077   6.112   4.591  0.8568  0.2979  1.6047
   15MOL   H248 8396   0.961   5.997   4.538  0.4379 -0.7937 -0.0837
   15MOL   H249 8397   0.836   6.160   4.560  1.3021  3.0984  0.4484
   15MOL   H250 8398   0.986   6.247   4.776  1.4314 -1.1167 -1.8905
   15MOL   H251 8399   0.756   5.956   4.705  2.3614  0.4942 -0.7556
   15MOL   H252 8400   0.790   6.065   4.839 -0.3740 -0.9448  0.0252
   15MOL   H253 8401   0.554   6.168   4.886  1.9933 -0.3721 -0.6397
   15MOL   H254 8402   0.551   5.998   4.874  2.0185  1.6020  2.4222
   15MOL   H255 8403   0.400   6.191   4.694  0.0167  0.4896  0.1847
   15MOL   H256 8404   0.328   6.128   4.839 -0.8344 -0.0768 -0.6386
   15MOL   H257 8405   0.242   6.006   4.641  0.5439 -0.0194 -2.2258
   15MOL   H258 8406   0.394   5.979   4.578  0.3116 -2.8075  0.0587
   15MOL   H259 8407   0.166   5.935   4.846 -0.0939 -0.7168 -1.5249
   15MOL   H260 8408   0.382   5.833   4.994  1.2459  1.8018  2.5000
   15MOL   H261 8409   0.183   5.677   4.774  0.9289  0.9162 -0.0921
   15MOL   H262 8410   0.271   5.671   4.929  0.4509  0.7770  0.1651
   15MOL   C263 8411   0.014   5.615   4.966  0.4362  0.7523  1.1931
   15MOL   C264 8412   7.584   5.641   5.048 -0.2205 -0.1859  0.7333
   15MOL   O265 8413   7.477   5.698   4.974  0.1567  0.2344 -0.7815
   15MOL   C266 8414   7.518   5.511   5.111  0.9355  0.7260 -0.4174
   15MOL   O267 8415   7.586   5.481   5.231  0.5930 -0.4898 -0.5730
   15MOL   C268 8416   7.525   5.369   5.303 -0.4792 -0.2254 -0.0690
   15MOL   C269 8417   7.444   5.417   5.426 -0.6003  0.4251 -0.1147
   15MOL   C270 8418   7.324   5.502   5.392  0.1255  0.2242 -0.3413
   15MOL   O271 8419   7.250   5.538   5.513  0.0542 -0.2394  0.4273
   15MOL   C272 8420   7.110   5.539   5.499 -0.2282  0.3886 -0.1837
   15MOL   O273 8421   7.053   5.416   5.500 -0.4887 -0.2720  0.4741
   15MOL   C274 8422   7.061   5.601   5.625  0.0307 -0.4707 -0.4608
   15MOL   O275 8423   7.090   5.740   5.613  0.3115  0.6924  0.5187
   15MOL   H276 8424   0.092   5.557   5.013  1.1536 -2.3336 -3.4299
   15MOL   H277 8425   7.684   5.566   4.871  2.8770  1.0666  0.3802
   15MOL   H278 8426   7.602   5.718   5.123 -1.6504  2.1191 -1.2298
   15MOL   H279 8427   7.492   5.788   4.950  0.7308 -0.0529 -1.5212
   15MOL   H280 8428   7.410   5.524   5.125  0.3730 -0.0914 -3.5462
   15MOL   H281 8429   7.531   5.425   5.046  0.4206  1.2963 -1.2909
   15MOL   H282 8430   7.603   5.295   5.320  1.8039  1.6803 -1.7989
   15MOL   H283 8431   7.456   5.310   5.243 -1.1516  1.8057 -1.3590
   15MOL   H284 8432   7.513   5.470   5.492 -0.1550 -1.4228  0.9422
   15MOL   H285 8433   7.405   5.334   5.485 -0.0753  0.7999  0.7721
   15MOL   H286 8434   7.346   5.600   5.348  0.8401  0.7293  1.1074
   15MOL   H287 8435   7.254   5.451   5.326 -0.4337  0.2403  0.2342
   15MOL   H288 8436   7.073   5.584   5.407 -1.2722 -2.5401 -1.2610
   15MOL   H289 8437   7.049   5.377   5.586 -1.8441  0.5392  0.7848
   15MOL   H290 8438   6.952   5.599   5.626  0.0048  1.2544 -0.0549
   15MOL   H291 8439   7.104   5.554   5.713  0.7623 -0.5741 -0.8644
   15MOL   C292 8440   7.147   5.791   5.732  0.1955  0.8947 -0.6009
   15MOL   C293 8441   7.153   5.941   5.722 -0.1553 -0.7756  0.4067
   15MOL   O294 8442   7.159   6.006   5.843  0.4386 -0.8620  0.9486
   15MOL   C295 8443   7.270   5.997   5.638  0.7905  0.0790 -0.5653
   15MOL   O296 8444   7.394   5.959   5.688 -0.2433 -0.1731  0.0683
   15MOL   C297 8445   7.466   5.863   5.613 -0.1923 -0.2098 -1.0614
   15MOL   C298 8446   7.528   5.918   5.484 -0.4915 -0.3650 -0.3348
   15MOL   C299 8447   7.621   5.813   5.409  0.0028 -0.8527  1.1474
   15MOL   O300 8448   0.038   5.770   5.478 -0.0393  0.3120 -0.5870
   15MOL   C301 8449   0.105   5.665   5.417 -0.4319 -0.8011  0.2768
   15MOL   O302 8450   0.172   5.700   5.292 -0.1151 -0.1655  0.5601
   15MOL   C303 8451   0.217   5.620   5.522  0.4436 -0.4897  0.2027
   15MOL   O304 8452   0.180   5.501   5.590  0.1452 -0.1535  0.2976
   15MOL   H305 8453   7.092   5.772   5.825 -1.6999  1.5623 -1.5590
   15MOL   H306 8454   7.246   5.748   5.744 -0.5639 -0.7439 -0.0072
   15MOL   H307 8455   7.059   5.976   5.679 -0.3460 -1.2955  0.4054
   15MOL   H308 8456   7.245   5.993   5.880  1.3658 -0.5518 -1.0303
   15MOL   H309 8457   7.254   5.980   5.531 -1.4952  2.3636 -0.6644
   15MOL   H310 8458   7.275   6.106   5.644 -0.8225  0.0824  1.1447
   15MOL   H311 8459   7.400   5.778   5.596 -0.8696  0.2949 -0.9770
   15MOL   H312 8460   7.545   5.833   5.682  1.2407  1.8289 -1.7503
   15MOL   H313 8461   7.582   6.010   5.504 -1.9380 -0.1372  2.8336
   15MOL   H314 8462   7.440   5.945   5.427  0.0570  2.5399  0.1368
   15MOL   H315 8463   7.558   5.724   5.395 -0.2832 -0.5368  0.3441
   15MOL   H316 8464   7.668   5.862   5.324  0.4431 -0.7531  1.4480
   15MOL   H317 8465   0.032   5.585   5.407 -0.7326 -0.1849 -3.0605
   15MOL   H318 8466   0.253   5.652   5.288 -0.0801  0.0237 -3.1129
   15MOL   H319 8467   0.246   5.707   5.581 -1.0206  1.9197 -2.5038
   15MOL   H320 8468   0.305   5.588   5.467  0.5296 -1.5106  0.9350
   15MOL   C321 8469   0.062   5.510   5.678 -0.4151  0.4561 -0.4237
   15MOL   C322 8470   0.053   5.394   5.783  0.1147  0.0501  0.3734
   15MOL   O323 8471   0.017   5.443   5.910 -0.4186 -0.0049  0.0179
   15MOL   C324 8472   7.653   5.274   5.745  0.2202 -0.3167 -0.4544
   15MOL   O325 8473   7.523   5.317   5.750  0.6900 -0.0241  0.8081
   15MOL   C326 8474   7.430   5.209   5.744 -0.3894 -0.1209 -0.1455
   15MOL   C327 8475   7.286   5.271   5.748 -0.6501 -0.7972 -0.1741
   15MOL   C328 8476   7.172   5.180   5.693  0.6749  0.0544  0.5342
   15MOL   O329 8477   7.054   5.255   5.720  0.0037  0.5650  0.3345
   15MOL   C330 8478   6.935   5.183   5.712  0.1331  0.1783 -0.2017
   15MOL   O331 8479   6.909   5.098   5.819  0.8644  0.6499 -0.4345
   15MOL   C332 8480   6.818   5.286   5.691  0.1575 -0.4436 -0.6636
   15MOL   O333 8481   6.800   5.298   5.554  0.3076  0.4048 -0.5272
   15MOL   H334 8482   7.660   5.518   5.629 -0.6848  0.3633  0.0847
   15MOL   H335 8483   0.072   5.602   5.736  1.5616 -1.2093  2.0388
   15MOL   H336 8484   0.154   5.357   5.800 -0.6884 -0.5144  4.5195
   15MOL   H337 8485   7.627   5.486   5.911 -0.3818  0.0635  1.3970
   15MOL   H338 8486   7.666   5.206   5.829 -1.3746  0.4535  0.4373
   15MOL   H339 8487   7.676   5.215   5.656 -0.4167 -2.6388  0.8558
   15MOL   H340 8488   7.442   5.140   5.827  1.5309  0.2876 -0.0474
   15MOL   H341 8489   7.440   5.166   5.644  2.0041  0.6628 -0.2807
   15MOL   H342 8490   7.271   5.291   5.854  2.9570 -0.7729  0.3995
   15MOL   H343 8491   7.292   5.371   5.706  0.5866 -0.8037 -0.0202
   15MOL   H344 8492   7.169   5.158   5.586  0.5299  1.1850  0.3057
   15MOL   H345 8493   7.179   5.082   5.741  2.6925 -0.0346  0.0984
   15MOL   H346 8494   6.929   5.126   5.618 -3.5325  1.0296 -0.5619
   15MOL   H347 8495   6.834   5.130   5.867 -0.5607 -3.4282  0.2864
   15MOL   H348 8496   6.727   5.240   5.729 -0.0176 -0.7720 -1.4657
   15MOL   H349 8497   6.856   5.364   5.757  0.1725 -0.8394 -0.2066
   15MOL   C350 8498   6.735   5.418   5.518  0.3794  0.3315 -0.5529
   15MOL   C351 8499   6.746   5.440   5.369 -0.2217 -0.1529 -0.1783
   15MOL   O352 8500   6.672   5.357   5.284  0.1486 -0.1750  0.5736
   15MOL   C353 8501   6.703   5.581   5.330 -0.1065 -0.8074 -0.7847
   15MOL   O354 8502   6.775   5.670   5.415 -0.0160  0.1210 -0.0076
   15MOL   C355 8503   6.776   5.801   5.365 -0.3064 -0.1833 -0.7921
   15MOL   C356 8504   6.790   5.903   5.489 -0.0121  0.0269  0.6879
   15MOL   C357 8505   6.679   5.893   5.592 -0.2129 -0.0545 -0.0242
   15MOL   O358 8506   6.560   5.944   5.545  0.0806 -0.3120 -0.1769
   15MOL   C359 8507   6.453   5.947   5.635  0.6631  0.5401  0.2491
   15MOL   O360 8508   6.468   6.059   5.723  0.6139 -0.0602  0.0410
   15MOL   C361 8509   6.331   5.977   5.545 -0.4027 -0.3408  0.3628
   15MOL   O362 8510   6.217   5.911   5.608 -0.3865 -0.2508 -0.2973
   15MOL   H363 8511   6.752   5.505   5.581  0.8339 -2.2195  3.0135
   15MOL   H364 8512   6.632   5.391   5.544  0.9953 -1.3920  0.1883
   15MOL   H365 8513   6.850   5.423   5.339 -0.0866  2.0292 -1.0221
   15MOL   H366 8514   6.695   5.266   5.298 -0.4440 -0.6601 -1.3587
   15MOL   H367 8515   6.742   5.593   5.229  0.7593 -0.7412 -0.4538
   15MOL   H368 8516   6.597   5.605   5.326 -0.1851 -0.9771  0.2054
   15MOL   H369 8517   6.681   5.823   5.315  0.0212  2.0586 -0.5027
   15MOL   H370 8518   6.850   5.823   5.288 -1.1981 -0.5288 -1.7595
   15MOL   H371 8519   6.799   6.009   5.463 -1.9310  0.7894  2.9713
   15MOL   H372 8520   6.887   5.873   5.527 -0.7711 -1.6118  1.3521
   15MOL   H373 8521   6.660   5.791   5.626  0.4238 -0.4207 -0.7576
   15MOL   H374 8522   6.699   5.950   5.683  0.7811  1.1255 -0.9621
   15MOL   H375 8523   6.427   5.860   5.695  0.4785  2.4415  3.0540
   15MOL   H376 8524   6.400   6.120   5.702  0.0318 -0.4842  0.6786
   15MOL   H377 8525   6.330   6.081   5.513 -1.0507  0.0455  1.6170
   15MOL   H378 8526   6.364   5.926   5.454  0.9962  1.2067 -0.0164
   15MOL   C379 8527   6.102   5.991   5.611 -0.1273  0.5919  0.1956
   15MOL   C380 8528   6.109   6.082   5.729  0.0661 -0.2390  0.6780
   15MOL   O381 8529   6.212   6.182   5.707  0.0379 -0.0448  0.8321
   15MOL   C382 8530   5.981   6.153   5.776 -0.1245 -0.0637  0.0851
   15MOL   O383 8531   5.980   6.164   5.917  0.2039 -0.4972 -0.3146
   15MOL   C384 8532   5.849   6.190   5.969 -0.1600 -0.3550 -0.5784
   15MOL   C385 8533   5.855   6.161   6.122 -0.2535  0.2875  0.0073
   15MOL   C386 8534   5.920   6.280   6.193 -0.1329  0.6174  0.1804
   15MOL   O387 8535   5.937   6.257   6.334  0.6101  0.5699 -0.0327
   15MOL   C388 8536   5.825   6.296   6.411 -0.5492  0.5453 -0.2002
   15MOL   O389 8537   5.723   6.197   6.408  0.2889  0.0631  0.3556
   15MOL   C390 8538   5.871   6.320   6.558  0.6543 -0.4763 -0.3015
   15MOL   O391 8539   5.922   6.196   6.614 -0.0434  1.0144  0.5888
   15MOL   H392 8540   6.015   5.926   5.623 -0.1260  0.1547 -1.9709
   15MOL   H393 8541   6.091   6.047   5.519 -1.3289 -0.8385 -0.5716
   15MOL   H394 8542   6.144   6.026   5.816 -0.0411  1.8554  2.1010
   15MOL   H395 8543   6.208   6.232   5.788  4.2604 -0.1205  1.2300
   15MOL   H396 8544   5.971   6.250   5.728  0.8650 -0.8332 -1.7275
   15MOL   H397 8545   5.897   6.091   5.743  0.4216  0.6217 -2.7931
   15MOL   H398 8546   5.777   6.117   5.932  0.2770 -0.7114 -0.7323
   15MOL   H399 8547   5.822   6.293   5.949 -3.9740 -1.3341 -0.7640
   15MOL   H400 8548   5.906   6.069   6.151  1.5275  1.9680  2.4154
   15MOL   H401 8549   5.751   6.163   6.152  0.1511 -0.0875  1.4818
   15MOL   H402 8550   6.023   6.291   6.160  0.0534 -0.3349  0.4216
   15MOL   H403 8551   5.869   6.375   6.179 -0.4279  0.7804  2.1788
   15MOL   H404 8552   5.784   6.391   6.377  0.9106  0.7496 -1.4429
   15MOL   H405 8553   5.739   6.133   6.475 -1.1785  0.0740  0.7299
   15MOL   H406 8554   5.944   6.400   6.549 -0.7032  1.1796  2.6549
   15MOL   H407 8555   5.774   6.350   6.598  0.3627 -1.2305 -0.4363
   15MOL   C408 8556   5.908   6.197   6.757 -0.4889  0.2216  0.2123
   15MOL   C409 8557   5.982   6.065   6.804 -0.1930 -0.0839  0.4313
   15MOL   O410 8558   5.905   5.949   6.783 -0.1420 -0.4997 -0.4522
   15MOL   C411 8559   6.001   6.064   6.956  0.4906  0.3093 -0.1889
   15MOL   O412 8560   6.064   5.939   6.997  0.2963  0.2646 -0.2177
   15MOL   C413 8561   6.067   5.910   7.135 -0.0025  0.1925 -0.2875
   15MOL   C414 8562   6.166   5.806   7.194 -0.1926  0.3008  0.5523
   15MOL   C415 8563   6.130   5.750   7.330 -0.0581  0.3763 -0.1919
   15MOL   O416 8564   6.243   5.667   7.362  0.3014 -0.3557  0.1960
   15MOL   C417 8565   6.231   5.588   7.480 -0.3084 -0.5160  0.0847
   15MOL   O418 8566   6.249   5.668   7.590  0.5389  0.0959  0.3624
   15MOL   C419 8567   6.339   5.475   7.474 -0.4611  0.2260  0.9864
   15MOL   O420 8568   6.378   5.445   7.331 -0.1635 -0.6457  0.2708
   15MOL   H421 8569   5.809   6.225   6.792 -0.0209 -0.5958  2.2596
   15MOL   H422 8570   5.974   6.278   6.788  0.0672 -0.7761  1.6888
   15MOL   H423 8571   6.079   6.056   6.754 -0.0411  3.0149  0.0905
   15MOL   H424 8572   5.967   5.880   6.802 -0.9666 -0.3950  3.0136
   15MOL   H425 8573   6.069   6.140   6.994 -0.6649  0.6460  1.2425
   15MOL   H426 8574   5.903   6.060   7.003  0.8601  0.2365  0.5875
   15MOL   H427 8575   6.075   6.005   7.187  0.5309  0.7220 -1.3371
   15MOL   H428 8576   5.964   5.886   7.162  0.8778  0.0720  3.2400
   15MOL   H429 8577   6.267   5.848   7.189 -0.2793  0.3169 -1.7464
   15MOL   H430 8578   6.175   5.721   7.125 -0.4471 -0.0671  0.9736
   15MOL   H431 8579   6.119   5.827   7.407  0.5429 -0.1891  0.4618
   15MOL   H432 8580   6.038   5.697   7.308  1.2450 -1.7509 -0.7090
   15MOL   H433 8581   6.136   5.535   7.488  0.5091 -2.0352 -0.1607
   15MOL   H434 8582   6.338   5.697   7.595  0.1913  1.2721  0.0284
   15MOL   H435 8583   6.421   5.508   7.538  0.1532 -0.9670  0.8381
   15MOL   H436 8584   6.300   5.388   7.527 -1.1062  0.8095  1.4693
   15MOL   C437 8585   6.286   5.364   7.262 -0.0045  0.0461 -0.7936
   15MOL   C438 8586   6.344   5.317   7.127 -0.4902  0.7053  0.1277
   15MOL   O439 8587   6.326   5.409   7.022  0.4193  0.6324  0.5282
   15MOL   C440 8588   6.277   5.187   7.087 -0.5512  0.8163 -0.1192
   15MOL   O441 8589   6.136   5.208   7.072 -0.0869  0.3604  0.3609
   15MOL   C442 8590   6.073   5.099   7.008 -0.0292  0.4781 -0.2156
   15MOL   C443 8591   6.075   4.977   7.098  0.5607 -0.2007  0.7349
   15MOL   C444 8592   5.956   4.886   7.096  0.1134 -0.6818  0.1068
   15MOL   O445 8593   5.957   4.781   7.197  0.2655  0.0498  0.1571
   15MOL   C446 8594   5.828   4.718   7.211  0.4215 -0.2534 -0.0227
   15MOL   O447 8595   5.754   4.774   7.315 -0.1936  0.0243 -0.3134
   15MOL   C448 8596   5.857   4.566   7.232 -0.3785 -0.4200 -0.2494
   15MOL   O449 8597   5.935   4.510   7.131  0.0651  0.2503  0.1085
   15MOL   H450 8598   6.266   5.272   7.318  0.1781  0.3197 -0.2707
   15MOL   H451 8599   6.184   5.401   7.259  0.2623  0.9455  0.6087
   15MOL   H452 8600   6.451   5.305   7.147 -0.3693 -0.2298 -1.0246
   15MOL   H453 8601   6.238   5.436   7.043  0.6528  0.0067  2.4240
   15MOL   H454 8602   6.319   5.143   6.996 -0.6865  1.2163 -0.3747
   15MOL   H455 8603   6.291   5.112   7.166  0.3469  0.3188 -0.7396
   15MOL   H456 8604   6.121   5.068   6.915  1.1308 -0.6929  0.7449
   15MOL   H457 8605   5.972   5.125   6.976 -0.1018  0.6005  0.1119
   15MOL   H458 8606   6.083   5.013   7.201  0.3030  0.2300  0.6022
   15MOL   H459 8607   6.167   4.927   7.066  1.1346  0.3013  1.5750
   15MOL   H460 8608   5.868   4.947   7.116  0.1946 -0.7433  0.6740
   15MOL   H461 8609   5.943   4.841   6.998 -0.6156  0.6756 -0.4272
   15MOL   H462 8610   5.764   4.733   7.123  1.1698 -1.2901 -0.7632
   15MOL   H463 8611   5.783   4.751   7.402  0.6531  0.8857 -0.3668
   15MOL   H464 8612   5.913   4.552   7.324 -0.4028 -0.1929 -0.1990
   15MOL   H465 8613   5.772   4.499   7.245 -0.9969  0.3458 -0.2745
   15MOL   C466 8614   5.872   4.495   7.004  0.1923  0.1432  0.4359
   15MOL   C467 8615   5.965   4.410   6.905 -0.3161 -0.1453 -0.5606
   15MOL   O468 8616   5.983   4.286   6.969  0.7424  0.4564 -0.2146
   15MOL   C469 8617   5.925   4.401   6.756  0.3121  0.1470 -0.4123
   15MOL   O470 8618   5.781   4.395   6.756  0.2756 -0.3253 -0.1286
   15MOL   C471 8619   5.738   4.415   6.625  0.0827  0.0633 -0.6572
   15MOL   C472 8620   5.583   4.404   6.622 -0.5902  0.3358  0.1541
   15MOL   C473 8621   5.537   4.266   6.587  0.1732 -0.3627 -0.3027
   15MOL   O474 8622   5.401   4.273   6.549 -0.1706 -0.2555  0.4294
   15MOL   C475 8623   5.341   4.151   6.520  0.8033 -0.8007 -0.5430
   15MOL   O476 8624   5.367   4.119   6.386  0.2851 -0.0512  0.2260
   15MOL   C477 8625   5.190   4.161   6.549 -0.3445 -0.1074 -0.1366
   15MOL   O478 8626   5.150   4.100   6.670  0.3314 -0.0249 -0.1203
   15MOL   H479 8627   5.860   4.596   6.963 -0.7754 -0.4419 -0.7538
   15MOL   H480 8628   5.772   4.453   7.004  0.6230 -0.9985 -1.9961
   15MOL   H481 8629   6.065   4.451   6.917 -1.4122  2.4620  0.1455
   15MOL   H482 8630   6.026   4.299   7.052  2.2364 -2.5592 -0.4603
   15MOL   H483 8631   5.965   4.472   6.684  0.9376 -0.9674 -1.1887
   15MOL   H484 8632   5.970   4.308   6.721  0.9078  0.3684 -0.2462
   15MOL   H485 8633   5.796   4.350   6.560  1.2171  0.2020  0.1962
   15MOL   H486 8634   5.761   4.517   6.595 -1.4200  1.0254  1.3378
   15MOL   H487 8635   5.557   4.477   6.546  0.1957  0.1248 -0.3257
   15MOL   H488 8636   5.531   4.443   6.709 -0.1471  1.7577 -0.2045
   15MOL   H489 8637   5.595   4.217   6.509  0.7663  0.0032 -0.0972
   15MOL   H490 8638   5.538   4.203   6.676 -2.4107 -2.9614 -2.0277
   15MOL   H491 8639   5.380   4.065   6.574 -1.6247 -0.9373  1.0859
   15MOL   H492 8640   5.443   4.063   6.383  1.4284  1.2755  2.6806
   15MOL   H493 8641   5.155   4.263   6.531  1.0785  0.4569  0.1732
   15MOL   H494 8642   5.140   4.100   6.473 -0.4388  3.0236 -2.7120
   15MOL   C495 8643   5.191   4.171   6.791  0.3191  0.4329 -0.0659
   15MOL   C496 8644   5.253   4.073   6.885  0.1756  0.1055 -0.4532
   15MOL   O497 8645   5.379   4.041   6.847 -0.7447 -0.6028 -0.5765
   15MOL   C498 8646   5.278   4.135   7.027  0.2912  0.0679  0.7083
   15MOL   O499 8647   5.350   4.259   7.007  0.2294 -0.7149  0.0974
   15MOL   C500 8648   5.342   4.345   7.118 -1.1113  0.5384  1.1218
   15MOL   C501 8649   5.455   4.456   7.117 -0.3123  0.8051 -0.4932
   15MOL   C502 8650   5.439   4.550   6.996  0.0004  0.0464  0.1284
   15MOL   O503 8651   5.517   4.659   7.018  0.2376  0.4920 -0.5235
   15MOL   C504 8652   5.542   4.741   6.908  0.4774  0.6494 -0.8767
   15MOL   O505 8653   5.651   4.696   6.838  0.2028  0.3408  0.1647
   15MOL   C506 8654   5.572   4.877   6.968 -0.4673 -0.4959  0.5358
   15MOL   O507 8655   5.559   4.980   6.871 -0.4617 -0.1371  0.5452
   15MOL   H508 8656   5.101   4.211   6.837 -0.2291 -1.9613  1.0329
   15MOL   H509 8657   5.251   4.259   6.768 -3.4897  3.2304  0.2587
   15MOL   H510 8658   5.187   3.986   6.888  1.1422 -0.6173  0.2050
   15MOL   H511 8659   5.431   4.120   6.854 -1.7217 -0.1031  1.6193
   15MOL   H512 8660   5.185   4.167   7.073  0.2082  0.3235  0.3660
   15MOL   H513 8661   5.334   4.066   7.090  0.5044  0.3443  0.8237
   15MOL   H514 8662   5.368   4.274   7.197  0.4901 -0.7457 -0.4912
   15MOL   H515 8663   5.247   4.394   7.137 -1.8536 -0.8684  1.1596
   15MOL   H516 8664   5.555   4.419   7.095 -0.3237  0.6252 -0.2452
   15MOL   H517 8665   5.464   4.514   7.209 -0.1724  0.2054 -0.1242
   15MOL   H518 8666   5.460   4.498   6.902  0.6042  0.0685  0.2468
   15MOL   H519 8667   5.337   4.582   6.978 -0.0292 -1.0058 -1.6860
   15MOL   H520 8668   5.461   4.744   6.835 -0.1111 -0.6165 -0.2975
   15MOL   H521 8669   5.718   4.762   6.838  1.6624 -1.0939  0.4844
   15MOL   H522 8670   5.507   4.897   7.053 -1.0927 -1.6693  0.3447
   15MOL   H523 8671   5.677   4.877   6.998  0.0918  0.1310 -1.3580
   15MOL   C524 8672   5.602   5.113   6.913 -0.6835  0.1506 -0.8032
   15MOL   C525 8673   5.568   5.200   6.792 -0.4727  0.0035  0.1747
   15MOL   O526 8674   5.645   5.322   6.801 -0.5287 -0.0355 -0.0553
   15MOL   C527 8675   5.417   5.218   6.772 -0.0668  0.9728 -0.6823
   15MOL   O528 8676   5.360   5.296   6.878 -0.7007  0.1853  0.1941
   15MOL   C529 8677   5.227   5.344   6.849 -0.0371  0.6424  0.6746
   15MOL   C530 8678   5.122   5.254   6.903 -0.1002  0.4552  0.1933
   15MOL   C531 8679   4.984   5.314   6.904  0.9778  0.4547 -0.1235
   15MOL   O532 8680   4.913   5.262   7.020 -0.5187 -0.1228  0.4442
   15MOL   C533 8681   4.783   5.306   7.043  0.5909  0.4153 -0.1687
   15MOL   O534 8682   4.696   5.234   6.956 -0.6605  0.8078  0.2614
   15MOL   C535 8683   4.759   5.259   7.194 -0.3980  0.0312  0.5697
   15MOL   O536 8684   4.857   5.325   7.281  0.2804  0.3739 -0.7201
   15MOL   H537 8685   5.711   5.122   6.921 -0.8320  0.4402  1.2489
   15MOL   H538 8686   5.547   5.153   6.998 -0.2886 -0.7178 -0.1257
   15MOL   H539 8687   5.599   5.141   6.706 -1.3832  0.2345 -0.3253
   15MOL   H540 8688   5.629   5.376   6.726 -0.3845 -2.9929 -2.2964
   15MOL   H541 8689   5.406   5.265   6.674  0.4626  0.7620 -0.8445
   15MOL   H542 8690   5.365   5.122   6.775  0.4814  0.6018 -2.6700
   15MOL   H543 8691   5.212   5.355   6.741  1.4763  0.5361  0.4408
   15MOL   H544 8692   5.203   5.442   6.890  0.6551  0.5266  1.3626
   15MOL   H545 8693   5.156   5.237   7.005 -0.7520 -0.0688  0.3298
   15MOL   H546 8694   5.130   5.158   6.850  0.1067  0.5634  0.0287
   15MOL   H547 8695   4.990   5.423   6.913 -2.5713  0.7372 -0.4385
   15MOL   H548 8696   4.916   5.293   6.822  0.4631 -0.3326  0.4968
   15MOL   H549 8697   4.769   5.413   7.036  0.8960  0.4800  0.1657
   15MOL   H550 8698   4.715   5.143   6.972  1.2512  1.2197  0.5158
   15MOL   H551 8699   4.658   5.295   7.214  0.2482  2.2008  0.1446
   15MOL   H552 8700   4.773   5.151   7.200 -2.9415 -0.2313  2.3250
   15MOL   C553 8701   4.911   5.230   7.374  0.2913 -0.4922 -0.0876
   15MOL   C554 8702   5.010   5.306   7.458  0.2085  0.1895 -0.0577
   15MOL   O555 8703   4.943   5.401   7.528  0.1228  0.1747  0.2699
   15MOL   C556 8704   5.139   5.352   7.382 -0.3188  0.5508  0.1959
   15MOL   O557 8705   5.213   5.240   7.334  0.3045  0.0321 -0.7310
   15MOL   C558 8706   5.347   5.231   7.365  0.0417 -0.2775 -0.1991
   15MOL   C559 8707   5.405   5.113   7.295 -0.4322 -0.1050 -0.1536
   15MOL   C560 8708   5.554   5.093   7.319 -0.0790  0.1960 -0.8019
   15MOL   O561 8709   5.585   5.071   7.460  0.0964  0.0477 -0.1711
   15MOL   C562 8710   5.722   5.088   7.494  0.1193  0.2463 -0.0908
   15MOL   O563 8711   5.755   5.227   7.513  0.8436  0.6033  0.2339
   15MOL   C564 8712   5.745   5.021   7.629 -0.2590  0.9594 -0.5653
   15MOL   O565 8713   5.671   5.098   0.033 -0.0321  0.0420  0.0683
   15MOL   H566 8714   4.958   5.151   7.315  1.2823 -0.9506  1.2702
   15MOL   H567 8715   4.830   5.182   7.429  0.3422 -0.3308  0.1309
   15MOL   H568 8716   5.050   5.243   7.538 -0.4268  1.5931  1.4013
   15MOL   H569 8717   4.854   5.389   7.498  0.1910 -1.3191  0.6396
   15MOL   H570 8718   5.127   5.411   7.291 -0.2234 -2.8880 -2.1542
   15MOL   H571 8719   5.208   5.407   7.446 -0.3398  0.5465  0.2220
   15MOL   H572 8720   5.397   5.327   7.349  0.1639 -0.5646 -1.5588
   15MOL   H573 8721   5.335   5.220   7.473 -1.4835 -0.9715 -0.4240
   15MOL   H574 8722   5.378   5.117   7.189 -1.2722  1.2365  0.0989
   15MOL   H575 8723   5.349   5.030   7.337  1.5717 -1.4129 -0.0148
   15MOL   H576 8724   5.596   5.007   7.267  0.2972 -1.2801  1.8546
   15MOL   H577 8725   5.600   5.187   7.288  0.1550  0.1867 -0.4924
   15MOL   H578 8726   5.791   5.045   7.420  1.8732 -1.0989  2.2449
   15MOL   H579 8727   5.735   5.239   7.604 -0.3267 -1.6884  0.3371
   15MOL   H580 8728   5.691   4.927   7.621  1.8370 -0.3536  0.5493
   15MOL   H581 8729   5.852   5.015   7.648 -0.6795 -2.2439  0.9941
   15MOL   H582 8730   5.735   5.132   0.093  1.0175 -0.7562 -0.5820
   16MOL     C1 8731   3.423   5.907   0.308  0.4672 -0.2618 -0.7055
   16MOL     C2 8732   3.394   5.888   0.457 -0.5238 -0.5403 -0.0784
   16MOL     O3 8733   3.403   5.754   0.496 -0.3512 -0.2549 -0.1187
   16MOL     C4 8734   3.474   5.975   0.559 -1.0086 -0.3613 -0.0640
   16MOL     O5 8735   3.613   5.974   0.525 -0.8155 -0.9049  0.1584
   16MOL     C6 8736   3.700   6.037   0.613 -0.4864  0.3639  0.9722
   16MOL     C7 8737   3.798   5.936   0.673  0.1147 -0.2031 -0.3355
   16MOL     C8 8738   3.936   5.988   0.709 -0.1769 -0.0660  0.1056
   16MOL     O9 8739   3.920   6.078   0.822 -0.1663  0.4456  0.2981
   16MOL    C10 8740   4.039   6.105   0.886  0.0472 -0.1927  0.2425
   16MOL    O11 8741   4.052   6.057   1.018  0.2346 -0.3689 -0.2589
   16MOL    C12 8742   4.068   6.256   0.873 -0.0465  0.3135  0.2832
   16MOL    O13 8743   3.977   6.330   0.957 -0.7273  0.3202 -0.5721
   16MOL    H14 8744   3.523   5.870   0.289  2.3218  2.9954  2.0929
   16MOL    H15 8745   3.415   6.011   0.275  2.4761 -0.7534 -2.8591
   16MOL    H16 8746   3.292   5.914   0.486  0.1754  0.3023  1.7449
   16MOL    H17 8747   3.497   5.746   0.488 -0.3320  0.4368 -0.6274
   16MOL    H18 8748   3.436   6.077   0.566 -1.8186 -0.7449  1.2421
   16MOL    H19 8749   3.455   5.935   0.659 -0.0585 -0.7818 -0.0411
   16MOL    H20 8750   3.651   6.088   0.697 -0.8559 -3.5707  3.2671
   16MOL    H21 8751   3.747   6.122   0.564 -1.8329  1.5379  1.6466
   16MOL    H22 8752   3.807   5.851   0.604 -0.7158  0.7716 -1.6612
   16MOL    H23 8753   3.752   5.895   0.763  0.7229  0.3839  0.2474
   16MOL    H24 8754   4.007   5.906   0.720  0.0170  0.2781  1.5575
   16MOL    H25 8755   3.965   6.035   0.615  2.6147 -2.9587 -0.5655
   16MOL    H26 8756   4.116   6.055   0.826 -1.1218  1.5086 -2.7664
   16MOL    H27 8757   4.077   6.128   1.076 -0.0860 -0.1786 -0.3494
   16MOL    H28 8758   4.171   6.278   0.896  0.2100 -1.1913  0.6621
   16MOL    H29 8759   4.055   6.282   0.767 -2.8861 -2.8753 -0.2459
   16MOL    H30 8760   3.347   5.867   0.242 -1.7728  1.1846  0.9070
   16MOL    C31 8761   4.002   6.466   0.959  0.8433 -0.3513  0.2676
   16MOL    C32 8762   3.938   6.536   1.084 -0.1667  0.6058 -0.1762
   16MOL    O33 8763   4.014   6.499   1.201  0.3029  0.3428  0.1513
   16MOL    C34 8764   3.805   6.480   1.105  0.7430 -0.2511  0.6602
   16MOL    O35 8765   3.730   6.558   1.200  0.4854 -0.8650  0.9354
   16MOL    C36 8766   3.593   6.528   1.191  0.6889  1.1345  0.8116
   16MOL    C37 8767   3.517   6.626   1.283  0.1738 -0.1156 -0.0263
   16MOL    C38 8768   3.373   6.588   1.306 -0.3765 -0.0256 -0.1325
   16MOL    O39 8769   3.306   6.561   1.178 -0.4387 -0.2750 -0.3451
   16MOL    C40 8770   3.194   6.484   1.180 -0.1202  1.0873  0.2832
   16MOL    O41 8771   3.237   6.353   1.214 -0.5354  0.4277 -0.1158
   16MOL    C42 8772   3.120   6.490   1.046 -0.3376  0.2226  0.0523
   16MOL    O43 8773   3.034   6.601   1.045  0.3441  0.2375 -0.1192
   16MOL    H44 8774   4.109   6.486   0.950  1.1023 -2.0904 -0.7247
   16MOL    H45 8775   3.952   6.510   0.872 -0.7381 -2.2795  0.1805
   16MOL    H46 8776   3.944   6.643   1.064  3.4081  0.4599 -0.2605
   16MOL    H47 8777   3.974   6.537   1.278  2.1217 -0.0523  1.2924
   16MOL    H48 8778   3.747   6.476   1.012  0.6780 -0.3624  0.7046
   16MOL    H49 8779   3.817   6.379   1.145  0.9016 -0.5372 -0.0856
   16MOL    H50 8780   3.574   6.424   1.218 -1.1959  1.0479 -0.7075
   16MOL    H51 8781   3.553   6.539   1.090  1.5331  0.8644  0.4382
   16MOL    H52 8782   3.522   6.716   1.221 -0.0065 -2.4115 -3.5498
   16MOL    H53 8783   3.565   6.635   1.380  0.9077 -0.1883 -0.3786
   16MOL    H54 8784   3.374   6.506   1.378 -0.5433 -0.1644 -0.2905
   16MOL    H55 8785   3.318   6.675   1.344  1.4472  0.7901  0.7312
   16MOL    H56 8786   3.129   6.502   1.266 -1.7096 -2.0607 -0.1772
   16MOL    H57 8787   3.245   6.306   1.132  1.9906  0.9013 -0.1767
   16MOL    H58 8788   3.197   6.500   0.970 -1.0115  0.9613 -0.5452
   16MOL    H59 8789   3.067   6.398   1.026 -0.0412  0.0907 -0.1237
   16MOL    C60 8790   2.936   6.589   0.937  0.5011  0.1193 -0.8343
   16MOL    C61 8791   2.929   6.718   0.853  0.2412  0.1118  0.2764
   16MOL    O62 8792   2.912   6.823   0.948 -0.3068 -0.0413  0.0049
   16MOL    C63 8793   2.795   6.723   0.773  0.2668 -0.9807 -0.3508
   16MOL    O64 8794   2.827   6.829   0.683 -0.1402 -0.3528  0.3716
   16MOL    C65 8795   2.707   6.872   0.615 -0.4178 -0.4268 -0.0203
   16MOL    C66 8796   2.743   6.971   0.501  0.4958 -0.1985  0.2222
   16MOL    C67 8797   2.635   6.959   0.399 -0.1841 -1.0172  0.4701
   16MOL    O68 8798   2.665   7.053   0.302 -0.1556 -0.4194  0.1749
   16MOL    C69 8799   2.561   7.084   0.218 -0.6916  0.3523  0.5283
   16MOL    O70 8800   2.506   7.208   0.252 -0.0709 -0.4845  0.5726
   16MOL    C71 8801   2.610   7.076   0.067 -0.1879 -0.2387 -0.0997
   16MOL    O72 8802   2.498   7.042   7.683  0.3196  0.3515  0.0374
   16MOL    H73 8803   2.840   6.555   0.976  0.3800  1.1628 -0.1912
   16MOL    H74 8804   2.970   6.507   0.874  0.8940  0.6645 -1.3333
   16MOL    H75 8805   3.019   6.729   0.793  0.7698 -2.9066  0.4699
   16MOL    H76 8806   2.972   6.820   1.020 -1.0214 -0.6170  0.5795
   16MOL    H77 8807   2.746   6.644   0.718  0.6361 -0.5538 -1.3003
   16MOL    H78 8808   2.709   6.748   0.835  0.2785  0.0659 -0.7433
   16MOL    H79 8809   2.631   6.916   0.680 -0.1969 -1.5622  1.0422
   16MOL    H80 8810   2.663   6.790   0.558 -0.5992  0.8115 -1.7075
   16MOL    H81 8811   2.832   6.939   0.448  1.9893  0.3951  2.3200
   16MOL    H82 8812   2.762   7.071   0.541 -2.3983  0.1051  0.9884
   16MOL    H83 8813   2.540   6.984   0.447 -0.1545  1.2298 -0.5410
   16MOL    H84 8814   2.636   6.860   0.355  0.0768 -0.1911 -1.4549
   16MOL    H85 8815   2.480   7.014   0.239  0.1163 -1.2113 -1.4439
   16MOL    H86 8816   2.471   7.239   0.170 -1.9030 -2.4506  0.5727
   16MOL    H87 8817   2.676   7.158   0.040  0.9798 -1.0767  0.2074
   16MOL    H88 8818   2.678   6.991   0.062 -1.8816 -1.6320 -0.1496
   16MOL    C89 8819   2.527   7.050   7.547  0.4006 -0.9453  0.2264
   16MOL    C90 8820   2.399   7.007   7.471 -0.1854  0.1506 -0.3774
   16MOL    O91 8821   2.297   7.097   7.495 -0.5975 -0.2257  0.1692
   16MOL    C92 8822   2.425   6.986   7.321 -0.5942  0.3951 -0.0197
   16MOL    O93 8823   2.495   7.080   7.252 -0.2857 -0.0455 -1.0835
   16MOL    C94 8824   2.425   7.201   7.212 -0.4981  0.3870 -0.5125
   16MOL    C95 8825   2.528   7.302   7.185 -0.3288 -0.4487 -0.0276
   16MOL    C96 8826   2.475   7.443   7.142  0.3014  0.1016  0.3785
   16MOL    O97 8827   2.580   7.536   7.121 -0.2424  0.6164  0.3176
   16MOL    C98 8828   2.540   7.656   7.075 -0.3874  0.4917  0.2010
   16MOL    O99 8829   2.471   0.039   7.166 -0.2208  0.6465 -0.1004
   16MOL   C100 8830   2.665   0.056   7.030  0.1008  0.8625 -0.4132
   16MOL   O101 8831   2.677   0.079   6.887 -0.6619  0.2479 -0.0001
   16MOL   H102 8832   2.615   6.990   7.521  1.6704 -0.0665  2.2977
   16MOL   H103 8833   2.558   7.151   7.522  1.0591 -0.5507  2.4632
   16MOL   H104 8834   2.371   6.909   7.510  0.5956 -0.3407 -1.0366
   16MOL   H105 8835   2.337   7.176   7.528 -1.1914 -0.4752  1.5543
   16MOL   H106 8836   2.479   6.891   7.326  0.3848  1.0482  2.7581
   16MOL   H107 8837   2.334   6.971   7.263  0.2232  0.1658 -1.2514
   16MOL   H108 8838   2.370   7.238   7.298  0.9089  0.9186  0.1701
   16MOL   H109 8839   2.348   7.193   7.135  1.1581 -4.1795 -1.9021
   16MOL   H110 8840   2.605   7.267   7.117  1.3017 -0.0994  1.6103
   16MOL   H111 8841   2.586   7.312   7.277 -1.5653  0.9855  0.6307
   16MOL   H112 8842   2.394   7.440   7.069  0.3487 -1.5109  0.3717
   16MOL   H113 8843   2.420   7.494   7.221  0.8629  1.8623 -0.3407
   16MOL   H114 8844   2.483   7.637   6.983  0.2711 -0.5145 -0.0112
   16MOL   H115 8845   2.532   0.069   7.232  0.2474  0.4305 -0.4278
   16MOL   H116 8846   2.662   0.149   7.086 -1.7167  0.4571  0.1736
   16MOL   H117 8847   2.748   7.687   7.063 -1.0592 -0.8731 -0.7658
   16MOL   C118 8848   2.785   0.018   6.823 -0.0882 -0.0612 -0.5952
   16MOL   C119 8849   2.759   7.678   6.678 -0.0108  0.4357 -0.0274
   16MOL   O120 8850   2.750   0.106   6.603  0.3007 -0.0742 -0.4216
   16MOL   C121 8851   2.632   7.592   6.656  0.0001  0.5599 -0.3410
   16MOL   O122 8852   2.652   7.465   6.709  0.2129 -0.1421 -0.4520
   16MOL   C123 8853   2.564   7.359   6.667  0.2210 -0.3095 -0.1050
   16MOL   C124 8854   2.596   7.293   6.534  0.3474  0.5602 -0.3036
   16MOL   C125 8855   2.498   7.175   6.510 -0.4395  0.4876 -0.1726
   16MOL   O126 8856   2.525   7.118   6.384 -0.0260 -0.5577 -0.3203
   16MOL   C127 8857   2.434   7.015   6.348 -0.1852 -0.3646 -1.2997
   16MOL   O128 8858   2.303   7.060   6.346  0.3858 -0.4613 -0.8776
   16MOL   C129 8859   2.453   6.883   6.437 -0.2764  0.0237 -0.0872
   16MOL   O130 8860   2.522   6.788   6.356 -0.0503  0.2287  0.0884
   16MOL   H131 8861   2.863   0.092   6.843 -0.3921 -0.0695  0.6827
   16MOL   H132 8862   2.827   7.624   6.871 -1.5170  0.4592  1.7088
   16MOL   H133 8863   2.845   7.621   6.640 -0.8529 -2.0595  1.6772
   16MOL   H134 8864   2.709   0.168   6.661 -0.1478 -1.5833  0.9326
   16MOL   H135 8865   2.555   7.644   6.712 -0.1671 -0.1012  0.0462
   16MOL   H136 8866   2.599   7.581   6.553  1.2458  2.4694 -0.9841
   16MOL   H137 8867   2.460   7.393   6.662 -0.1076 -1.4073 -1.1031
   16MOL   H138 8868   2.574   7.274   6.735  1.8198  0.4668  0.6544
   16MOL   H139 8869   2.698   7.254   6.534  0.5397  1.0293 -2.2752
   16MOL   H140 8870   2.590   7.365   6.453  0.3344 -0.4599 -1.2109
   16MOL   H141 8871   2.519   7.111   6.596 -0.9780  0.9675  0.3141
   16MOL   H142 8872   2.402   7.224   6.522 -1.5624 -1.1708 -2.0447
   16MOL   H143 8873   2.474   6.979   6.253  0.2862 -0.8402 -0.9209
   16MOL   H144 8874   2.301   7.117   6.270  1.5409  0.5108 -0.1934
   16MOL   H145 8875   2.520   6.905   6.520 -0.3967  0.4742 -0.1054
   16MOL   H146 8876   2.356   6.847   6.472 -0.4151  0.3835 -0.1011
   16MOL   C147 8877   2.497   6.657   6.384  0.0221  0.6148 -0.4129
   16MOL   C148 8878   2.384   6.598   6.299 -0.4206  0.6938  0.2712
   16MOL   O149 8879   2.254   6.637   6.349  0.1380 -0.9137 -0.3621
   16MOL   C150 8880   2.390   6.446   6.303  0.0294  0.1566 -0.1284
   16MOL   O151 8881   2.297   6.406   6.204 -0.7205  0.3188 -1.0868
   16MOL   C152 8882   2.272   6.268   6.204 -0.3201  0.3921 -0.6077
   16MOL   C153 8883   2.245   6.231   6.059  0.1693 -0.2548  0.3326
   16MOL   C154 8884   2.368   6.247   5.966  0.0185 -1.0610 -0.1064
   16MOL   O155 8885   2.475   6.162   6.006  0.5229  0.2790 -0.1291
   16MOL   C156 8886   2.595   6.206   5.962 -0.0258 -0.0195  0.2036
   16MOL   O157 8887   2.620   6.154   5.832  0.1269 -0.4448 -0.3576
   16MOL   C158 8888   2.697   6.142   6.051  0.4140 -0.3703 -0.3399
   16MOL   O159 8889   2.697   6.199   6.182  0.1092  0.0637 -0.2389
   16MOL   H160 8890   2.481   6.625   6.487 -0.0039  0.5623 -0.4331
   16MOL   H161 8891   2.582   6.604   6.341 -1.2129 -0.5120 -1.5291
   16MOL   H162 8892   2.392   6.631   6.196 -1.5164 -1.0520 -0.4008
   16MOL   H163 8893   2.246   6.626   6.442  0.4650 -3.2115 -0.5851
   16MOL   H164 8894   2.488   6.410   6.272  0.6303  1.7046 -0.0665
   16MOL   H165 8895   2.359   6.411   6.401  1.7842 -2.0478 -0.3124
   16MOL   H166 8896   2.187   6.250   6.270  0.2468 -0.2426 -0.0414
   16MOL   H167 8897   2.362   6.217   6.239 -0.8941  0.3590  0.8288
   16MOL   H168 8898   2.167   6.299   6.023  1.7328  0.2258 -2.2344
   16MOL   H169 8899   2.199   6.133   6.048  2.2837 -1.1588 -0.5833
   16MOL   H170 8900   2.333   6.216   5.867  0.0434  0.5572 -0.6472
   16MOL   H171 8901   2.395   6.353   5.957  1.2675 -1.2047  1.7593
   16MOL   H172 8902   2.611   6.314   5.963  0.0828 -0.0304 -0.1144
   16MOL   H173 8903   2.553   6.183   5.772 -2.0101 -3.4401  0.4786
   16MOL   H174 8904   2.680   6.035   6.047  0.7853 -0.3810 -1.9792
   16MOL   H175 8905   2.797   6.153   6.008  0.0695  1.1051 -0.7769
   16MOL   C176 8906   2.807   6.150   6.258  0.1197 -0.2692  0.4624
   16MOL   C177 8907   2.797   6.229   6.393 -0.1243  0.1417  1.0838
   16MOL   O178 8908   2.909   6.180   6.464  0.1213  0.0371  0.1304
   16MOL   C179 8909   2.673   6.191   6.473 -0.2930  0.5173  0.0499
   16MOL   O180 8910   2.626   6.306   6.543 -0.3817  1.1975 -0.2227
   16MOL   C181 8911   2.705   6.354   6.654 -0.0543 -0.2488  0.4080
   16MOL   C182 8912   2.663   6.500   6.688  0.0468 -0.1705  0.8411
   16MOL   C183 8913   2.510   6.498   6.705 -0.4573  0.5005  0.1663
   16MOL   O184 8914   2.457   6.626   6.733 -0.9746  0.2854  0.0001
   16MOL   C185 8915   2.325   6.628   6.757  0.2066  0.6815 -0.6096
   16MOL   O186 8916   2.259   6.592   6.632  0.1304 -0.0838 -0.0203
   16MOL   C187 8917   2.285   6.773   6.792 -0.7555  0.2436  0.3494
   16MOL   O188 8918   2.343   6.814   6.922 -0.1995  0.0633 -0.2589
   16MOL   H189 8919   2.894   6.172   6.197  1.3177 -1.6380  1.6230
   16MOL   H190 8920   2.785   6.044   6.274 -1.7323 -0.2018 -1.4222
   16MOL   H191 8921   2.795   6.337   6.378 -1.0603  0.2267  1.8032
   16MOL   H192 8922   2.980   6.241   6.455 -0.0398  0.4883  1.7529
   16MOL   H193 8923   2.585   6.173   6.410 -0.4290 -2.7032  1.0439
   16MOL   H194 8924   2.672   6.110   6.546 -1.3662 -1.3863 -2.0304
   16MOL   H195 8925   2.807   6.363   6.618  0.8457  0.5617  3.0261
   16MOL   H196 8926   2.714   6.292   6.743  1.9030  0.0960  0.4706
   16MOL   H197 8927   2.686   6.556   6.598 -2.7167 -1.1151 -0.5032
   16MOL   H198 8928   2.720   6.537   6.774  3.1162 -0.8074 -0.8593
   16MOL   H199 8929   2.467   6.466   6.611 -0.7259  4.0514 -0.9927
   16MOL   H200 8930   2.481   6.432   6.787 -2.9145  0.1160 -0.9623
   16MOL   H201 8931   2.294   6.552   6.829  2.2816 -0.0717 -0.4727
   16MOL   H202 8932   2.183   6.546   6.662  1.0550  0.4362  3.2976
   16MOL   H203 8933   2.305   6.850   6.718  0.7597  0.1660  0.6595
   16MOL   H204 8934   2.178   6.778   6.812 -1.0751 -0.2128 -1.2309
   16MOL   C205 8935   2.472   6.859   6.925 -0.2714 -0.1777  0.0596
   16MOL   C206 8936   2.539   6.782   7.032 -1.3500  0.4442  0.0818
   16MOL   O207 8937   2.559   6.653   6.980 -0.5547 -0.3021 -0.2491
   16MOL   C208 8938   2.676   6.851   7.071 -0.2860  0.4016 -0.4813
   16MOL   O209 8939   2.726   6.801   7.196 -0.3191 -0.2822  0.6876
   16MOL   C210 8940   2.828   6.872   7.246  0.4586  0.1281 -0.4036
   16MOL   C211 8941   2.959   6.835   7.173 -0.0929 -0.1085 -0.1769
   16MOL   C212 8942   3.075   6.902   7.251 -0.0179 -0.7623 -0.3797
   16MOL   O213 8943   3.201   6.849   7.211  0.0024  0.6366 -0.1167
   16MOL   C214 8944   3.237   6.723   7.256 -0.8243  0.1241 -0.0663
   16MOL   O215 8945   3.316   6.748   7.368 -0.6873  0.6824  0.4845
   16MOL   C216 8946   3.314   6.660   7.137 -0.2227  0.7645  0.0342
   16MOL   O217 8947   3.217   6.591   7.050 -0.2948  0.9720  0.3237
   16MOL   H218 8948   2.478   6.965   6.948 -0.0954  0.0154 -0.8291
   16MOL   H219 8949   2.521   6.864   6.827  0.3973  0.6336  0.4293
   16MOL   H220 8950   2.477   6.766   7.120 -1.5057 -1.7034 -0.4132
   16MOL   H221 8951   2.567   6.658   6.886 -2.5400 -1.3316 -0.4887
   16MOL   H222 8952   2.747   6.834   6.990 -0.5977  0.5763 -0.7962
   16MOL   H223 8953   2.652   6.957   7.071  1.5802  0.8481 -1.8547
   16MOL   H224 8954   2.832   6.843   7.351  0.7926  3.6433  0.6178
   16MOL   H225 8955   2.811   6.980   7.244  0.5279  0.2261  2.2354
   16MOL   H226 8956   2.947   6.866   7.069 -0.0315 -0.6931 -0.3641
   16MOL   H227 8957   2.978   6.728   7.166 -0.4876 -0.0590 -2.1506
   16MOL   H228 8958   3.085   7.009   7.231 -0.2346 -0.8840 -1.1504
   16MOL   H229 8959   3.076   6.879   7.358  1.3335 -0.6997 -0.3690
   16MOL   H230 8960   3.148   6.663   7.272  1.2765 -3.4731 -1.3438
   16MOL   H231 8961   3.368   6.823   7.341 -0.8292  1.2351  1.7112
   16MOL   H232 8962   3.373   6.740   7.091  1.9005 -0.2034  1.0223
   16MOL   H233 8963   3.388   6.587   7.170  0.6696  1.7677  0.2924
   16MOL   C234 8964   3.270   6.543   6.931 -1.0970 -0.1295  0.5736
   16MOL   C235 8965   3.166   6.571   6.818 -1.0091  0.3641 -0.3955
   16MOL   O236 8966   3.228   6.544   6.693 -0.4721 -0.3722  0.2886
   16MOL   C237 8967   3.131   6.723   6.822  0.0648 -0.9213 -0.0100
   16MOL   O238 8968   3.000   6.745   6.776 -0.7415 -0.0174  0.0343
   16MOL   C239 8969   2.981   6.725   6.636 -0.1826 -0.3579 -0.3705
   16MOL   C240 8970   2.864   6.808   6.598  0.5445  0.0298 -0.6671
   16MOL   C241 8971   2.863   6.830   6.444  0.4026  0.5182 -0.4589
   16MOL   O242 8972   2.966   6.923   6.406 -0.0642 -0.7944 -0.1127
   16MOL   C243 8973   2.947   6.977   6.276 -0.3199 -0.3831 -0.2524
   16MOL   O244 8974   2.954   6.885   6.170 -0.5328  0.1052 -0.2715
   16MOL   C245 8975   3.053   7.096   6.244 -0.6013 -0.3710 -0.0431
   16MOL   O246 8976   3.010   7.218   6.303 -0.8241 -0.1180 -0.1789
   16MOL   H247 8977   3.371   6.580   6.913 -0.5292 -2.1470 -0.5554
   16MOL   H248 8978   3.290   6.437   6.944  0.4143 -0.2216 -2.0887
   16MOL   H249 8979   3.080   6.506   6.835 -0.6260 -0.2059 -0.6324
   16MOL   H250 8980   3.322   6.537   6.702 -0.4063 -0.2189 -0.2728
   16MOL   H251 8981   3.127   6.761   6.924  0.7126  1.4928 -0.8489
   16MOL   H252 8982   3.194   6.795   6.769  0.5980 -0.3261  1.4253
   16MOL   H253 8983   2.974   6.619   6.611 -1.5092 -0.0177 -1.5175
   16MOL   H254 8984   3.070   6.754   6.579  0.7367 -4.3590 -1.2060
   16MOL   H255 8985   2.868   6.900   6.656 -0.2369 -1.2699  1.5143
   16MOL   H256 8986   2.776   6.746   6.613 -0.9010  2.2545  0.2975
   16MOL   H257 8987   2.880   6.734   6.394 -1.3136  0.7514 -1.5086
   16MOL   H258 8988   2.763   6.864   6.420  0.3128  1.1979  0.8689
   16MOL   H259 8989   2.849   7.025   6.272 -0.7530 -1.0653  1.6233
   16MOL   H260 8990   2.866   6.867   6.141  0.4489 -0.7711 -2.8701
   16MOL   H261 8991   3.156   7.068   6.269 -0.7130  1.2389  2.3514
   16MOL   H262 8992   3.063   7.116   6.137  1.9863 -0.4055  0.1561
   16MOL   C263 8993   3.019   7.225   6.437  0.4278 -0.7788 -0.1252
   16MOL   C264 8994   3.094   7.350   6.485 -0.2352  0.1429 -0.6436
   16MOL   O265 8995   3.005   7.456   6.486  0.3094  0.0809 -0.0797
   16MOL   C266 8996   3.152   7.336   6.626 -0.2905 -0.6106  0.3491
   16MOL   O267 8997   3.265   7.418   6.658 -0.0634 -0.3113  0.2804
   16MOL   C268 8998   3.240   7.559   6.672 -0.2339  0.1675  0.6649
   16MOL   C269 8999   3.271   7.613   6.802  0.0680  0.1235 -0.2619
   16MOL   C270 9000   3.188   7.551   6.920 -0.3872  0.1711  0.5488
   16MOL   O271 9001   3.229   7.607   7.048  0.1043 -0.0879 -0.0543
   16MOL   C272 9002   3.180   0.034   7.077  0.0328 -0.3987  0.2393
   16MOL   O273 9003   3.037   0.034   7.085  0.3673 -0.2022  0.9544
   16MOL   C274 9004   3.239   0.084   7.218 -0.4290  0.3960  0.0412
   16MOL   O275 9005   3.205   7.689   7.320  0.3684 -0.9449  0.0453
   16MOL   H276 9006   3.075   7.142   6.482  1.8262  0.6286  0.7904
   16MOL   H277 9007   2.920   7.222   6.483  0.4289 -2.2311 -0.1827
   16MOL   H278 9008   3.174   7.381   6.417 -0.2791  1.0879 -0.2771
   16MOL   H279 9009   2.981   7.484   6.399  0.0115 -1.9944 -0.7029
   16MOL   H280 9010   3.067   7.341   6.694  0.0077 -1.2158  0.7826
   16MOL   H281 9011   3.188   7.233   6.635  0.1203 -0.5571 -0.6280
   16MOL   H282 9012   3.133   7.575   6.658 -0.6163 -2.0146  1.0223
   16MOL   H283 9013   3.295   7.609   6.592 -1.3704  1.0473  0.4065
   16MOL   H284 9014   3.258   0.027   6.802  1.0185  0.2701  1.5358
   16MOL   H285 9015   3.376   7.601   6.832 -0.4129  0.1004  1.4999
   16MOL   H286 9016   3.081   7.557   6.904 -0.6969  0.5472  2.6345
   16MOL   H287 9017   3.208   7.444   6.927  0.2168  0.1252 -1.6445
   16MOL   H288 9018   3.204   0.109   7.001 -1.6065  0.9021  0.9682
   16MOL   H289 9019   3.018   7.672   7.158 -1.6703  0.1414  0.7284
   16MOL   H290 9020   3.346   0.106   7.224 -0.3846  0.3127 -0.4908
   16MOL   H291 9021   3.201   0.184   7.235  1.9267  1.4264 -0.5520
   16MOL   C292 9022   3.210   0.066   7.444  0.6544 -0.3360 -0.2032
   16MOL   C293 9023   3.216   7.648   7.549 -0.0795  0.3477 -0.3665
   16MOL   O294 9024   3.340   7.582   7.535 -0.0639 -0.5506 -0.1782
   16MOL   C295 9025   3.222   0.003   0.000 -0.1909 -0.7424 -0.3061
   16MOL   O296 9026   3.095   0.038   0.048 -0.0352  0.0428  0.6283
   16MOL   C297 9027   3.092   0.057   0.189  0.3387  0.8039 -0.5878
   16MOL   C298 9028   2.965   0.115   0.245 -0.4327 -0.5789 -0.0894
   16MOL   C299 9029   2.951   0.088   0.394 -0.5170  0.1057  0.3428
   16MOL   O300 9030   3.057   0.141   0.473  0.2389 -0.2848  0.7318
   16MOL   C301 9031   3.020   0.171   0.604 -0.2847  0.0575 -0.0006
   16MOL   O302 9032   3.002   0.051   0.675  0.0132  0.7828  0.3024
   16MOL   C303 9033   3.121   0.263   0.680 -0.5298  0.5136 -0.4549
   16MOL   O304 9034   3.118   0.390   0.625  0.2837 -0.1170  0.5159
   16MOL   H305 9035   3.305   0.118   7.452 -0.4351  1.3992  2.0115
   16MOL   H306 9036   3.135   0.144   7.461  1.9276  1.1854 -1.3182
   16MOL   H307 9037   3.136   7.578   7.524  0.5823 -0.2111 -0.9732
   16MOL   H308 9038   3.344   7.557   7.444  0.1568 -0.9750 -0.0510
   16MOL   H309 9039   3.262   7.623   0.069  1.4920 -1.6491 -2.2184
   16MOL   H310 9040   3.273   0.099   0.004 -2.3917  0.4803 -0.4747
   16MOL   H311 9041   3.181   0.115   0.213  1.2256  0.0798 -2.0631
   16MOL   H312 9042   3.104   7.652   0.231  0.8917  1.5956  1.1599
   16MOL   H313 9043   2.885   0.058   0.199 -0.0518 -1.4508  0.3162
   16MOL   H314 9044   2.948   0.221   0.225 -3.1439 -0.4740  2.4069
   16MOL   H315 9045   2.851   0.115   0.429  0.4315  2.6846  1.1890
   16MOL   H316 9046   2.948   7.674   0.405  1.1092 -0.1279 -1.3673
   16MOL   H317 9047   2.919   0.213   0.598 -0.3775 -0.2558 -0.6570
   16MOL   H318 9048   3.092   0.025   0.689 -0.6431 -1.5610  0.3627
   16MOL   H319 9049   3.219   0.215   0.688 -0.4187  0.3487 -2.5767
   16MOL   H320 9050   3.084   0.284   0.780 -0.3706 -1.5049  0.0666
   16MOL   C321 9051   3.033   0.492   0.684  0.6490 -0.1746  0.3956
   16MOL   C322 9052   3.032   0.609   0.586  0.2118 -0.8882 -0.2631
   16MOL   O323 9053   3.167   0.656   0.586 -0.2446  0.2921 -0.7041
   16MOL   C324 9054   2.951   0.582   0.456 -0.3758  0.2777 -0.2396
   16MOL   O325 9055   2.813   0.606   0.471  0.5690  0.6175 -0.0682
   16MOL   C326 9056   2.735   0.529   0.376 -0.7378 -0.0727 -0.2132
   16MOL   C327 9057   2.617   0.627   0.356 -0.6818 -0.1908  0.1420
   16MOL   C328 9058   2.496   0.554   0.286  0.0944  0.3300  0.2304
   16MOL   O329 9059   2.380   0.643   0.307 -0.1391 -0.5430  0.7039
   16MOL   C330 9060   2.260   0.599   0.262 -0.5177  0.3524  0.3303
   16MOL   O331 9061   2.212   0.491   0.337  0.5781  0.0402 -0.1425
   16MOL   C332 9062   2.151   0.704   0.260 -0.3433 -0.3827  0.1826
   16MOL   O333 9063   2.077   0.695   0.381 -0.1554  0.4794 -0.1731
   16MOL   H334 9064   3.066   0.517   0.785  2.6215 -0.5149 -0.1435
   16MOL   H335 9065   2.934   0.447   0.685  0.6735 -0.3134 -1.7072
   16MOL   H336 9066   2.980   0.696   0.628 -0.3303 -2.3488  2.1900
   16MOL   H337 9067   3.220   0.583   0.559  0.0385  0.0656  0.4442
   16MOL   H338 9068   2.976   0.481   0.424  1.2826  0.6625 -0.1680
   16MOL   H339 9069   2.991   0.653   0.384 -1.2656  0.8827 -0.1488
   16MOL   H340 9070   2.697   0.433   0.412 -0.9730 -0.7977 -2.3368
   16MOL   H341 9071   2.789   0.505   0.285 -1.0856  3.7143 -1.4820
   16MOL   H342 9072   2.594   0.664   0.456  2.9663  0.6868  0.7261
   16MOL   H343 9073   2.645   0.712   0.294  0.3199 -0.8197 -0.2789
   16MOL   H344 9074   2.518   0.535   0.181  0.7568 -1.4665  0.6712
   16MOL   H345 9075   2.472   0.456   0.327 -0.4947  0.3776  0.0071
   16MOL   H346 9076   2.273   0.562   0.160 -0.6974  2.3720 -0.4515
   16MOL   H347 9077   2.170   0.529   0.413  0.7156 -0.3886  0.1499
   16MOL   H348 9078   2.200   0.801   0.254 -1.3963  0.0747 -1.1812
   16MOL   H349 9079   2.091   0.692   0.169  1.0358  0.8097 -0.8900
   16MOL   C350 9080   1.969   0.795   0.385  0.1393  0.3147 -0.0704
   16MOL   C351 9081   1.902   0.776   0.512  0.2724  0.2682 -0.7593
   16MOL   O352 9082   1.976   0.804   0.625 -0.0405  0.1680 -0.3362
   16MOL   C353 9083   1.768   0.856   0.518  0.5088  0.2437  0.6984
   16MOL   O354 9084   1.788   0.997   0.500  0.1520  0.1495 -0.6794
   16MOL   C355 9085   1.692   1.073   0.431 -0.3595 -0.5735 -0.7096
   16MOL   C356 9086   1.746   1.216   0.409 -0.0386 -0.4887  0.0031
   16MOL   C357 9087   1.855   1.221   0.301  0.0406  0.1406  0.0392
   16MOL   O358 9088   1.918   1.343   0.312 -0.3131  0.2510  0.2657
   16MOL   C359 9089   1.984   1.393   0.200  0.1178 -0.1929 -0.4532
   16MOL   O360 9090   1.899   1.458   0.106 -0.2243  0.0553 -0.2427
   16MOL   C361 9091   2.088   1.494   0.246 -0.4024 -0.0010 -0.2970
   16MOL   O362 9092   2.208   1.428   0.260 -0.4136  0.2702 -0.7197
   16MOL   H363 9093   1.900   0.793   0.301  0.7154  0.9090 -0.5700
   16MOL   H364 9094   2.020   0.890   0.399  3.8006 -1.8552  2.1242
   16MOL   H365 9095   1.876   0.671   0.522 -0.4028  0.2292 -2.7488
   16MOL   H366 9096   1.983   0.898   0.633  1.0720  0.2579 -2.1624
   16MOL   H367 9097   1.686   0.815   0.459  0.3505  0.2311  0.9271
   16MOL   H368 9098   1.727   0.861   0.619  0.4542 -0.0375  0.6916
   16MOL   H369 9099   1.604   1.085   0.494 -1.5634  2.5151 -2.8806
   16MOL   H370 9100   1.665   1.028   0.336  0.3442  1.0807 -1.7059
   16MOL   H371 9101   1.777   1.272   0.497 -0.8327  0.3855 -0.2584
   16MOL   H372 9102   1.656   1.269   0.377 -0.6455 -0.5334  1.6122
   16MOL   H373 9103   1.920   1.134   0.314  0.2344  0.3584  0.5396
   16MOL   H374 9104   1.809   1.212   0.203  0.5559 -0.4756 -0.1474
   16MOL   H375 9105   2.036   1.315   0.144  0.6897  0.0183 -0.2261
   16MOL   H376 9106   1.866   1.539   0.141 -0.3203  0.0669 -0.3575
   16MOL   H377 9107   2.103   1.567   0.166 -3.2431  1.1781  0.1817
   16MOL   H378 9108   2.057   1.545   0.337 -1.5997 -0.0447 -0.6727
   16MOL   C379 9109   2.308   1.517   0.318 -0.4747 -0.4780  0.2771
   16MOL   C380 9110   2.446   1.455   0.307  0.3260  0.2429  0.3672
   16MOL   O381 9111   2.459   1.433   0.171 -0.7155  0.3994 -0.3401
   16MOL   C382 9112   2.559   1.542   0.363 -0.0211 -0.4021 -0.0658
   16MOL   O383 9113   2.554   1.540   0.501  0.4484  0.6015 -0.0241
   16MOL   C384 9114   2.657   1.606   0.579  0.0750 -0.0571  0.2130
   16MOL   C385 9115   2.606   1.632   0.722 -0.3042 -1.0358  0.0854
   16MOL   C386 9116   2.694   1.731   0.802  0.0148 -0.2603  0.6014
   16MOL   O387 9117   2.652   1.746   0.936  0.6820  0.2464 -0.0682
   16MOL   C388 9118   2.709   1.849   1.008  0.2682 -0.0671 -0.2843
   16MOL   O389 9119   2.659   1.971   0.968  0.2318 -0.0069 -0.0619
   16MOL   C390 9120   2.655   1.823   1.148 -0.0535 -0.4398 -0.2916
   16MOL   O391 9121   2.740   1.730   1.216  0.6907  0.1007  0.2513
   16MOL   H392 9122   2.288   1.530   0.424  2.5230 -0.5904  0.8866
   16MOL   H393 9123   2.301   1.613   0.266  0.2498 -0.6157 -0.0742
   16MOL   H394 9124   2.458   1.352   0.341 -0.9039  0.8456  2.7442
   16MOL   H395 9125   2.396   1.370   0.138  0.4466 -0.7131 -0.4382
   16MOL   H396 9126   2.649   1.485   0.340 -0.7723 -0.8332 -2.1055
   16MOL   H397 9127   2.574   1.639   0.315 -1.0788 -0.1093  0.1913
   16MOL   H398 9128   2.685   1.703   0.537 -0.8886 -0.3063 -1.0425
   16MOL   H399 9129   2.747   1.547   0.594  1.1398  1.4092 -0.2686
   16MOL   H400 9130   2.600   1.533   0.768 -1.0630 -0.9205  0.2332
   16MOL   H401 9131   2.503   1.668   0.723  0.5081  1.3744 -0.6064
   16MOL   H402 9132   2.797   1.699   0.790 -0.1880 -0.6189 -0.1852
   16MOL   H403 9133   2.696   1.828   0.752 -1.8735 -0.1885  0.6085
   16MOL   H404 9134   2.817   1.853   0.990  0.5736  0.3251  1.5507
   16MOL   H405 9135   2.572   1.996   0.997 -0.1925 -0.4296 -0.9351
   16MOL   H406 9136   2.654   1.913   1.209  0.5451  0.0070 -0.9251
   16MOL   H407 9137   2.553   1.785   1.143  0.0170 -0.8730  1.2521
   16MOL   C408 9138   2.853   1.790   1.272 -0.4104  0.5606  0.0786
   16MOL   C409 9139   2.942   1.670   1.311 -0.2725  0.2601  0.4455
   16MOL   O410 9140   2.889   1.596   1.417  0.3323  0.1046  0.4589
   16MOL   C411 9141   3.080   1.708   1.356 -0.3803  0.4675  0.1092
   16MOL   O412 9142   3.066   1.779   1.481 -0.2104 -0.1293  0.1873
   16MOL   C413 9143   3.183   1.848   1.525  1.0223  0.5076 -0.0512
   16MOL   C414 9144   3.184   1.880   1.675  0.4177 -0.7117 -0.4629
   16MOL   C415 9145   3.303   1.977   1.712  0.3305  0.5577  0.5796
   16MOL   O416 9146   3.282   2.107   1.646  0.7039 -0.1455 -0.0379
   16MOL   C417 9147   3.343   2.219   1.691 -0.5354 -0.2739 -1.1060
   16MOL   O418 9148   3.285   2.261   1.813  0.1228  0.5311  0.3998
   16MOL   C419 9149   3.335   2.330   1.588 -0.0785 -0.2570  0.0290
   16MOL   O420 9150   3.446   2.329   1.488  0.3864  0.1094  0.5932
   16MOL   H421 9151   2.836   1.855   1.357  0.6020  0.1791  0.5858
   16MOL   H422 9152   2.897   1.850   1.192  1.8991  1.1933  1.7797
   16MOL   H423 9153   2.956   1.619   1.216  1.5099  0.7144  0.4496
   16MOL   H424 9154   2.936   1.633   1.491 -0.3328  0.4915  0.6929
   16MOL   H425 9155   3.148   1.627   1.382 -2.3159 -1.1212  0.2570
   16MOL   H426 9156   3.131   1.771   1.283 -0.3428 -0.4931 -0.6920
   16MOL   H427 9157   3.275   1.794   1.502  0.5656 -0.2411 -0.1361
   16MOL   H428 9158   3.197   1.946   1.479  1.3070  0.3708 -0.2580
   16MOL   H429 9159   3.190   1.787   1.733  0.2548 -2.0726 -2.5769
   16MOL   H430 9160   3.096   1.936   1.706 -0.5891 -1.0807 -2.5935
   16MOL   H431 9161   3.304   1.988   1.820 -1.5634 -2.3015  0.9303
   16MOL   H432 9162   3.402   1.937   1.690  0.1720  0.1341  0.6401
   16MOL   H433 9163   3.446   2.194   1.712 -0.2464  0.7322 -1.2874
   16MOL   H434 9164   3.211   2.317   1.792 -0.3749 -0.7116 -1.2417
   16MOL   H435 9165   3.238   2.322   1.540 -0.0016  0.1914 -0.2031
   16MOL   H436 9166   3.331   2.426   1.639  1.3272  0.7232 -1.6701
   16MOL   C437 9167   3.430   2.236   1.376  0.6235  0.0450 -1.0067
   16MOL   C438 9168   3.551   2.268   1.283  0.0497  0.0986 -0.0186
   16MOL   O439 9169   3.532   2.389   1.208  0.0013  0.1328 -0.0002
   16MOL   C440 9170   3.585   2.155   1.178  0.5377 -0.5148  0.5802
   16MOL   O441 9171   3.463   2.120   1.109  0.2190  0.0193  0.1299
   16MOL   C442 9172   3.476   2.014   1.023  0.6805 -0.0336 -0.2724
   16MOL   C443 9173   3.332   1.955   0.994  0.9314  0.0375  0.6833
   16MOL   C444 9174   3.329   1.849   0.884 -0.6133 -0.1641 -0.3839
   16MOL   O445 9175   3.202   1.784   0.888  0.4243  0.2513  0.2760
   16MOL   C446 9176   3.197   1.667   0.814 -0.1573  1.0477  0.4708
   16MOL   O447 9177   3.182   1.684   0.678 -0.3626  0.8376 -0.4856
   16MOL   C448 9178   3.078   1.586   0.864 -0.2625  0.4886 -0.3219
   16MOL   O449 9179   3.124   1.512   0.970 -0.1431  1.0907 -0.1968
   16MOL   H450 9180   3.411   2.136   1.413 -2.0357  0.6154 -0.6946
   16MOL   H451 9181   3.337   2.256   1.322  0.5516  1.6133 -0.3355
   16MOL   H452 9182   3.639   2.280   1.347  0.0405 -0.5466  0.1130
   16MOL   H453 9183   3.483   2.444   1.266 -0.5592 -1.3874  1.0057
   16MOL   H454 9184   3.661   2.186   1.106 -1.1868 -0.0827 -1.0888
   16MOL   H455 9185   3.627   2.073   1.236  1.6863  0.6970  1.5186
   16MOL   H456 9186   3.535   1.931   1.060 -1.7130 -2.2094 -1.2033
   16MOL   H457 9187   3.528   2.038   0.930  0.9573 -1.7187 -0.5645
   16MOL   H458 9188   3.283   2.044   0.955 -1.1686 -1.7143 -0.7670
   16MOL   H459 9189   3.285   1.926   1.088 -0.6415 -1.5744 -0.5556
   16MOL   H460 9190   3.336   1.895   0.785 -1.6982 -1.5649 -1.1266
   16MOL   H461 9191   3.411   1.779   0.900 -0.6052  0.0576  0.6047
   16MOL   H462 9192   3.289   1.609   0.829  0.1693  1.8924  1.7493
   16MOL   H463 9193   3.270   1.692   0.642 -0.6189  0.3700 -1.2474
   16MOL   H464 9194   3.002   1.654   0.900 -1.4492 -0.9332 -0.1033
   16MOL   H465 9195   3.033   1.524   0.786  0.8783 -1.5199  0.5667
   16MOL   C466 9196   3.035   1.422   1.028  0.2750 -0.1914  0.1465
   16MOL   C467 9197   3.095   1.343   1.146 -0.3336  0.1273 -0.1861
   16MOL   O468 9198   3.049   1.404   1.260 -0.9949  0.1971  0.1280
   16MOL   C469 9199   3.032   1.199   1.163 -0.3121 -0.2704  0.1855
   16MOL   O470 9200   2.886   1.205   1.190 -0.8114 -0.0214 -0.1617
   16MOL   C471 9201   2.837   1.063   1.200 -0.6898  0.1494 -0.2497
   16MOL   C472 9202   2.716   1.049   1.293  0.3268 -0.0544  0.1398
   16MOL   C473 9203   2.689   0.906   1.330  0.3806  0.4497  0.3163
   16MOL   O474 9204   2.789   0.882   1.422 -0.2619  0.6368  0.2000
   16MOL   C475 9205   2.810   0.756   1.471 -0.2201  0.1123  0.2637
   16MOL   O476 9206   2.694   0.708   1.528  1.0750  0.0363 -0.2888
   16MOL   C477 9207   2.933   0.757   1.556 -0.4554 -0.0298 -0.5644
   16MOL   O478 9208   2.931   0.851   1.663 -0.1095  0.4202  0.8022
   16MOL   H479 9209   2.994   1.354   0.953  0.0088 -0.7758  0.8169
   16MOL   H480 9210   2.947   1.481   1.054 -0.6909 -1.4137 -0.3247
   16MOL   H481 9211   3.203   1.329   1.142 -0.2900  0.8530 -1.9143
   16MOL   H482 9212   2.958   1.380   1.270 -0.9132 -0.3145 -0.3170
   16MOL   H483 9213   3.045   1.137   1.074  2.4816 -1.3331  1.2872
   16MOL   H484 9214   3.084   1.142   1.240  0.8996  1.1149  0.4120
   16MOL   H485 9215   2.922   1.008   1.239 -0.8016  0.3618  0.3074
   16MOL   H486 9216   2.814   1.023   1.101  0.4126  0.3752 -0.6091
   16MOL   H487 9217   2.624   1.090   1.254 -0.8747 -1.0934  1.8002
   16MOL   H488 9218   2.750   1.111   1.376 -0.4875 -0.7621  1.0108
   16MOL   H489 9219   2.593   0.896   1.381  0.8765  0.5436  1.2733
   16MOL   H490 9220   2.703   0.837   1.246 -0.2596 -1.6062  1.8540
   16MOL   H491 9221   2.833   0.701   1.380 -0.0396 -1.3089  1.1406
   16MOL   H492 9222   2.685   0.740   1.616  1.0591 -1.4228  0.2467
   16MOL   H493 9223   2.940   0.653   1.589  1.4593  0.8168  1.8261
   16MOL   H494 9224   3.013   0.786   1.489  1.7074 -1.7168  1.1979
   16MOL   C495 9225   2.899   0.798   1.789 -0.4474  0.0116 -0.4073
   16MOL   C496 9226   2.760   0.839   1.837  0.0686 -0.3051  0.2248
   16MOL   O497 9227   2.664   0.768   1.770  0.1441  0.3402  0.4858
   16MOL   C498 9228   2.748   0.799   1.992  0.4744 -0.7689  0.5936
   16MOL   O499 9229   2.779   0.658   1.989  0.3875  0.3508 -0.2071
   16MOL   C500 9230   2.816   0.600   2.113 -0.4657 -0.0693 -0.3698
   16MOL   C501 9231   2.818   0.452   2.085  0.0192 -0.0694 -0.1774
   16MOL   C502 9232   2.919   0.403   1.977 -0.0921 -0.3558  0.4947
   16MOL   O503 9233   2.933   0.257   1.975  0.2192  0.2393  0.1596
   16MOL   C504 9234   3.016   0.213   1.874 -0.0786 -1.0015  0.9552
   16MOL   O505 9235   2.951   0.217   1.752  0.1039 -0.7155  0.5332
   16MOL   C506 9236   3.059   0.070   1.906  0.2662  0.1698  0.4666
   16MOL   O507 9237   3.180   0.070   1.983 -0.0916 -0.5319  0.4310
   16MOL   H508 9238   2.966   0.841   1.864  1.5610  0.6054 -2.4921
   16MOL   H509 9239   2.914   0.690   1.796 -2.5892 -0.1633  2.1218
   16MOL   H510 9240   2.759   0.948   1.828 -1.0565 -0.1643  1.8213
   16MOL   H511 9241   2.668   0.680   1.803 -2.3904  0.2573  0.6860
   16MOL   H512 9242   2.821   0.865   2.040 -0.3395  1.8858 -1.6954
   16MOL   H513 9243   2.651   0.805   2.040  1.0348  1.0830  1.5311
   16MOL   H514 9244   2.747   0.627   2.193 -1.1636  0.4370 -1.1380
   16MOL   H515 9245   2.906   0.652   2.147 -0.7886 -0.3826  0.9942
   16MOL   H516 9246   2.720   0.416   2.056 -0.0638  0.5828 -0.7292
   16MOL   H517 9247   2.846   0.408   2.181  3.5959  1.0643 -0.6308
   16MOL   H518 9248   2.900   0.432   1.874  1.5596 -2.2892 -0.3901
   16MOL   H519 9249   3.013   0.448   2.008  1.5174 -0.6238 -3.6296
   16MOL   H520 9250   3.107   0.271   1.861 -0.2338 -0.8449  0.5522
   16MOL   H521 9251   2.959   0.134   1.707  0.8322  0.3527 -1.3417
   16MOL   H522 9252   2.984   0.016   1.963  0.8348  0.5777  1.6264
   16MOL   H523 9253   3.089   0.014   1.818 -2.0207  0.0840 -0.2768
   16MOL   C524 9254   3.214   7.634   2.020  0.3973 -0.5261 -0.2836
   16MOL   C525 9255   3.354   7.595   1.964 -0.1964 -0.6462  0.3941
   16MOL   O526 9256   3.330   7.555   1.827  0.2269  0.5068 -0.3765
   16MOL   C527 9257   3.407   7.483   2.051 -0.0560 -0.5326 -0.2097
   16MOL   O528 9258   3.479   7.547   2.151 -0.1793 -0.0754  0.5500
   16MOL   C529 9259   3.543   7.449   2.234 -0.4038  0.1289 -0.0281
   16MOL   C530 9260   3.663   7.504   2.308 -0.4836 -0.7670 -0.0289
   16MOL   C531 9261   3.773   7.555   2.220  0.0393  0.0895  0.3030
   16MOL   O532 9262   3.821   7.451   2.142  0.1589 -0.2809 -0.0288
   16MOL   C533 9263   3.940   7.479   2.078 -0.2506  0.3226 -0.0674
   16MOL   O534 9264   4.048   7.467   2.164 -0.7015  0.7993  0.6160
   16MOL   C535 9265   3.955   7.399   1.954 -0.1938  0.4865 -0.3626
   16MOL   O536 9266   3.876   7.449   1.845  0.2630 -0.2837  0.3805
   16MOL   H537 9267   3.140   7.557   2.000  0.7919 -0.7067 -1.0657
   16MOL   H538 9268   3.219   7.632   2.129 -0.4976 -3.4475 -0.2657
   16MOL   H539 9269   3.411   7.687   1.975 -0.1091 -0.7014  0.3973
   16MOL   H540 9270   3.413   7.518   1.801  0.5517  0.9170  0.0580
   16MOL   H541 9271   3.327   7.417   2.085  1.4775 -2.1660  0.3282
   16MOL   H542 9272   3.472   7.417   1.995  0.3931 -1.5565  1.4627
   16MOL   H543 9273   3.578   7.360   2.182 -1.4424 -0.2556 -0.0679
   16MOL   H544 9274   3.466   7.421   2.306 -0.4887 -2.0096 -0.9202
   16MOL   H545 9275   3.708   7.440   2.384 -2.6513 -1.2333  0.9193
   16MOL   H546 9276   3.627   7.586   2.371 -0.2609 -1.4366  0.9826
   16MOL   H547 9277   3.732   7.644   2.174  0.3108  0.4189  0.6904
   16MOL   H548 9278   3.851   7.602   2.281  0.1384  2.9494 -1.8994
   16MOL   H549 9279   3.920   7.584   2.054 -2.1611 -0.5344 -2.3515
   16MOL   H550 9280   4.121   7.510   2.121 -1.3620  0.3058 -1.0437
   16MOL   H551 9281   4.059   7.409   1.923  0.1851  0.5740  0.9170
   16MOL   H552 9282   3.948   7.294   1.982 -0.2140  0.3510 -0.8734
   16MOL   C553 9283   3.756   7.378   1.823 -0.0815 -0.3706 -0.4514
   16MOL   C554 9284   3.684   7.439   1.711  0.3743  0.7622  0.1772
   16MOL   O555 9285   3.635   7.560   1.760 -0.6692 -0.3637 -0.4747
   16MOL   C556 9286   3.567   7.360   1.658  0.0179 -0.3886 -0.2387
   16MOL   O557 9287   3.497   7.306   1.769 -0.3658 -0.1671  0.0560
   16MOL   C558 9288   3.424   7.188   1.750 -0.3715 -0.3363  0.6841
   16MOL   C559 9289   3.361   7.136   1.879 -0.9877 -0.3227  0.1916
   16MOL   C560 9290   3.285   7.007   1.874  0.4375  0.1453  0.1067
   16MOL   O561 9291   3.216   6.985   1.993 -0.1322 -0.0807 -0.6436
   16MOL   C562 9292   3.207   6.855   2.042  0.0787  0.1999 -0.6680
   16MOL   O563 9293   3.335   6.818   2.100  0.0147 -0.2621  0.0978
   16MOL   C564 9294   3.100   6.854   2.153 -0.2930 -0.4847 -0.1811
   16MOL   O565 9295   3.139   6.942   2.258 -0.0830  0.3466  0.0219
   16MOL   H566 9296   3.696   7.356   1.912  0.5519  1.7633  0.5273
   16MOL   H567 9297   3.785   7.279   1.789  1.0017  0.0538 -0.7681
   16MOL   H568 9298   3.766   7.447   1.640  0.7085  0.8253  0.5639
   16MOL   H569 9299   3.704   7.596   1.815 -0.9712 -0.0621 -0.2921
   16MOL   H570 9300   3.491   7.423   1.611  0.8125  2.4205  2.0610
   16MOL   H571 9301   3.591   7.270   1.602 -0.1215 -0.3655 -0.3335
   16MOL   H572 9302   3.346   7.209   1.677  0.4838 -0.7052 -0.3487
   16MOL   H573 9303   3.496   7.120   1.704 -0.4951  0.9079 -1.4495
   16MOL   H574 9304   3.296   7.213   1.922 -2.3820 -1.7993  0.7913
   16MOL   H575 9305   3.448   7.127   1.944  0.9004  1.9600 -1.9067
   16MOL   H576 9306   3.214   7.010   1.792 -0.9291 -1.3581  1.2044
   16MOL   H577 9307   3.359   6.929   1.854  0.1431 -0.7785  2.3528
   16MOL   H578 9308   3.185   6.780   1.966  0.9372 -0.4930 -0.2463
   16MOL   H579 9309   3.318   6.804   2.192  1.1229 -1.3914  0.1348
   16MOL   H580 9310   3.011   6.883   2.098  0.4796  1.2420 -0.5696
   16MOL   H581 9311   3.086   6.754   2.193  0.6874  0.7022  3.2979
   16MOL   H582 9312   3.203   6.998   2.217  0.2801 -0.2644 -0.2626
   17MOL     C1 9313   6.778   0.623   5.392 -0.1888 -0.3664  0.2426
   17MOL     C2 9314   6.732   0.510   5.483  0.3855 -0.1349 -0.0556
   17MOL     O3 9315   6.797   0.395   5.437 -0.0411 -0.4084  0.2018
   17MOL     C4 9316   6.784   0.530   5.626 -0.4828 -0.3938 -0.3759
   17MOL     O5 9317   6.703   0.451   5.714 -0.2878  0.4121 -0.0696
   17MOL     C6 9318   6.733   0.469   5.852  0.7390 -0.5364  0.4310
   17MOL     C7 9319   6.636   0.393   5.939  0.0221  0.5569 -0.2426
   17MOL     C8 9320   6.668   0.249   5.927 -0.2717  0.6781 -0.1534
   17MOL     O9 9321   6.578   0.174   6.001 -0.6513 -0.2059 -0.0320
   17MOL    C10 9322   6.573   0.043   5.964  0.1898  0.4976 -0.3009
   17MOL    O11 9323   6.492   0.019   5.853 -0.4637 -0.0438 -0.5661
   17MOL    C12 9324   6.532   7.659   6.085 -0.3492  0.4521  0.2176
   17MOL    O13 9325   6.622   7.553   6.110  0.0761 -1.0961  0.6942
   17MOL    H14 9326   6.731   0.622   5.294 -2.2187 -0.1194  1.1959
   17MOL    H15 9327   6.887   0.632   5.389 -0.3894  1.8289 -1.8635
   17MOL    H16 9328   6.624   0.510   5.491  0.5694  1.6873  3.0638
   17MOL    H17 9329   6.789   0.319   5.493  1.0554 -0.9615 -0.3836
   17MOL    H18 9330   6.892   0.517   5.634 -0.4437  0.4777  0.6811
   17MOL    H19 9331   6.778   0.637   5.646  1.1357 -0.3122 -0.2238
   17MOL    H20 9332   6.724   0.574   5.883 -1.6339 -0.8349  0.8690
   17MOL    H21 9333   6.835   0.440   5.878  0.6968 -2.7790 -1.7169
   17MOL    H22 9334   6.534   0.421   5.910  0.5258  2.2089 -0.4531
   17MOL    H23 9335   6.643   0.416   6.045 -0.3773 -0.5018  0.0230
   17MOL    H24 9336   6.664   0.228   5.820  0.9479 -2.5078  0.3561
   17MOL    H25 9337   6.769   0.232   5.965 -0.2419  1.0643 -0.0528
   17MOL    H26 9338   6.674   0.011   5.938  0.8376  1.2143  1.2757
   17MOL    H27 9339   6.527   7.639   5.805  0.6241  0.8147 -1.0959
   17MOL    H28 9340   6.534   0.029   6.173  0.4276  1.5877 -0.6193
   17MOL    H29 9341   6.433   7.616   6.070  0.5958 -1.1198 -1.5796
   17MOL    H30 9342   6.739   0.718   5.428 -1.0522 -1.4116  2.1488
   17MOL    C31 9343   6.591   7.432   6.038  0.0274  0.5334 -0.1822
   17MOL    C32 9344   6.665   7.426   5.904 -0.1831  0.2996  0.3029
   17MOL    O33 9345   6.577   7.462   5.800 -0.2233 -0.5751  0.1605
   17MOL    C34 9346   6.702   7.290   5.867 -0.0752 -0.1403  0.3112
   17MOL    O35 9347   6.775   7.297   5.749  0.1625 -0.1875  0.7962
   17MOL    C36 9348   6.815   7.178   5.690  0.0243  0.9661 -0.7230
   17MOL    C37 9349   6.902   7.201   5.566  0.0345  0.0297  0.7449
   17MOL    C38 9350   7.044   7.248   5.582  0.1694 -0.5757 -0.4839
   17MOL    O39 9351   7.100   7.145   5.674 -0.3485 -0.3913  0.5491
   17MOL    C40 9352   7.231   7.105   5.639  0.3266 -0.2666  0.5641
   17MOL    O41 9353   7.237   7.029   5.522 -0.2968  0.4328  0.3695
   17MOL    C42 9354   7.288   7.013   5.743  0.0390  0.2610 -0.4094
   17MOL    O43 9355   7.215   6.893   5.748 -0.2539 -0.3683  0.0711
   17MOL    H44 9356   6.618   7.353   6.108 -2.0582 -1.4129 -1.4697
   17MOL    H45 9357   6.484   7.414   6.024 -0.0649  0.0095  1.0714
   17MOL    H46 9358   6.754   7.489   5.914 -1.2103  1.3926  3.2995
   17MOL    H47 9359   6.618   7.432   5.720  0.6089 -0.0643  0.3884
   17MOL    H48 9360   6.778   7.264   5.941 -0.1371  0.9583  0.7707
   17MOL    H49 9361   6.622   7.216   5.865  0.5511 -0.8113 -0.6090
   17MOL    H50 9362   6.727   7.124   5.656  2.0591 -1.0635 -2.9068
   17MOL    H51 9363   6.861   7.109   5.761  0.8148  2.4681  0.2560
   17MOL    H52 9364   6.857   7.280   5.506 -1.1238 -0.7742  0.5375
   17MOL    H53 9365   6.898   7.107   5.511  0.5051 -0.6341  1.8218
   17MOL    H54 9366   7.078   7.252   5.479  1.5524  0.4022  0.0122
   17MOL    H55 9367   7.055   7.349   5.621 -0.1423 -0.4904 -0.6150
   17MOL    H56 9368   7.293   7.194   5.629 -0.4825  0.3921  1.2954
   17MOL    H57 9369   7.217   6.939   5.544 -0.5991  0.9101  2.0796
   17MOL    H58 9370   7.390   6.986   5.715  0.2714  0.9170 -0.1871
   17MOL    H59 9371   7.299   7.066   5.837  0.0090  1.5387 -1.1232
   17MOL    C60 9372   7.111   6.894   5.847  0.5027  0.2836 -0.0412
   17MOL    C61 9373   7.071   6.752   5.882 -1.0500 -0.0107 -0.6265
   17MOL    O62 9374   7.193   6.686   5.910  0.6975  0.1149  0.4664
   17MOL    C63 9375   7.017   6.678   5.759  0.1953  0.2922  0.2945
   17MOL    O64 9376   6.986   6.546   5.789  0.1300  0.2884  0.1758
   17MOL    C65 9377   6.991   6.460   5.671  0.3537  0.4431  0.1365
   17MOL    C66 9378   6.910   6.340   5.699 -0.1511 -0.4112 -0.9120
   17MOL    C67 9379   6.761   6.368   5.687  0.1327 -0.0063  0.2108
   17MOL    O68 9380   6.747   6.378   5.546 -0.1437  0.1363  0.0093
   17MOL    C69 9381   6.616   6.400   5.504 -0.1554  0.6571 -0.1579
   17MOL    O70 9382   6.583   6.535   5.473  0.2349 -0.1229 -0.0092
   17MOL    C71 9383   6.588   6.311   5.380 -0.7835  0.2499  0.1691
   17MOL    O72 9384   6.699   6.306   5.299  0.1280  0.0473  0.4706
   17MOL    H73 9385   7.023   6.945   5.807  0.4435  1.7992  1.9616
   17MOL    H74 9386   7.138   6.951   5.936  0.6936 -0.7036  0.5433
   17MOL    H75 9387   7.000   6.749   5.964 -1.2042  2.0639 -0.6594
   17MOL    H76 9388   7.175   6.594   5.922  1.7086  0.0275  1.4451
   17MOL    H77 9389   6.924   6.722   5.722  1.2649  1.1991 -1.3654
   17MOL    H78 9390   7.086   6.683   5.675 -1.5972 -0.9188 -1.3218
   17MOL    H79 9391   7.095   6.428   5.663  0.3007  0.4027 -0.3555
   17MOL    H80 9392   6.954   6.502   5.578  1.9476  0.5782 -0.4590
   17MOL    H81 9393   6.935   6.296   5.795 -2.1838 -0.7799 -0.5284
   17MOL    H82 9394   6.942   6.258   5.634  1.6721 -1.7529  1.6321
   17MOL    H83 9395   6.742   6.466   5.732 -1.2121  0.1730 -0.7293
   17MOL    H84 9396   6.702   6.284   5.721  1.1148 -1.1892 -0.9677
   17MOL    H85 9397   6.541   6.365   5.575  1.3141  1.0109  1.5836
   17MOL    H86 9398   6.639   6.560   5.401  0.3464  0.2693  0.2116
   17MOL    H87 9399   6.567   6.206   5.402 -0.4724  0.3474  0.9454
   17MOL    H88 9400   6.506   6.354   5.323  1.9451  3.4811 -1.5186
   17MOL    C89 9401   6.680   6.242   5.171 -0.5403  0.1377  0.0721
   17MOL    C90 9402   6.672   6.087   5.182  0.8528  0.3646  0.3316
   17MOL    O91 9403   6.531   6.060   5.193 -0.3673 -0.6795  0.3573
   17MOL    C92 9404   6.726   6.010   5.061 -0.1085 -0.8457 -0.0204
   17MOL    O93 9405   6.700   5.866   5.052 -0.2487 -0.1423 -0.3362
   17MOL    C94 9406   6.791   5.798   4.971 -0.3466 -0.0315 -0.2330
   17MOL    C95 9407   6.775   5.823   4.826  0.3807 -0.1872 -0.2818
   17MOL    C96 9408   6.882   5.752   4.742 -0.1961 -0.3630  0.3309
   17MOL    O97 9409   6.877   5.784   4.610 -0.2536  0.0131  0.2332
   17MOL    C98 9410   6.961   5.707   4.529  0.3469  0.2886 -0.2897
   17MOL    O99 9411   6.903   5.581   4.501  0.3783  0.1015 -0.5188
   17MOL   C100 9412   6.982   5.792   4.399  0.6529  0.7312  0.0850
   17MOL   O101 9413   7.123   5.820   4.362  0.5556 -0.0449  0.4293
   17MOL   H102 9414   6.778   6.267   5.129 -1.5036  2.6776 -0.7525
   17MOL   H103 9415   6.610   6.298   5.110 -0.7610  1.1917  1.2659
   17MOL   H104 9416   6.733   6.049   5.264  2.7739  0.1583 -1.1572
   17MOL   H105 9417   6.529   5.966   5.189  1.5794 -0.7622  0.5435
   17MOL   H106 9418   6.675   6.059   4.978 -0.3483  1.3990  1.3826
   17MOL   H107 9419   6.832   6.032   5.049  0.3726 -2.2227  1.5555
   17MOL   H108 9420   6.768   5.693   4.989  1.3452 -0.0713  1.9421
   17MOL   H109 9421   6.895   5.802   5.004 -0.9105  0.3857  1.5833
   17MOL   H110 9422   6.789   5.930   4.808  0.5242 -0.3294 -1.0247
   17MOL   H111 9423   6.671   5.805   4.798  0.6667  0.3717 -1.7412
   17MOL   H112 9424   6.983   5.753   4.783  0.7624  0.9775 -1.9977
   17MOL   H113 9425   6.872   5.643   4.739 -0.1889 -0.3223 -2.5749
   17MOL   H114 9426   7.056   5.696   4.580 -0.5534  1.1279  1.6439
   17MOL   H115 9427   6.897   5.573   4.407  0.8461 -0.7007 -0.4818
   17MOL   H116 9428   6.927   5.750   4.315  1.5714 -2.2840  0.9197
   17MOL   H117 9429   6.943   5.892   4.416 -0.4721  0.1575  0.9662
   17MOL   C118 9430   7.205   5.714   4.333  0.5130  0.1524 -0.8918
   17MOL   C119 9431   7.157   5.634   4.214  0.2195 -0.2794 -0.2598
   17MOL   O120 9432   7.063   5.529   4.254  0.0888 -0.2007  0.1099
   17MOL   C121 9433   7.274   5.547   4.160  0.3380  0.1975  1.2582
   17MOL   O122 9434   7.208   5.457   4.069  0.4616 -0.6611 -0.0558
   17MOL   C123 9435   7.174   5.502   3.938  0.3046  0.3903  0.8935
   17MOL   C124 9436   7.133   5.376   3.864  0.6341 -0.1436  0.2242
   17MOL   C125 9437   7.107   5.406   3.720  0.1220 -0.0124  0.4741
   17MOL   O126 9438   6.986   5.476   3.690 -0.2266  0.0302  0.3934
   17MOL   C127 9439   6.965   5.477   3.559  0.3915  0.3901 -0.2287
   17MOL   O128 9440   7.041   5.584   3.503 -0.0399 -0.1775  0.3548
   17MOL   C129 9441   6.816   5.515   3.536 -0.1884  0.3818  0.2528
   17MOL   O130 9442   6.786   5.499   3.402  0.9798 -0.2514 -0.2307
   17MOL   H131 9443   7.307   5.751   4.318  0.0425  1.7149 -0.3199
   17MOL   H132 9444   7.212   5.645   4.418 -1.5926  1.6937  0.5877
   17MOL   H133 9445   7.117   5.707   4.143 -1.0636 -0.2643  0.4749
   17MOL   H134 9446   7.059   5.467   4.183 -0.4004  0.3924 -0.3781
   17MOL   H135 9447   7.361   5.596   4.116  0.9386 -0.3093  1.8745
   17MOL   H136 9448   7.321   5.480   4.232 -0.4652 -1.5748  0.1635
   17MOL   H137 9449   7.266   5.542   3.895  1.3388 -1.5109  1.2610
   17MOL   H138 9450   7.105   5.583   3.959  0.5950  0.4267  1.7068
   17MOL   H139 9451   7.047   5.334   3.916  1.0034 -1.2488 -0.0446
   17MOL   H140 9452   7.217   5.306   3.865 -0.7855 -1.8592  2.1459
   17MOL   H141 9453   7.181   5.461   3.663 -1.7566  3.0497  0.8646
   17MOL   H142 9454   7.094   5.307   3.677  2.1262 -0.2997  0.4812
   17MOL   H143 9455   6.996   5.384   3.513  0.1874  0.0242  0.3728
   17MOL   H144 9456   6.980   5.647   3.469  0.7469 -0.0320 -0.8157
   17MOL   H145 9457   6.759   5.450   3.602 -0.1694 -0.8220 -0.9128
   17MOL   H146 9458   6.800   5.618   3.569  0.8012  1.5650 -2.7613
   17MOL   C147 9459   6.652   5.517   3.372 -0.1564 -0.2682  0.0544
   17MOL   C148 9460   6.643   5.509   3.217 -0.0347  0.3325 -0.2834
   17MOL   O149 9461   6.526   5.582   3.185 -0.1971 -0.3543 -0.4856
   17MOL   C150 9462   6.626   5.367   3.164 -0.5488 -0.2715  0.4343
   17MOL   O151 9463   6.625   5.374   3.020  0.3158  0.2040  0.1082
   17MOL   C152 9464   6.645   5.247   2.961 -0.2015 -0.0629  0.5163
   17MOL   C153 9465   6.789   5.199   2.974  0.1636  0.4331 -0.2435
   17MOL   C154 9466   6.818   5.084   2.875  0.4050  0.0159  0.0390
   17MOL   O155 9467   6.943   5.030   2.908 -0.5861  0.0748  0.9378
   17MOL   C156 9468   7.018   4.981   2.801 -0.6144  0.6560 -0.8645
   17MOL   O157 9469   6.949   4.871   2.741 -0.2059  0.2894  0.0281
   17MOL   C158 9470   7.154   4.927   2.864 -0.1349  0.1673 -0.2535
   17MOL   O159 9471   7.261   5.019   2.838 -0.1689  0.0571 -0.4733
   17MOL   H160 9472   6.621   5.617   3.403 -1.1791 -1.2494  2.3454
   17MOL   H161 9473   6.572   5.453   3.407 -0.5381 -0.6562 -1.4984
   17MOL   H162 9474   6.722   5.557   3.159  0.9312  1.3623  1.8373
   17MOL   H163 9475   6.486   5.536   3.113 -2.2549 -0.5369  0.7182
   17MOL   H164 9476   6.713   5.317   3.207 -0.9407  0.1451  1.7414
   17MOL   H165 9477   6.536   5.320   3.202 -1.4082  0.8275 -0.2047
   17MOL   H166 9478   6.621   5.257   2.855 -1.8496 -1.8169  0.7081
   17MOL   H167 9479   6.569   5.179   2.999 -1.4882  0.7985 -0.4828
   17MOL   H168 9480   6.813   5.153   3.070  2.5242 -2.0001 -1.9162
   17MOL   H169 9481   6.873   5.266   2.956  1.8657 -0.8983  2.4394
   17MOL   H170 9482   6.744   5.005   2.891 -0.9132  1.3063  0.4844
   17MOL   H171 9483   6.801   5.110   2.770 -1.1630  2.0194  0.7618
   17MOL   H172 9484   7.053   5.060   2.735  1.5812  0.7054  0.3289
   17MOL   H173 9485   7.009   4.798   2.743  0.0801  0.4968 -1.0336
   17MOL   H174 9486   7.133   4.911   2.970  1.0928  3.6028  0.5598
   17MOL   H175 9487   7.174   4.824   2.834 -1.4813 -1.0851  2.8764
   17MOL   C176 9488   7.376   4.987   2.912  0.1131  0.5146 -0.5506
   17MOL   C177 9489   7.369   5.053   3.053  0.2693  0.1495 -0.2457
   17MOL   O178 9490   7.428   5.189   3.047  0.3134  0.3685  0.4709
   17MOL   C179 9491   7.446   4.968   3.161 -0.4960 -0.0316 -1.1793
   17MOL   O180 9492   7.414   4.826   3.168 -0.8707  0.2164 -0.6034
   17MOL   C181 9493   7.484   4.746   3.260  0.0627  0.0477  0.6382
   17MOL   C182 9494   7.609   4.684   3.203 -0.2345  0.0631  0.4086
   17MOL   C183 9495   7.691   4.609   3.307 -0.0884  0.5934  0.1237
   17MOL   O184 9496   0.102   4.541   3.240  0.2910 -0.0750 -0.3281
   17MOL   C185 9497   0.182   4.473   3.327 -0.2374 -0.5528  0.2995
   17MOL   O186 9498   0.270   4.557   3.403  0.3949  0.0015  0.5495
   17MOL   C187 9499   0.267   4.382   3.240  0.1962  0.9811  0.1729
   17MOL   O188 9500   0.278   4.252   3.300  1.0024 -0.1822  0.0447
   17MOL   H189 9501   7.462   5.030   2.861  0.1959 -1.0067 -1.7075
   17MOL   H190 9502   7.386   4.879   2.913  0.0156  0.5099  1.2188
   17MOL   H191 9503   7.264   5.071   3.077  0.0971 -1.0785 -0.0565
   17MOL   H192 9504   7.364   5.243   3.003  0.7272  0.0790 -0.4939
   17MOL   H193 9505   7.551   4.983   3.137 -0.3776  1.1433  0.0417
   17MOL   H194 9506   7.431   5.030   3.250  0.6177 -1.0310 -0.2835
   17MOL   H195 9507   7.420   4.664   3.293 -0.6978 -0.5086 -2.0385
   17MOL   H196 9508   7.493   4.815   3.344  0.6927  2.7767 -1.5953
   17MOL   H197 9509   7.670   4.753   3.145 -0.1596  0.7214  1.2692
   17MOL   H198 9510   7.583   4.610   3.127  0.4245 -1.2702  1.4601
   17MOL   H199 9511   0.038   4.663   3.392 -0.8206  3.0834 -1.0610
   17MOL   H200 9512   7.630   4.530   3.351 -0.7124  1.5885  1.0633
   17MOL   H201 9513   0.124   4.416   3.399 -1.5979 -0.4309 -0.6777
   17MOL   H202 9514   0.357   4.547   3.366 -0.7597 -0.1089 -2.2641
   17MOL   H203 9515   0.214   4.360   3.147 -0.6157  1.2137  0.5828
   17MOL   H204 9516   0.359   4.435   3.215  0.4565  0.4534  0.0017
   17MOL   C205 9517   0.409   4.204   3.317 -0.4158  0.1088 -0.1186
   17MOL   C206 9518   0.466   4.266   3.453  0.1125  0.5017  0.7715
   17MOL   O207 9519   0.540   4.383   3.442 -0.1837 -0.1266  0.1470
   17MOL   C208 9520   0.363   4.276   3.571  0.1010 -0.0546  0.5400
   17MOL   O209 9521   0.434   4.299   3.693  0.1443  0.3493 -0.2231
   17MOL   C210 9522   0.362   4.252   3.809  0.0614  0.1909  0.1542
   17MOL   C211 9523   0.435   4.314   3.927 -0.4242 -0.3758  0.8486
   17MOL   C212 9524   0.361   4.290   4.062 -0.4244 -1.2044 -0.2914
   17MOL   O213 9525   0.370   4.152   4.099 -0.4286 -0.3509  0.3643
   17MOL   C214 9526   0.370   4.114   4.238 -0.0926 -0.1873 -0.1196
   17MOL   O215 9527   0.496   4.144   4.296 -0.4585 -0.1730 -0.2611
   17MOL   C216 9528   0.333   3.969   4.249  0.2362  0.7273 -0.7657
   17MOL   O217 9529   0.193   3.947   4.248  0.1695  0.4274 -0.1133
   17MOL   H218 9530   0.477   4.217   3.233  0.7225 -0.3342  0.7235
   17MOL   H219 9531   0.402   4.096   3.328  2.1230 -0.2578 -1.6789
   17MOL   H220 9532   0.537   4.187   3.478  1.3584  0.7485 -1.7972
   17MOL   H221 9533   0.566   4.401   3.531 -2.3843 -0.7339  0.9283
   17MOL   H222 9534   0.284   4.350   3.559 -0.5692 -0.8393  0.0357
   17MOL   H223 9535   0.303   4.185   3.572 -0.3597  0.2395 -0.1448
   17MOL   H224 9536   0.376   4.144   3.816  1.7505  0.4319  0.6389
   17MOL   H225 9537   0.256   4.276   3.820 -0.5363 -3.1066  2.4038
   17MOL   H226 9538   0.429   4.420   3.903 -2.6675 -0.3754  1.2798
   17MOL   H227 9539   0.541   4.288   3.929 -0.0974  0.9911  2.2221
   17MOL   H228 9540   0.421   4.341   4.137 -1.3080 -2.4732  1.3200
   17MOL   H229 9541   0.257   4.322   4.067  0.0208  0.2366 -0.2084
   17MOL   H230 9542   0.304   4.175   4.301  1.5589 -0.5589  2.0653
   17MOL   H231 9543   0.547   4.064   4.287 -1.2138 -0.7464  0.4567
   17MOL   H232 9544   0.390   3.911   4.176 -1.1353 -0.6509 -0.7747
   17MOL   H233 9545   0.369   3.932   4.345  0.8663  1.1739 -0.8223
   17MOL   C234 9546   0.147   3.918   4.113 -0.7375 -0.2883  0.1123
   17MOL   C235 9547   7.687   3.922   4.107  0.0788  0.4917  0.2270
   17MOL   O236 9548   7.641   3.880   3.978  0.8621  0.3056  0.2965
   17MOL   C237 9549   7.633   4.071   4.133  0.1159 -0.2816  0.4370
   17MOL   O238 9550   7.496   4.085   4.150  0.3228 -0.2505 -0.6600
   17MOL   C239 9551   7.471   4.227   4.167  0.2416  0.6809 -0.1181
   17MOL   C240 9552   7.348   4.255   4.248 -0.1659  0.3350 -0.0108
   17MOL   C241 9553   7.226   4.241   4.159 -0.1151 -0.4883 -0.4388
   17MOL   O242 9554   7.199   4.363   4.091  0.3759  0.8530 -0.3157
   17MOL   C243 9555   7.095   4.363   4.002 -0.6792  0.3373 -0.0463
   17MOL   O244 9556   7.130   4.299   3.886 -0.3875 -0.9427 -0.1175
   17MOL   C245 9557   7.057   4.511   3.971 -0.2042  0.1758 -1.1869
   17MOL   O246 9558   6.967   4.561   4.064 -0.5444 -0.0703 -0.0062
   17MOL   H247 9559   0.180   3.999   4.048 -1.6969  1.3897  1.6540
   17MOL   H248 9560   0.187   3.822   4.080  0.2516  0.0643  0.2641
   17MOL   H249 9561   7.639   3.857   4.180 -1.0257 -0.4205 -1.2883
   17MOL   H250 9562   7.666   3.941   3.910 -2.2834  0.1164 -1.1115
   17MOL   H251 9563   7.677   4.101   4.228 -1.3288  0.9069  0.7333
   17MOL   H252 9564   7.682   4.139   4.063  0.9399  1.4365  2.6413
   17MOL   H253 9565   7.466   4.264   4.065 -3.0166 -0.1342 -0.3284
   17MOL   H254 9566   7.552   4.282   4.214 -0.6484  0.4083  1.8178
   17MOL   H255 9567   7.341   4.357   4.284 -0.8899  1.0494 -2.1086
   17MOL   H256 9568   7.339   4.191   4.337  4.9790 -1.0751 -0.3602
   17MOL   H257 9569   7.245   4.160   4.088  1.4574 -0.5499  0.0493
   17MOL   H258 9570   7.140   4.204   4.215  0.8359 -2.9118 -0.5283
   17MOL   H259 9571   7.004   4.314   4.036 -0.7194  0.7977  0.5185
   17MOL   H260 9572   7.187   4.355   3.837 -1.1827  0.8149  0.9310
   17MOL   H261 9573   7.150   4.569   3.967 -0.9955  1.5587 -0.1102
   17MOL   H262 9574   7.001   4.505   3.878 -2.7686  1.1631  0.2486
   17MOL   C263 9575   6.945   4.700   4.050  0.5461  0.4395  0.4594
   17MOL   C264 9576   6.853   4.740   3.932 -0.2295  0.0791 -0.7072
   17MOL   O265 9577   6.918   4.746   3.808 -0.1357 -0.4233  0.2085
   17MOL   C266 9578   6.739   4.637   3.899  0.6217  0.4333  0.0658
   17MOL   O267 9579   6.646   4.689   3.807 -0.3884 -0.0587 -0.3269
   17MOL   C268 9580   6.531   4.610   3.787  0.5995 -0.4221 -0.3647
   17MOL   C269 9581   6.429   4.701   3.719  0.5104  0.2029  0.0984
   17MOL   C270 9582   6.405   4.840   3.786 -0.3985  0.3646 -0.2153
   17MOL   O271 9583   6.294   4.915   3.729 -0.1739 -0.0511  0.5820
   17MOL   C272 9584   6.258   5.019   3.807  0.1357 -0.4626 -0.0720
   17MOL   O273 9585   6.361   5.116   3.800 -0.1517 -0.0238  0.0076
   17MOL   C274 9586   6.128   5.076   3.762 -0.3002 -0.2445  0.1593
   17MOL   O275 9587   6.020   4.985   3.766 -0.1212  0.2594 -0.1256
   17MOL   H276 9588   7.043   4.746   4.059  1.0289 -0.2433 -1.2275
   17MOL   H277 9589   6.880   4.730   4.133 -0.8950  1.8129 -1.1351
   17MOL   H278 9590   6.806   4.838   3.942  1.3432  0.7868 -0.1040
   17MOL   H279 9591   6.852   4.727   3.743 -0.3511  0.2487  0.2207
   17MOL   H280 9592   6.786   4.548   3.858 -0.7167  0.6947 -2.1171
   17MOL   H281 9593   6.693   4.618   3.996  0.5430 -1.2353 -0.2872
   17MOL   H282 9594   6.495   4.566   3.880  2.7997  0.8114  1.1311
   17MOL   H283 9595   6.544   4.525   3.720  0.9171 -0.7231  0.0783
   17MOL   H284 9596   6.338   4.642   3.715  0.1003  0.9375 -2.4630
   17MOL   H285 9597   6.474   4.714   3.620 -0.2515 -2.3260 -0.6077
   17MOL   H286 9598   6.380   4.816   3.889  1.9790  0.5025  0.4256
   17MOL   H287 9599   6.492   4.905   3.784 -2.1737  2.7900 -2.3999
   17MOL   H288 9600   6.259   4.991   3.913  2.3282 -3.1211 -0.7295
   17MOL   H289 9601   6.326   5.203   3.813 -0.7111 -0.0456 -1.2383
   17MOL   H290 9602   6.099   5.154   3.832  1.0183  0.9546 -0.6071
   17MOL   H291 9603   6.140   5.121   3.664 -1.4304 -0.1082  0.0815
   17MOL   C292 9604   5.897   5.039   3.718  0.2408  0.0297  0.2781
   17MOL   C293 9605   5.820   5.144   3.810 -0.4191 -0.0338  0.3074
   17MOL   O294 9606   5.855   5.285   3.797 -0.3236 -0.1802  0.2487
   17MOL   C295 9607   5.673   5.125   3.793 -0.1541 -0.0555  0.2826
   17MOL   O296 9608   5.594   5.219   3.870  0.2007 -0.1846  0.1912
   17MOL   C297 9609   5.451   5.216   3.863  0.0599  0.0169 -0.4595
   17MOL   C298 9610   5.395   5.299   3.977  0.4652 -0.4168 -0.9466
   17MOL   C299 9611   5.265   5.374   3.931 -0.2549  0.1582 -0.8912
   17MOL   O300 9612   5.282   5.477   3.826  0.2559  0.2962  0.2205
   17MOL   C301 9613   5.165   5.539   3.795  0.5849 -0.2295 -0.1525
   17MOL   O302 9614   5.123   5.623   3.904 -0.2823 -0.1099  0.0776
   17MOL   C303 9615   5.184   5.627   3.667 -0.4078  0.1756 -0.4229
   17MOL   O304 9616   5.157   5.548   3.552 -0.6212 -0.2505 -0.4979
   17MOL   H305 9617   5.899   5.086   3.620  0.8079  1.2157  0.8559
   17MOL   H306 9618   5.841   4.946   3.704  1.3275 -0.3972 -1.3880
   17MOL   H307 9619   5.839   5.113   3.913  0.0096  1.3894  0.6690
   17MOL   H308 9620   5.816   5.337   3.865 -0.5467  0.8430 -0.6431
   17MOL   H309 9621   5.646   5.133   3.688  1.0889  0.0494 -0.0380
   17MOL   H310 9622   5.634   5.028   3.825 -1.6842 -0.2653 -2.1113
   17MOL   H311 9623   5.420   5.112   3.877 -2.5840  0.8938  0.5292
   17MOL   H312 9624   5.417   5.237   3.762 -1.3453 -1.5927 -0.3489
   17MOL   H313 9625   5.469   5.373   4.007 -0.4775  0.0491  0.2869
   17MOL   H314 9626   5.373   5.239   4.065  2.0272  1.6056  0.8591
   17MOL   H315 9627   5.184   5.312   3.891  0.6730  1.2196 -4.6119
   17MOL   H316 9628   5.212   5.415   4.017  2.0158  1.4255 -0.0731
   17MOL   H317 9629   5.087   5.466   3.774  0.5239 -0.3927  0.6212
   17MOL   H318 9630   5.192   5.686   3.921 -0.2003  0.0699 -0.8488
   17MOL   H319 9631   5.279   5.679   3.669 -1.1909  1.6133  0.2768
   17MOL   H320 9632   5.104   5.700   3.665 -1.8085 -1.3392 -1.0389
   17MOL   C321 9633   5.142   5.632   3.439 -0.6153 -0.0965  0.0754
   17MOL   C322 9634   5.279   5.682   3.387  0.2730  0.0212  0.0253
   17MOL   O323 9635   5.346   5.571   3.342  0.0839  0.0111 -0.0093
   17MOL   C324 9636   5.261   5.765   3.256 -0.2842  0.7648  0.4553
   17MOL   O325 9637   5.250   5.907   3.284  0.8534  0.0569 -0.5720
   17MOL   C326 9638   5.224   5.982   3.173  0.4101  0.4756 -0.1361
   17MOL   C327 9639   5.230   6.137   3.201  0.3948  0.3579  0.0678
   17MOL   C328 9640   5.168   6.229   3.091 -0.1793 -0.2005 -0.0532
   17MOL   O329 9641   5.159   6.361   3.142 -0.1206  0.0048  0.2167
   17MOL   C330 9642   5.117   6.460   3.054 -0.5914 -0.4335 -0.2965
   17MOL   O331 9643   4.983   6.442   3.000  0.3876 -0.3934 -0.1603
   17MOL   C332 9644   5.126   6.596   3.125 -0.3348  0.5451  0.1962
   17MOL   O333 9645   5.214   6.680   3.050  0.0048  0.2290 -0.0141
   17MOL   H334 9646   5.085   5.723   3.453  0.1415  0.5433 -0.9101
   17MOL   H335 9647   5.097   5.574   3.358  3.1200 -0.3154 -1.9790
   17MOL   H336 9648   5.345   5.739   3.451 -1.5784  2.2264  0.0486
   17MOL   H337 9649   5.321   5.497   3.395  1.5122 -0.9131 -0.6195
   17MOL   H338 9650   5.174   5.734   3.198 -0.4962  2.6691 -0.2700
   17MOL   H339 9651   5.359   5.753   3.210  1.3425  3.1064  3.1322
   17MOL   H340 9652   5.123   5.955   3.142  0.4786  1.0252 -0.8472
   17MOL   H341 9653   5.289   5.962   3.087 -1.0840 -0.5707 -1.0348
   17MOL   H342 9654   5.186   6.149   3.300 -1.6581 -0.5814 -0.6984
   17MOL   H343 9655   5.333   6.170   3.215  0.4780 -0.6360  2.0288
   17MOL   H344 9656   5.238   6.228   3.008  0.8831  1.4607  0.8027
   17MOL   H345 9657   5.072   6.183   3.066 -0.8515 -0.9751  3.5821
   17MOL   H346 9658   5.181   6.465   2.967  2.0539 -1.7320  1.5080
   17MOL   H347 9659   4.919   6.450   3.070  2.3798  0.3965  1.6219
   17MOL   H348 9660   5.033   6.652   3.138 -0.3751  0.2600  1.1632
   17MOL   H349 9661   5.175   6.585   3.222  0.4510 -0.4301 -0.3028
   17MOL   C350 9662   5.202   6.820   3.085  0.2593 -0.0105  0.2543
   17MOL   C351 9663   5.318   6.892   3.012 -0.2161 -0.6203 -0.4748
   17MOL   O352 9664   5.267   6.890   2.881  0.0630  0.2570 -0.1065
   17MOL   C353 9665   5.339   7.033   3.060  0.4071 -0.6714 -0.3447
   17MOL   O354 9666   5.453   7.102   3.011  0.3444  0.0303  0.4763
   17MOL   C355 9667   5.469   7.229   3.069 -0.0305 -0.2490  0.4317
   17MOL   C356 9668   5.579   7.305   3.003  0.3534 -0.5723  0.2065
   17MOL   C357 9669   5.587   7.448   3.049  0.5092  0.0832  0.3455
   17MOL   O358 9670   5.700   7.507   2.991 -0.2129 -0.5247  0.1473
   17MOL   C359 9671   5.713   7.638   3.008  0.6688 -0.5275 -0.0773
   17MOL   O360 9672   5.739   7.678   3.142 -0.4406 -0.2165  0.3770
   17MOL   C361 9673   5.820   7.689   2.912  0.6165 -0.0217  0.1113
   17MOL   O362 9674   5.758   0.082   2.820  0.1857 -0.1859 -0.2009
   17MOL   H363 9675   5.213   6.836   3.193  0.1357  0.2575  0.2279
   17MOL   H364 9676   5.099   6.844   3.061 -0.8299 -2.6421  2.0279
   17MOL   H365 9677   5.405   6.829   3.029  0.7062  0.8702  0.4600
   17MOL   H366 9678   5.278   6.802   2.849 -2.1657 -0.2206  0.3347
   17MOL   H367 9679   5.248   7.090   3.042  0.8287  0.4144  0.8666
   17MOL   H368 9680   5.347   7.021   3.168  0.3664  0.6063 -0.1896
   17MOL   H369 9681   5.489   7.226   3.176 -2.8307  0.5957  1.0265
   17MOL   H370 9682   5.378   7.284   3.047 -0.2727 -0.2058  1.5156
   17MOL   H371 9683   5.573   7.305   2.894 -1.6008 -1.4835  0.3027
   17MOL   H372 9684   5.675   7.257   3.023  0.4101 -2.8332 -4.6146
   17MOL   H373 9685   5.492   7.494   3.023  0.3652  0.4804  1.5237
   17MOL   H374 9686   5.596   7.440   3.158  1.0561 -0.6221  0.2512
   17MOL   H375 9687   5.619   7.684   2.979  0.8267  0.3401  0.7618
   17MOL   H376 9688   5.823   7.644   3.168  0.3762  1.9901  0.7109
   17MOL   H377 9689   5.906   0.042   2.959  1.4927 -0.0993 -1.3599
   17MOL   H378 9690   5.860   7.599   2.865 -2.9158 -0.0007 -3.2493
   17MOL   C379 9691   5.839   0.111   2.713 -0.6076 -0.9171  0.1559
   17MOL   C380 9692   5.770   0.202   2.606  0.5267 -0.1395  0.6411
   17MOL   O381 9693   5.798   0.338   2.650 -0.1040 -0.5080  0.1795
   17MOL   C382 9694   5.808   0.175   2.452  0.4457 -0.7315  0.1006
   17MOL   O383 9695   5.689   0.189   2.372 -0.5620  0.3362  0.3619
   17MOL   C384 9696   5.712   0.190   2.230 -0.1237  0.3427 -0.2936
   17MOL   C385 9697   5.595   0.262   2.156  0.0252 -0.1727  0.3630
   17MOL   C386 9698   5.628   0.271   2.006  0.0500 -0.6347  0.3827
   17MOL   O387 9699   5.510   0.312   1.933 -0.1949 -0.4767 -0.0258
   17MOL   C388 9700   5.542   0.348   1.797  0.4628  0.2465 -0.8082
   17MOL   O389 9701   5.570   0.234   1.721  0.0155 -0.5782 -0.6731
   17MOL   C390 9702   5.416   0.407   1.734  0.3639 -0.1309  0.0765
   17MOL   O391 9703   5.383   0.540   1.759 -0.2938  0.1148  0.2252
   17MOL   H392 9704   5.866   0.013   2.674 -0.0203 -0.6059 -0.2196
   17MOL   H393 9705   5.925   0.159   2.758  0.2139 -1.2322 -1.0449
   17MOL   H394 9706   5.662   0.190   2.614  0.3019  1.0628 -0.4829
   17MOL   H395 9707   5.792   0.330   2.744 -0.6422 -0.2037  0.1719
   17MOL   H396 9708   5.883   0.249   2.423  2.5867 -2.6358  0.6462
   17MOL   H397 9709   5.853   0.076   2.444  1.3861 -0.3549  0.6634
   17MOL   H398 9710   5.717   0.088   2.194  0.4440  0.6230 -1.0184
   17MOL   H399 9711   5.805   0.243   2.208 -1.0184  1.1891 -2.1482
   17MOL   H400 9712   5.591   0.367   2.187  0.3932  0.9014 -2.9978
   17MOL   H401 9713   5.498   0.216   2.175 -0.6154 -0.0681 -2.4592
   17MOL   H402 9714   5.704   0.349   2.007 -1.4570  0.8775 -1.3594
   17MOL   H403 9715   5.676   0.174   1.987 -0.4062 -1.1689  1.8158
   17MOL   H404 9716   5.627   0.416   1.803 -0.1396  1.0246 -0.9779
   17MOL   H405 9717   5.646   0.193   1.760  0.8411 -0.4645 -2.1283
   17MOL   H406 9718   5.426   0.394   1.626 -0.8037  2.3905 -0.3776
   17MOL   H407 9719   5.338   0.336   1.763  0.9177  0.6586  3.7440
   17MOL   C408 9720   5.357   0.565   1.894  0.4725 -0.0702 -0.4999
   17MOL   C409 9721   5.297   0.705   1.888  0.5391 -0.4149 -0.0566
   17MOL   O410 9722   5.411   0.789   1.894  0.2591  0.3923  0.3590
   17MOL   C411 9723   5.204   0.723   2.016  0.5739  0.0128  0.3239
   17MOL   O412 9724   5.106   0.832   2.004  0.4241  0.2034  0.0716
   17MOL   C413 9725   5.035   0.832   1.875  0.5108  0.2505 -0.6162
   17MOL   C414 9726   4.946   0.956   1.883 -0.0315 -0.7491 -0.2008
   17MOL   C415 9727   4.874   0.971   1.745 -0.2203  0.1942  0.4042
   17MOL   O416 9728   4.808   1.097   1.740 -0.4202  0.1999  0.2633
   17MOL   C417 9729   4.690   1.101   1.817 -0.3976  0.6705 -0.0943
   17MOL   O418 9730   4.588   1.057   1.730 -0.0109  0.2517 -0.4183
   17MOL   C419 9731   4.661   1.254   1.845  0.4553 -0.8767  0.0425
   17MOL   O420 9732   4.768   1.297   1.934  0.2561  0.6974 -0.3760
   17MOL   H421 9733   5.448   0.575   1.952 -0.3143  0.2747  0.6816
   17MOL   H422 9734   5.281   0.499   1.936 -1.5055  2.0011 -0.6782
   17MOL   H423 9735   5.243   0.705   1.794  0.8591  0.3454 -0.2418
   17MOL   H424 9736   5.446   0.788   1.806 -2.8713 -2.9715 -0.9739
   17MOL   H425 9737   5.148   0.630   2.024 -1.9569  1.4166 -0.5117
   17MOL   H426 9738   5.268   0.730   2.104  0.6893 -1.5972  0.3728
   17MOL   H427 9739   5.097   0.852   1.788 -1.6953  2.5336 -1.7449
   17MOL   H428 9740   4.970   0.746   1.866  0.3120  0.5843 -2.4341
   17MOL   H429 9741   5.007   1.044   1.904 -0.5625 -0.4168 -0.0484
   17MOL   H430 9742   4.869   0.949   1.960 -0.8919 -1.0285 -1.0654
   17MOL   H431 9743   4.945   0.977   1.663 -1.6067 -0.1544 -0.8384
   17MOL   H432 9744   4.798   0.895   1.729  0.0832 -0.5643  2.4389
   17MOL   H433 9745   4.692   1.037   1.905  1.4296 -2.6320 -2.4216
   17MOL   H434 9746   4.585   1.120   1.660 -0.6824 -0.2460 -0.8480
   17MOL   H435 9747   4.655   1.313   1.753 -0.2717 -0.3545  0.4224
   17MOL   H436 9748   4.563   1.264   1.890  0.4421 -0.5428 -0.0555
   17MOL   C437 9749   4.756   1.439   1.945 -0.1693  0.5285 -0.1463
   17MOL   C438 9750   4.847   1.481   2.065  0.3704  0.6182  0.3134
   17MOL   O439 9751   4.790   1.603   2.108  0.6033 -0.4069 -0.4624
   17MOL   C440 9752   4.993   1.502   2.038 -0.0655 -0.2147  0.5219
   17MOL   O441 9753   5.072   1.496   2.158  0.0134  0.2047 -0.4021
   17MOL   C442 9754   5.207   1.475   2.137 -0.6783 -0.1873 -0.1546
   17MOL   C443 9755   5.278   1.587   2.060  0.1494 -0.6115  0.6806
   17MOL   C444 9756   5.426   1.559   2.049  0.1766  0.4435  0.2181
   17MOL   O445 9757   5.459   1.439   1.978  1.0291  0.2894 -0.3120
   17MOL   C446 9758   5.591   1.399   1.971 -0.4448  0.0561 -0.4027
   17MOL   O447 9759   5.661   1.491   1.897 -0.7036 -0.3717  0.7819
   17MOL   C448 9760   5.584   1.257   1.904  0.2128  0.9147  0.0986
   17MOL   O449 9761   5.594   1.155   1.999 -0.1464 -0.0770 -0.2715
   17MOL   H450 9762   4.788   1.492   1.856 -0.8221  0.2602 -0.5434
   17MOL   H451 9763   4.652   1.469   1.958 -0.2957 -0.4134  1.0814
   17MOL   H452 9764   4.833   1.401   2.138  3.2379  0.2575  0.5438
   17MOL   H453 9765   4.797   1.615   2.202 -1.8212 -1.9732 -0.0469
   17MOL   H454 9766   5.023   1.414   1.981  0.8332 -0.6361  1.6270
   17MOL   H455 9767   5.002   1.591   1.976 -1.0406  0.9184  1.9900
   17MOL   H456 9768   5.215   1.380   2.085 -1.0716 -1.1373  1.4736
   17MOL   H457 9769   5.257   1.453   2.232 -1.0853 -0.5080 -0.0185
   17MOL   H458 9770   5.264   1.685   2.105  0.9023 -0.6520  1.0164
   17MOL   H459 9771   5.231   1.591   1.962  1.1778  1.0494  0.2330
   17MOL   H460 9772   5.487   1.638   2.006 -1.6210  0.5368 -2.2642
   17MOL   H461 9773   5.450   1.545   2.155  0.5269 -1.0231 -0.0345
   17MOL   H462 9774   5.634   1.392   2.070  0.5071  0.8316 -0.7560
   17MOL   H463 9775   5.622   1.478   1.812  2.3854  0.8449 -0.9157
   17MOL   H464 9776   5.490   1.244   1.850  0.3474 -0.1281  0.1094
   17MOL   H465 9777   5.662   1.239   1.830 -0.3971  0.8729 -0.5403
   17MOL   C466 9778   5.468   1.151   2.066  0.2567 -0.2754 -0.2562
   17MOL   C467 9779   5.488   1.051   2.182 -0.4230 -0.1070 -0.9368
   17MOL   O468 9780   5.547   1.115   2.283  0.8465  0.4038 -0.7305
   17MOL   C469 9781   5.352   1.004   2.240  0.1203 -0.4236 -0.0440
   17MOL   O470 9782   5.286   1.119   2.268  0.3534 -0.1901  0.6727
   17MOL   C471 9783   5.147   1.095   2.283  0.2558 -0.1246  0.0284
   17MOL   C472 9784   5.074   1.218   2.323  0.4544 -0.4935  0.6839
   17MOL   C473 9785   4.928   1.188   2.377  0.7817  0.2839  0.3412
   17MOL   O474 9786   4.934   1.097   2.486 -0.0768 -0.2649 -0.6793
   17MOL   C475 9787   4.809   1.059   2.542 -0.1862 -0.2026 -0.1686
   17MOL   O476 9788   4.742   1.173   2.600 -0.3248 -0.2803 -0.2082
   17MOL   C477 9789   4.822   0.964   2.661  0.3266  0.0544 -0.0763
   17MOL   O478 9790   4.871   1.023   2.782 -0.1704 -0.9028  0.0382
   17MOL   H479 9791   5.382   1.121   2.008 -0.5902  0.1320  0.7766
   17MOL   H480 9792   5.444   1.245   2.116 -1.2585 -0.8682  0.1491
   17MOL   H481 9793   5.561   0.982   2.140  1.4696  1.2944 -0.0782
   17MOL   H482 9794   5.481   1.172   2.320  1.8867  2.3177 -1.7671
   17MOL   H483 9795   5.305   0.952   2.157 -0.7801  1.0501 -0.4607
   17MOL   H484 9796   5.366   0.934   2.323 -1.0332 -0.0287  0.4886
   17MOL   H485 9797   5.137   1.015   2.357  0.3001  0.9433  1.2038
   17MOL   H486 9798   5.114   1.058   2.186  1.6993 -1.5920  0.0574
   17MOL   H487 9799   5.066   1.283   2.236  0.4189 -1.7103 -0.2519
   17MOL   H488 9800   5.137   1.270   2.395  3.2254 -0.1763 -1.8254
   17MOL   H489 9801   4.882   1.282   2.406  0.7245  0.0615  0.9667
   17MOL   H490 9802   4.867   1.144   2.298 -0.4887  2.1716  0.2269
   17MOL   H491 9803   4.751   1.014   2.462 -1.2506  2.4892 -0.9842
   17MOL   H492 9804   4.772   1.175   2.689  0.6426 -2.8954 -0.4335
   17MOL   H493 9805   4.729   0.919   2.696  1.0765 -0.9518  0.6640
   17MOL   H494 9806   4.890   0.884   2.631 -1.5428 -1.5776 -0.0657
   17MOL   C495 9807   4.921   0.927   2.873  0.3424  0.7819  0.3844
   17MOL   C496 9808   4.983   1.001   2.994  0.4763 -0.8681 -0.2045
   17MOL   O497 9809   4.872   1.074   3.043 -0.2568 -0.2565 -0.2958
   17MOL   C498 9810   5.052   0.908   3.093  0.0028  0.0814 -0.8977
   17MOL   O499 9811   5.179   0.873   3.037 -0.3858 -0.1065  0.0732
   17MOL   C500 9812   5.255   0.802   3.132 -0.2826 -1.2471 -0.3821
   17MOL   C501 9813   5.230   0.652   3.131  1.0008  0.0247 -0.0709
   17MOL   C502 9814   5.318   0.580   3.231 -0.1376 -0.3091  0.2904
   17MOL   O503 9815   5.307   0.438   3.218  0.0752 -0.3479 -0.6775
   17MOL   C504 9816   5.347   0.388   3.338 -0.0559  0.4227 -0.1610
   17MOL   O505 9817   5.480   0.419   3.378 -0.1877 -0.2381 -0.0277
   17MOL   C506 9818   5.344   0.234   3.321 -0.3871 -0.8119  0.0638
   17MOL   O507 9819   5.363   0.169   3.449  0.1135 -0.0186 -0.1671
   17MOL   H508 9820   5.010   0.886   2.824  1.2232  2.1614  0.7717
   17MOL   H509 9821   4.846   0.855   2.905  0.7305  0.0027 -0.4293
   17MOL   H510 9822   5.057   1.072   2.956  0.0730 -0.5722 -0.4269
   17MOL   H511 9823   4.834   1.111   2.965 -0.2330  0.6739  0.1244
   17MOL   H512 9824   5.065   0.946   3.194 -2.3722 -0.2934 -0.4127
   17MOL   H513 9825   5.000   0.813   3.104  1.3929 -0.6002 -0.0577
   17MOL   H514 9826   5.248   0.838   3.235 -1.5333  0.3780 -0.9958
   17MOL   H515 9827   5.360   0.826   3.112 -0.0090 -2.4299 -0.3481
   17MOL   H516 9828   5.260   0.615   3.033 -1.0756  0.0830 -0.7483
   17MOL   H517 9829   5.131   0.611   3.147  1.7821 -1.4135  1.2526
   17MOL   H518 9830   5.424   0.606   3.229 -0.3464  0.5269 -0.2645
   17MOL   H519 9831   5.284   0.616   3.329 -0.8329 -2.3195  0.8101
   17MOL   H520 9832   5.285   0.415   3.423 -1.5541  1.3876 -1.5144
   17MOL   H521 9833   5.545   0.376   3.325 -0.1924 -0.3276  0.0397
   17MOL   H522 9834   5.248   0.213   3.274  0.7170  0.0961 -2.7232
   17MOL   H523 9835   5.428   0.210   3.256 -2.6391 -2.1574 -2.4638
   17MOL   C524 9836   5.375   0.029   3.426  0.3944 -0.6811  0.6339
   17MOL   C525 9837   5.379   7.655   3.558 -0.3589 -0.7826  0.2410
   17MOL   O526 9838   5.487   0.034   3.627 -0.0812  0.3522 -0.5643
   17MOL   C527 9839   5.393   7.501   3.545 -0.6491 -0.1182  0.4991
   17MOL   O528 9840   5.330   7.425   3.644 -0.1157 -0.9928 -0.0005
   17MOL   C529 9841   5.404   7.436   3.765 -0.2376  0.9111 -0.1283
   17MOL   C530 9842   5.329   7.354   3.873 -0.0883  0.1188 -0.2186
   17MOL   C531 9843   5.216   7.438   3.932 -0.7743  0.2138 -0.0945
   17MOL   O532 9844   5.140   7.349   4.010  0.3700  0.1505  0.6917
   17MOL   C533 9845   5.049   7.406   4.107  0.4469  0.2819  0.5285
   17MOL   O534 9846   4.917   7.409   4.056  0.6897 -0.1272 -0.0112
   17MOL   C535 9847   5.056   7.320   4.232 -0.4911 -0.4874 -0.0851
   17MOL   O536 9848   5.138   7.379   4.331 -0.2437 -0.0841 -0.1457
   17MOL   H537 9849   5.469   0.015   3.372  0.1892 -0.2011  0.1355
   17MOL   H538 9850   5.288   7.690   3.369  0.7242  0.6770 -0.7185
   17MOL   H539 9851   5.290   7.674   3.618 -1.0596  0.6880 -1.2243
   17MOL   H540 9852   5.489   0.119   3.587  0.2588 -0.8630 -3.1963
   17MOL   H541 9853   5.356   7.474   3.446  0.9712  3.0764 -1.0620
   17MOL   H542 9854   5.499   7.477   3.542 -0.4143  0.8887  0.5156
   17MOL   H543 9855   5.416   7.535   3.807  0.5909  0.7184  0.0944
   17MOL   H544 9856   5.504   7.394   3.753 -1.3165 -1.7208 -0.3785
   17MOL   H545 9857   5.399   7.338   3.955  0.9160 -0.2979 -1.1380
   17MOL   H546 9858   5.290   7.265   3.824  0.8616 -0.7134  0.5228
   17MOL   H547 9859   5.243   7.524   3.994 -2.3226  0.9355 -0.3989
   17MOL   H548 9860   5.161   7.479   3.847  0.6682 -0.4679 -1.3752
   17MOL   H549 9861   5.077   7.511   4.118  0.0916  0.4664 -0.2405
   17MOL   H550 9862   4.892   7.319   4.038 -1.4247  0.5831 -0.8749
   17MOL   H551 9863   4.956   7.305   4.273  0.2001 -1.6421  1.2269
   17MOL   H552 9864   5.080   7.219   4.198 -2.0402 -0.7819 -0.3308
   17MOL   C553 9865   5.107   7.320   4.456  0.2541 -0.4092 -0.2336
   17MOL   C554 9866   5.213   7.364   4.561 -0.1310 -0.0905  0.5708
   17MOL   O555 9867   5.338   7.311   4.521  0.3818  0.4843  0.1683
   17MOL   C556 9868   5.166   7.311   4.693  0.7733 -0.4766 -0.3808
   17MOL   O557 9869   5.229   7.396   4.792 -0.0347 -0.1309 -0.0318
   17MOL   C558 9870   5.214   7.357   4.938 -0.0291  0.0203  0.1521
   17MOL   C559 9871   5.289   7.473   5.003  0.2331 -0.1920 -0.8486
   17MOL   C560 9872   5.225   7.612   4.990 -0.2102 -1.1009 -0.2462
   17MOL   O561 9873   5.305   0.015   5.061  0.4458 -0.7473 -0.0188
   17MOL   C562 9874   5.252   0.139   5.045  0.1436  0.0603 -0.2318
   17MOL   O563 9875   5.137   0.158   5.120 -0.1074 -0.1983  0.4452
   17MOL   C564 9876   5.361   0.236   5.086 -0.1220  0.7837  0.5942
   17MOL   O565 9877   5.364   0.234   5.225 -0.0293 -0.4414  0.0932
   17MOL   H566 9878   5.099   7.211   4.450 -2.6024 -0.1573 -1.6540
   17MOL   H567 9879   5.008   7.350   4.488 -0.2130 -0.7872 -1.3187
   17MOL   H568 9880   5.210   7.473   4.557 -2.8979 -0.1378  0.1041
   17MOL   H569 9881   5.405   7.377   4.533  2.1787 -0.9709 -1.6446
   17MOL   H570 9882   5.058   7.316   4.705  0.9391  0.0369  0.9302
   17MOL   H571 9883   5.187   7.207   4.715  0.0580 -0.5154  0.1105
   17MOL   H572 9884   5.107   7.357   4.957  0.0355  0.2047  0.5244
   17MOL   H573 9885   5.253   7.258   4.961 -1.5615 -0.4714  0.6978
   17MOL   H574 9886   5.387   7.482   4.956 -0.3129  0.5318 -1.8618
   17MOL   H575 9887   5.296   7.460   5.111 -0.1723  1.2692 -0.6257
   17MOL   H576 9888   5.216   7.645   4.886 -0.9122  1.3299  0.5490
   17MOL   H577 9889   5.135   7.605   5.050 -1.2767 -0.8796 -1.7833
   17MOL   H578 9890   5.232   0.167   4.942 -0.1465 -0.7537 -0.4052
   17MOL   H579 9891   5.167   0.221   5.184  0.3097 -0.8770  0.9258
   17MOL   H580 9892   5.460   0.216   5.046 -0.1621  1.9756 -0.1265
   17MOL   H581 9893   5.331   0.338   5.060 -0.7988  0.6937  0.9958
   17MOL   H582 9894   5.402   0.150   5.245 -0.6265 -0.9808 -0.9555
   18MOL     C1 9895   7.694   5.461   2.591  0.2083  0.1129  0.3912
   18MOL     C2 9896   7.666   5.323   2.519  0.5077 -0.4826 -0.5690
   18MOL     O3 9897   7.612   5.344   2.390  0.3644  0.6401 -0.1185
   18MOL     C4 9898   0.092   5.232   2.511 -0.0204 -0.2647  0.6459
   18MOL     O5 9899   0.137   5.199   2.643 -0.0373 -0.3671 -0.2577
   18MOL     C6 9900   0.056   5.112   2.717  0.4000  0.1170 -0.4455
   18MOL     C7 9901   0.144   5.023   2.803  0.2054  0.2098  0.6097
   18MOL     C8 9902   0.078   4.902   2.868  0.1601 -0.4143  0.0763
   18MOL     O9 9903   0.156   4.864   2.983 -0.2957 -0.1153  0.1948
   18MOL    C10 9904   0.221   4.743   2.969  0.1365 -0.1587  0.8294
   18MOL    O11 9905   0.137   4.630   2.967 -0.1878 -0.1563  0.2339
   18MOL    C12 9906   0.315   4.734   3.089  0.5042  0.4249  0.1544
   18MOL    O13 9907   0.421   4.826   3.076  0.4260 -0.1004  0.3066
   18MOL    H14 9908   0.033   5.452   2.695  1.8716 -0.1480 -0.1601
   18MOL    H15 9909   7.602   5.519   2.589  0.6348  0.7685 -0.3305
   18MOL    H16 9910   7.590   5.269   2.576  2.1013 -2.2283 -0.0480
   18MOL    H17 9911   7.676   5.373   2.327  0.6776 -1.9326 -1.0205
   18MOL    H18 9912   0.066   5.145   2.452 -0.1103 -1.1270  1.9277
   18MOL    H19 9913   0.178   5.287   2.473  0.4274  0.0722  2.0922
   18MOL    H20 9914   7.678   5.048   2.666  1.1443 -0.2536 -1.0409
   18MOL    H21 9915   7.694   5.187   2.772 -2.9606 -1.2608 -1.8469
   18MOL    H22 9916   0.177   5.077   2.892  0.7067  0.8879  0.0073
   18MOL    H23 9917   0.229   4.988   2.745 -0.3230  0.6747 -0.4692
   18MOL    H24 9918   7.675   4.935   2.903  0.4349 -1.0476  1.4590
   18MOL    H25 9919   0.061   4.824   2.794 -0.3645  0.5018 -0.7731
   18MOL    H26 9920   0.273   4.738   2.873 -0.4134 -0.4930  0.5478
   18MOL    H27 9921   0.113   4.616   3.058 -2.5364 -1.5913 -0.5462
   18MOL    H28 9922   0.258   4.749   3.181  0.7402 -2.6009  0.8481
   18MOL    H29 9923   0.350   4.632   3.101  0.9025  0.6934  1.2951
   18MOL    H30 9924   0.063   5.527   2.532  0.8756 -1.8319 -1.0879
   18MOL    C31 9925   0.494   4.838   3.196 -0.0007  0.1159 -0.3245
   18MOL    C32 9926   0.595   4.725   3.212  0.8665 -0.0255 -0.3672
   18MOL    O33 9927   0.562   4.638   3.319  0.3089 -0.0345 -0.4241
   18MOL    C34 9928   0.744   4.770   3.239 -0.1399 -0.1876  0.1470
   18MOL    O35 9929   0.833   4.654   3.242  0.7408  0.1039 -0.3924
   18MOL    C36 9930   0.968   4.688   3.230 -0.3027 -0.4013 -0.0590
   18MOL    C37 9931   1.047   4.553   3.218 -0.4779 -0.0970 -0.5311
   18MOL    C38 9932   1.190   4.577   3.189  0.8542 -0.0762 -0.1183
   18MOL    O39 9933   1.211   4.658   3.074  0.3485  0.7032  0.2763
   18MOL    C40 9934   1.342   4.690   3.044  0.5391  0.0326  0.0869
   18MOL    O41 9935   1.408   4.753   3.151 -0.3897 -0.4201 -0.4061
   18MOL    C42 9936   1.356   4.774   2.909  0.3997  0.1207  0.2323
   18MOL    O43 9937   1.292   4.897   2.926  0.1947  0.6816  0.5733
   18MOL    H44 9938   0.546   4.933   3.186  1.6906 -0.8965 -1.6694
   18MOL    H45 9939   0.437   4.848   3.288 -1.8114 -1.8789 -1.1868
   18MOL    H46 9940   0.597   4.665   3.120  0.1168  0.0682 -0.4425
   18MOL    H47 9941   0.624   4.567   3.328  0.8331  0.5579  0.7024
   18MOL    H48 9942   0.773   4.837   3.159 -0.9166 -2.9215 -2.5221
   18MOL    H49 9943   0.752   4.817   3.337 -1.7436 -0.4522  0.4251
   18MOL    H50 9944   1.019   4.749   3.304  0.4979  0.9998 -1.7238
   18MOL    H51 9945   0.977   4.752   3.142  1.3395  1.8398  1.6657
   18MOL    H52 9946   0.999   4.489   3.144 -1.7833  0.1290  0.0990
   18MOL    H53 9947   1.038   4.506   3.316 -0.8791  0.0556 -0.4945
   18MOL    H54 9948   1.225   4.633   3.276  0.7022  0.9530 -0.7130
   18MOL    H55 9949   1.234   4.478   3.185  1.2159  0.0169  1.2178
   18MOL    H56 9950   1.394   4.598   3.022  2.9519  0.8702  2.0322
   18MOL    H57 9951   1.417   4.843   3.126 -1.7453 -0.2328 -0.2457
   18MOL    H58 9952   1.461   4.775   2.882  0.1077  1.0121 -0.9443
   18MOL    H59 9953   1.305   4.720   2.829 -0.8081  3.1974 -1.1719
   18MOL    C60 9954   1.356   5.000   2.848 -0.1328 -0.1065  0.8765
   18MOL    C61 9955   1.348   4.987   2.693  1.0633  0.2699 -0.0496
   18MOL    O62 9956   1.406   5.097   2.631 -0.2798  0.7872 -0.4058
   18MOL    C63 9957   1.204   4.972   2.639 -1.2110  0.2087  0.4268
   18MOL    O64 9958   1.219   4.959   2.494  0.1944  0.3933  0.2996
   18MOL    C65 9959   1.104   4.993   2.417 -0.6881 -0.4003  0.6031
   18MOL    C66 9960   1.145   4.929   2.282  0.5239 -0.0761 -0.5340
   18MOL    C67 9961   1.154   4.778   2.275  0.4086  0.2484 -0.0777
   18MOL    O68 9962   1.162   4.733   2.134  0.2130 -0.1151  0.0340
   18MOL    C69 9963   1.159   4.591   2.119  0.0021  0.1559  0.0567
   18MOL    O70 9964   1.032   4.535   2.150  0.1857  0.1341 -0.5876
   18MOL    C71 9965   1.199   4.553   1.980  0.0401  0.2770  0.7719
   18MOL    O72 9966   1.336   4.592   1.961  0.0180 -0.3551 -0.3325
   18MOL    H73 9967   1.462   5.001   2.870 -0.4157 -1.8515  2.3941
   18MOL    H74 9968   1.310   5.096   2.872 -0.8618 -0.4795  0.9769
   18MOL    H75 9969   1.404   4.902   2.651  1.1209 -0.4286  1.4256
   18MOL    H76 9970   1.397   5.089   2.538  2.7846  1.3308 -0.7808
   18MOL    H77 9971   1.158   4.881   2.679 -1.3007 -0.1840 -0.5546
   18MOL    H78 9972   1.133   5.052   2.661 -1.4498  0.7625 -2.1858
   18MOL    H79 9973   1.100   5.102   2.410 -0.0208 -0.3895  0.3045
   18MOL    H80 9974   1.008   4.964   2.460 -0.9657  0.0607  0.3003
   18MOL    H81 9975   1.239   4.975   2.253  0.2653 -0.9693 -2.8639
   18MOL    H82 9976   1.070   4.946   2.205  1.8109  1.6631 -1.4036
   18MOL    H83 9977   1.081   4.726   2.336 -1.3468  1.1233 -1.3950
   18MOL    H84 9978   1.252   4.754   2.316  1.1335  0.4010 -1.6594
   18MOL    H85 9979   1.235   4.552   2.187 -0.9081 -2.1394 -0.1900
   18MOL    H86 9980   1.049   4.443   2.165  0.3910  0.2673 -0.0074
   18MOL    H87 9981   1.177   4.447   1.967 -0.9231  0.6340 -0.5972
   18MOL    H88 9982   1.121   4.601   1.921  0.0220 -1.1988 -0.4257
   18MOL    C89 9983   1.386   4.539   1.840 -0.6980 -0.1895  0.1660
   18MOL    C90 9984   1.530   4.591   1.810 -0.2460  0.0233  0.2895
   18MOL    O91 9985   1.616   4.491   1.862  0.7777  0.1011 -0.2444
   18MOL    C92 9986   1.559   4.588   1.657 -0.7376  0.0690 -0.4759
   18MOL    O93 9987   1.693   4.637   1.636  1.4859  0.0791  0.6098
   18MOL    C94 9988   1.709   4.779   1.634 -0.3054 -0.4717 -0.1618
   18MOL    C95 9989   1.849   4.819   1.626 -0.4221  0.0503  0.2296
   18MOL    C96 9990   1.930   4.790   1.755  0.5333 -0.4641  0.4127
   18MOL    O97 9991   2.044   4.871   1.752 -0.0050 -0.1136  0.1279
   18MOL    C98 9992   2.139   4.839   1.844  0.2750  0.0100  0.1513
   18MOL    O99 9993   2.205   4.722   1.803 -0.2371  0.3228  0.3661
   18MOL   C100 9994   2.247   4.946   1.841 -0.3148 -0.1072 -0.0616
   18MOL   O101 9995   2.340   4.931   1.943 -0.5414  0.0410  0.0962
   18MOL   H102 9996   1.323   4.564   1.755 -1.0566 -3.9380 -0.7459
   18MOL   H103 9997   1.383   4.430   1.845  0.7334 -0.4231 -3.1422
   18MOL   H104 9998   1.537   4.692   1.849  1.6365  0.6143 -1.5068
   18MOL   H105 9999   1.704   4.525   1.853  0.2539  0.6680 -3.8091
   18MOL   H10610000   1.553   4.481   1.639 -0.6179 -0.3040  1.5797
   18MOL   H10710001   1.482   4.640   1.600  0.7434  0.8700 -1.7871
   18MOL   H10810002   1.677   4.832   1.723  0.7642 -1.8557  1.0855
   18MOL   H10910003   1.657   4.816   1.545 -1.3723  0.1706  0.7250
   18MOL   H11010004   1.860   4.927   1.617  1.9408  0.0520  2.6671
   18MOL   H11110005   1.889   4.766   1.539 -1.1803 -0.2925  0.0783
   18MOL   H11210006   1.869   4.808   1.844  1.0868 -3.1858  1.4097
   18MOL   H11310007   1.958   4.685   1.757 -3.6215 -1.6449  0.9814
   18MOL   H11410008   2.105   4.818   1.945 -2.9032  1.1134 -0.6222
   18MOL   H11510009   2.229   4.733   1.713 -0.7751  0.2672  0.2137
   18MOL   H11610010   2.292   4.965   1.743 -0.9151 -0.3039 -0.3812
   18MOL   H11710011   2.197   5.040   1.865  0.8161  0.2614  0.8383
   18MOL   C11810012   2.447   5.021   1.930 -0.1896  0.3089  0.3356
   18MOL   C11910013   2.566   4.937   1.860 -0.3849  0.0905  0.2089
   18MOL   O12010014   2.613   4.847   1.961 -0.6640  0.7408 -0.9787
   18MOL   C12110015   2.679   5.031   1.820 -0.6117 -0.5243  0.4015
   18MOL   O12210016   2.634   5.095   1.695 -0.2531  0.2158 -0.0053
   18MOL   C12310017   2.738   5.170   1.633 -0.4721 -0.3446  0.5946
   18MOL   C12410018   2.865   5.091   1.587  0.1788  0.0049 -0.8137
   18MOL   C12510019   2.966   5.199   1.534 -0.4889  0.3997  0.1152
   18MOL   O12610020   3.006   5.267   1.651 -0.2685  0.1611  0.2323
   18MOL   C12710021   3.114   5.346   1.631  0.3885 -0.0163  0.1374
   18MOL   O12810022   3.229   5.267   1.626  0.1714  0.5030 -0.5888
   18MOL   C12910023   3.127   5.445   1.742  0.1574  0.4284 -0.1831
   18MOL   O13010024   3.173   5.375   1.864 -0.6247  0.0392  0.0819
   18MOL   H13110025   2.420   5.114   1.879  0.5369 -0.6959 -1.9308
   18MOL   H13210026   2.487   5.044   2.029 -0.5981  0.5448  0.4441
   18MOL   H13310027   2.539   4.869   1.780  0.5084 -2.6366  2.1729
   18MOL   H13410028   2.546   4.784   1.979 -2.2734  2.4455 -0.8354
   18MOL   H13510029   2.709   5.110   1.889  0.2383  1.2940 -2.0056
   18MOL   H13610030   2.766   4.967   1.805  0.2485  1.2960 -2.6263
   18MOL   H13710031   2.755   5.256   1.699  1.2957  0.5808 -1.0336
   18MOL   H13810032   2.679   5.207   1.549  1.8523 -1.5451 -1.6183
   18MOL   H13910033   2.831   5.035   1.499 -0.7422  1.0607 -1.1342
   18MOL   H14010034   2.916   5.028   1.659 -0.7775  0.9951  0.7541
   18MOL   H14110035   3.048   5.136   1.499 -0.7216  0.7960 -1.1890
   18MOL   H14210036   2.939   5.268   1.454 -0.3473  1.2318  0.7765
   18MOL   H14310037   3.108   5.392   1.532  2.3445 -1.8314 -0.8859
   18MOL   H14410038   3.245   5.236   1.714 -0.9327 -1.9098 -1.2195
   18MOL   H14510039   3.198   5.521   1.710  1.9414 -1.2383 -0.2839
   18MOL   H14610040   3.029   5.493   1.743  0.1366  0.3826 -0.0239
   18MOL   C14710041   3.091   5.418   1.974 -0.0284 -0.0147  0.1768
   18MOL   C14810042   3.131   5.328   2.093  0.3737  0.0495 -0.3884
   18MOL   O14910043   3.265   5.346   2.104  0.7103 -0.5609  0.5003
   18MOL   C15010044   3.084   5.181   2.064 -0.2377 -0.0939  0.0662
   18MOL   O15110045   3.117   5.093   2.166 -0.5543 -0.0130 -0.1362
   18MOL   C15210046   3.025   4.980   2.173 -0.0688 -0.3115  0.0730
   18MOL   C15310047   3.048   4.877   2.053  0.6027  0.4373 -0.1704
   18MOL   C15410048   2.926   4.779   2.047 -0.4804  0.3226  0.1897
   18MOL   O15510049   2.958   4.670   2.128  0.3014  0.4950 -0.1714
   18MOL   C15610050   2.856   4.576   2.152  0.3438 -0.1472 -0.0392
   18MOL   O15710051   2.741   4.637   2.215 -0.3120 -0.3816  0.1653
   18MOL   C15810052   2.905   4.458   2.228 -0.0866  0.5263  0.3185
   18MOL   O15910053   2.978   4.371   2.151  0.1679 -0.5892 -0.2017
   18MOL   H16010054   2.988   5.390   1.951 -1.4552  2.6337  2.9343
   18MOL   H16110055   3.098   5.520   2.010 -0.9555 -0.0089  0.3677
   18MOL   H16210056   3.095   5.370   2.186  0.1800 -0.2762 -0.3170
   18MOL   H16310057   3.305   5.321   2.022  0.1645 -0.4982  0.2112
   18MOL   H16410058   2.976   5.185   2.046 -0.6218  0.9008  2.4619
   18MOL   H16510059   3.115   5.133   1.971  0.0049 -0.0099  0.1045
   18MOL   H16610060   2.921   5.011   2.159  1.0654  2.8797 -1.7330
   18MOL   H16710061   3.028   4.940   2.275 -2.2102 -0.4645  0.1130
   18MOL   H16810062   3.143   4.824   2.060  0.1744 -0.4060 -0.6170
   18MOL   H16910063   3.053   4.932   1.960  1.1432  3.1899  1.4323
   18MOL   H17010064   2.838   4.834   2.082 -0.7929  0.5827 -0.9504
   18MOL   H17110065   2.924   4.749   1.942 -0.3810 -1.0419  0.5770
   18MOL   H17210066   2.827   4.545   2.052  1.3143  0.6881 -0.5939
   18MOL   H17310067   2.772   4.703   2.275  1.0146 -0.2130 -0.6725
   18MOL   H17410068   2.968   4.474   2.316  0.4720  0.9170 -0.1524
   18MOL   H17510069   2.822   4.395   2.259 -0.4009  0.1101 -1.3333
   18MOL   C17610070   3.117   4.394   2.142  0.2541 -0.3280 -0.0252
   18MOL   C17710071   3.168   4.298   2.035  1.0133 -0.5691 -0.3147
   18MOL   O17810072   3.180   4.169   2.082 -0.6239 -0.0812 -0.2525
   18MOL   C17910073   3.305   4.343   1.981  0.3905 -0.5561  0.2629
   18MOL   O18010074   3.304   4.470   1.917  0.2538 -0.3586  0.1743
   18MOL   C18110075   3.404   4.566   1.948  0.0698  0.5333 -0.1992
   18MOL   C18210076   3.368   4.684   1.856 -0.6476 -0.5784  0.5788
   18MOL   C18310077   3.481   4.791   1.865  0.2649 -0.6655  0.4538
   18MOL   O18410078   3.457   4.884   1.758 -0.3620 -0.6782  0.7490
   18MOL   C18510079   3.513   5.007   1.784  0.1504  0.2974 -0.2679
   18MOL   O18610080   3.419   5.096   1.835  0.0509  0.1936  0.1169
   18MOL   C18710081   3.576   5.052   1.659  0.1303 -0.5243  0.2206
   18MOL   O18810082   3.683   4.964   1.630  0.2176  0.5517 -0.3027
   18MOL   H18910083   3.157   4.369   2.241  0.0329 -0.0502  0.1340
   18MOL   H19010084   3.136   4.501   2.130  0.7451 -0.5512 -1.2928
   18MOL   H19110085   3.099   4.290   1.951  0.2918 -2.0474  0.3934
   18MOL   H19210086   3.093   4.135   2.097 -0.0586 -1.1188  0.7603
   18MOL   H19310087   3.372   4.344   2.067  0.2633 -2.2394  0.3987
   18MOL   H19410088   3.334   4.267   1.908 -2.0628 -1.6241  0.3753
   18MOL   H19510089   3.503   4.524   1.931  0.2476  0.7503  0.2829
   18MOL   H19610090   3.394   4.591   2.053 -0.2101 -0.5724  0.0453
   18MOL   H19710091   3.265   4.721   1.855 -1.6065 -3.1488  0.9774
   18MOL   H19810092   3.385   4.639   1.758 -0.2413 -2.5544  1.5383
   18MOL   H19910093   3.494   4.828   1.967  1.1354 -2.8749  1.1744
   18MOL   H20010094   3.576   4.743   1.845  1.1094  1.1832 -0.1109
   18MOL   H20110095   3.597   5.001   1.853  0.6132  1.8732 -0.6839
   18MOL   H20210096   3.385   5.057   1.913 -1.3540  1.2176  0.0327
   18MOL   H20310097   3.496   5.049   1.585 -1.0982  0.2245  1.5050
   18MOL   H20410098   3.618   5.153   1.660 -0.7682 -0.1258 -1.0804
   18MOL   C20510099   3.751   4.985   1.505 -0.3662  0.2418  0.2115
   18MOL   C20610100   3.888   4.921   1.512  0.3743  0.0060 -0.3225
   18MOL   O20710101   3.871   4.791   1.565 -0.3916 -0.1952 -0.1256
   18MOL   C20810102   3.949   4.899   1.371  1.0874 -0.1515 -0.0823
   18MOL   O20910103   3.956   5.026   1.305 -0.9844 -0.2282 -0.8178
   18MOL   C21010104   3.995   5.020   1.172  0.6130  0.2162  0.0011
   18MOL   C21110105   3.909   5.123   1.088 -0.2417 -0.5658  0.1252
   18MOL   C21210106   3.955   5.129   0.947  0.2182 -0.4068  0.2178
   18MOL   O21310107   3.854   5.204   0.873 -0.9480 -0.3957 -0.3046
   18MOL   C21410108   3.898   5.289   0.772 -0.2912 -0.3049  0.5359
   18MOL   O21510109   3.979   5.390   0.820  0.0519 -0.4721  0.0055
   18MOL   C21610110   3.767   5.342   0.713 -0.7851 -0.1398 -0.0519
   18MOL   O21710111   3.791   5.398   0.584 -0.1270  0.5975 -0.2135
   18MOL   H21810112   3.754   5.092   1.483  0.8242  0.3457  0.8311
   18MOL   H21910113   3.688   4.935   1.432  0.4089 -0.7724  0.2314
   18MOL   H22010114   3.964   4.977   1.567  1.0168  0.9806 -2.1510
   18MOL   H22110115   3.820   4.800   1.644 -1.6871 -2.0850 -0.7172
   18MOL   H22210116   4.049   4.858   1.385  1.3335 -0.0888 -1.5393
   18MOL   H22310117   3.893   4.832   1.305  0.9947 -0.4784  0.3250
   18MOL   H22410118   3.974   4.922   1.128 -0.9426  0.8358 -0.6572
   18MOL   H22510119   4.103   5.034   1.166  0.5110  0.4615 -1.7390
   18MOL   H22610120   3.934   5.221   1.128  1.8567 -0.8983 -0.3030
   18MOL   H22710121   3.804   5.097   1.100 -0.2845  0.7062  2.7493
   18MOL   H22810122   4.050   5.181   0.939 -0.9834  1.7507 -0.3585
   18MOL   H22910123   3.947   5.034   0.894 -0.0584 -0.3230  0.1052
   18MOL   H23010124   3.950   5.224   0.701  0.6765 -0.2549  1.1895
   18MOL   H23110125   3.922   5.463   0.839 -0.4343 -0.9878  0.5177
   18MOL   H23210126   3.704   5.254   0.703 -0.6304 -0.0957 -1.6778
   18MOL   H23310127   3.715   5.410   0.781  1.0904  1.3135 -0.0411
   18MOL   C23410128   3.663   5.418   0.517  0.2940 -0.2813 -0.4383
   18MOL   C23510129   3.694   5.504   0.394  0.1490  0.0120 -0.1209
   18MOL   O23610130   3.696   5.645   0.433 -0.6174 -0.2336 -0.8432
   18MOL   C23710131   3.599   5.493   0.281  0.0145 -0.3294 -0.8632
   18MOL   O23810132   3.662   5.547   0.164  0.0196 -0.3253  0.3931
   18MOL   C23910133   3.575   5.572   0.052  0.2314  0.4673 -0.1491
   18MOL   C24010134   3.642   5.641   7.633 -0.3390  0.6167  0.5375
   18MOL   C24110135   3.534   5.674   7.526 -0.1162  0.3073  0.1375
   18MOL   O24210136   3.422   5.737   7.578 -0.1359  0.2137  0.3524
   18MOL   C24310137   3.321   5.744   7.483  0.2390 -1.1396  0.4872
   18MOL   O24410138   3.337   5.863   7.402  0.6561  0.2458  0.0551
   18MOL   C24510139   3.187   5.756   7.566 -0.9887 -0.2991 -0.3327
   18MOL   O24610140   3.164   5.639   7.639 -0.0783  0.2039  0.4807
   18MOL   H24710141   3.608   5.329   0.487  0.0476 -0.2580 -0.0629
   18MOL   H24810142   3.585   5.465   0.578 -1.1306 -1.5462 -1.2703
   18MOL   H24910143   3.789   5.462   0.362 -0.4892 -0.1318 -1.8402
   18MOL   H25010144   3.697   5.690   0.350 -0.2461  1.5296  0.0984
   18MOL   H25110145   3.576   5.388   0.263 -0.1280 -0.3009 -0.8536
   18MOL   H25210146   3.509   5.542   0.319  1.5877  0.3148  2.1859
   18MOL   H25310147   3.494   5.636   0.089 -2.8674 -3.3468  0.0474
   18MOL   H25410148   3.528   5.478   0.022  2.4003  0.2908 -3.1911
   18MOL   H25510149   3.724   5.583   7.590  0.3621  0.8870  1.4987
   18MOL   H25610150   3.682   5.739   7.656  0.6172  0.8209 -1.8235
   18MOL   H25710151   3.586   5.730   7.448  0.1330 -2.3453 -1.6692
   18MOL   H25810152   3.504   5.578   7.484  0.6483 -0.6512  1.7553
   18MOL   H25910153   3.301   5.662   7.415  0.9997  0.8637 -2.2149
   18MOL   H26010154   3.405   5.849   7.338 -0.8419 -0.8699 -1.3320
   18MOL   H26110155   3.196   5.848   7.623  0.8861  2.3902 -4.7207
   18MOL   H26210156   3.106   5.776   7.496 -0.5049 -0.6440 -0.9980
   18MOL   C26310157   3.049   5.643   0.024  0.7389  0.0859  0.0378
   18MOL   C26410158   3.068   5.713   0.161 -0.3944  0.0808  0.3086
   18MOL   O26510159   2.942   5.701   0.222  0.0994 -0.0019  0.1230
   18MOL   C26610160   3.157   5.647   0.257 -0.1427 -0.7479  0.8199
   18MOL   O26710161   3.126   5.508   0.264  0.7267 -0.7450  0.1426
   18MOL   C26810162   3.240   5.423   0.271 -0.0460 -0.3485 -0.1175
   18MOL   C26910163   3.191   5.274   0.271  0.5346 -0.8313  0.6313
   18MOL   C27010164   3.297   5.159   0.292  0.5049 -0.4562  0.0463
   18MOL   O27110165   3.396   5.179   0.198  0.4461 -0.4155 -0.0036
   18MOL   C27210166   3.429   5.074   0.111 -0.2746  0.0152  0.2462
   18MOL   O27310167   3.317   5.033   0.031 -0.5878  0.2179  0.2625
   18MOL   C27410168   3.546   5.114   0.024  0.5814  0.2613  0.6947
   18MOL   O27510169   3.664   5.043   0.063 -0.0245  0.3852  0.4237
   18MOL   H27610170   3.033   5.538   0.048  1.8075 -0.0790  0.0476
   18MOL   H27710171   2.964   5.668   7.654  0.0980  1.4278  1.3746
   18MOL   H27810172   3.090   5.819   0.150  2.1197 -0.4245  0.2185
   18MOL   H27910173   2.950   5.625   0.278 -2.3078  0.4930  1.2113
   18MOL   H28010174   3.256   5.672   0.219 -0.8340  0.8519  0.0277
   18MOL   H28110175   3.147   5.694   0.355  0.5956 -0.7893  0.9173
   18MOL   H28210176   3.284   5.427   0.371  0.4645  2.0397 -0.4064
   18MOL   H28310177   3.311   5.427   0.189  1.4490  1.7212  1.2558
   18MOL   H28410178   3.138   5.255   0.178  3.7338  0.8746 -1.6461
   18MOL   H28510179   3.117   5.273   0.351  1.5782  1.1961  1.6701
   18MOL   H28610180   3.351   5.181   0.384 -0.5528 -1.2096  0.8685
   18MOL   H28710181   3.252   5.060   0.297  2.2397 -1.1452  3.7345
   18MOL   H28810182   3.451   4.982   0.165 -0.6335  0.5697  1.3515
   18MOL   H28910183   3.330   5.072   7.640  1.5865  0.6883  0.7754
   18MOL   H29010184   3.519   5.082   7.618 -0.3300  0.8829  0.7440
   18MOL   H29110185   3.567   5.221   0.021 -0.2513  0.3994 -0.4460
   18MOL   C29210186   3.715   5.076   0.195 -0.4399 -0.2838 -0.6416
   18MOL   C29310187   3.795   4.957   0.246 -1.0869 -0.4148  0.0689
   18MOL   O29410188   3.848   4.989   0.366  0.2460 -0.6667 -0.2349
   18MOL   C29510189   3.724   4.820   0.246 -0.0180  0.5313  0.2432
   18MOL   O29610190   3.592   4.819   0.314  0.3449 -0.0236 -0.2809
   18MOL   C29710191   3.534   4.689   0.305  0.3024  0.2764 -0.2817
   18MOL   C29810192   3.420   4.682   0.413 -0.2202 -0.1829 -0.4735
   18MOL   C29910193   3.347   4.542   0.420  0.4517 -0.4858 -0.8527
   18MOL   O30010194   3.258   4.542   0.539 -0.2818  0.2800  0.7730
   18MOL   C30110195   3.165   4.444   0.528  0.5267  0.2745 -0.1722
   18MOL   O30210196   3.226   4.323   0.556 -0.2787  0.4280  0.6799
   18MOL   C30310197   3.051   4.478   0.627 -0.2454  0.0104  0.4123
   18MOL   O30410198   3.090   4.435   0.762  0.3962  0.2832  0.3643
   18MOL   H30510199   3.785   5.159   0.183 -2.4132  1.2873 -1.5153
   18MOL   H30610200   3.640   5.112   0.265  0.1094  0.4054 -0.3970
   18MOL   H30710201   3.882   4.935   0.184 -0.2110  1.3560  0.6357
   18MOL   H30810202   3.780   5.009   0.429  0.7457 -0.1003  0.1335
   18MOL   H30910203   3.706   4.779   0.147  1.7972 -2.8214  1.1953
   18MOL   H31010204   3.798   4.756   0.296  1.5802  1.4603 -0.8744
   18MOL   H31110205   3.604   4.608   0.325 -0.4980  0.1617  2.2292
   18MOL   H31210206   3.493   4.665   0.207 -0.5697 -2.9435  0.8223
   18MOL   H31310207   3.339   4.752   0.392  1.3243  1.5324 -0.8494
   18MOL   H31410208   3.460   4.685   0.515 -0.4329  1.6949 -0.4379
   18MOL   H31510209   3.295   4.536   0.325 -1.3702 -1.0476  0.1664
   18MOL   H31610210   3.414   4.456   0.429  1.3747  0.0367 -2.4849
   18MOL   H31710211   3.122   4.452   0.428 -0.1912  0.6364  0.1597
   18MOL   H31810212   3.219   4.311   0.650 -0.6246 -1.6605  0.4115
   18MOL   H31910213   2.963   4.425   0.590  0.8396 -0.4876 -1.5681
   18MOL   H32010214   3.032   4.585   0.622 -0.0696  0.0892  1.3939
   18MOL   C32110215   2.995   4.494   0.849 -0.2609 -0.1635 -1.1349
   18MOL   C32210216   3.001   4.414   0.980 -0.4691  0.0064 -0.8999
   18MOL   O32310217   3.109   4.463   1.061  0.1726 -0.5504  0.0804
   18MOL   C32410218   2.880   4.414   1.067 -0.1802 -0.0109 -0.7366
   18MOL   O32510219   2.825   4.543   1.083 -0.2926 -0.0046  0.0943
   18MOL   C32610220   2.701   4.537   1.152 -0.7027  0.3939  0.7593
   18MOL   C32710221   2.595   4.500   1.046  0.3910 -0.4941 -0.3329
   18MOL   C32810222   2.575   4.603   0.932  0.3703 -0.2564 -0.3659
   18MOL   O32910223   2.440   4.601   0.892 -0.2131 -0.6303  0.5329
   18MOL   C33010224   2.428   4.580   0.757  0.5027  0.0503  0.3160
   18MOL   O33110225   2.455   4.446   0.720 -0.2355  0.3664  0.3429
   18MOL   C33210226   2.279   4.598   0.729  0.3093 -0.0169 -0.2267
   18MOL   O33310227   2.201   4.506   0.812  0.0216  0.2008  0.2745
   18MOL   H33410228   2.893   4.497   0.810 -0.8289  0.4563  0.3798
   18MOL   H33510229   3.023   4.597   0.873 -2.4920 -0.2874  2.2582
   18MOL   H33610230   3.018   4.310   0.950 -2.8180 -0.1577 -1.7658
   18MOL   H33710231   3.081   4.524   1.128 -0.2353  0.9565 -1.4167
   18MOL   H33810232   2.906   4.373   1.165 -0.3058  0.5751 -0.4584
   18MOL   H33910233   2.806   4.351   1.018  0.6417 -0.3417 -1.5696
   18MOL   H34010234   2.678   4.630   1.204 -0.2114  0.8719  0.1290
   18MOL   H34110235   2.710   4.464   1.232  1.3547  2.0637  2.1123
   18MOL   H34210236   2.609   4.402   0.999  0.8834 -0.6890  0.2218
   18MOL   H34310237   2.495   4.488   1.089 -1.2804 -0.4972 -3.9378
   18MOL   H34410238   2.598   4.702   0.972  0.4497 -0.3374 -0.2091
   18MOL   H34510239   2.645   4.589   0.850 -0.8621 -3.0728 -1.0097
   18MOL   H34610240   2.490   4.646   0.695 -0.5367  0.1534 -0.6283
   18MOL   H34710241   2.389   4.389   0.757 -0.3938  0.4684  0.2192
   18MOL   H34810242   2.249   4.697   0.763 -0.8803 -0.5894  0.4312
   18MOL   H34910243   2.260   4.586   0.622  1.6804  1.9171 -0.7247
   18MOL   C35010244   2.063   4.541   0.823 -0.2635  0.1310 -0.0667
   18MOL   C35110245   1.985   4.469   0.713 -0.0241 -0.3908 -0.5193
   18MOL   O35210246   1.987   4.335   0.745 -0.7929 -0.6035 -0.4844
   18MOL   C35310247   1.828   4.490   0.718  0.1526 -1.1277  0.3312
   18MOL   O35410248   1.808   4.630   0.703  0.2394 -0.4994 -0.0253
   18MOL   C35510249   1.669   4.654   0.713  0.0770  0.5049 -0.1152
   18MOL   C35610250   1.655   4.806   0.707 -0.5981  0.1160  0.0459
   18MOL   C35710251   1.510   4.855   0.721 -0.0241 -0.2524 -0.9272
   18MOL   O35810252   1.493   4.995   0.731 -0.0145 -0.0073  0.1502
   18MOL   C35910253   1.365   5.044   0.725 -0.4163  1.0058 -0.0453
   18MOL   O36010254   1.290   5.005   0.840  0.1205 -0.0147  0.2302
   18MOL   C36110255   1.366   5.192   0.712  0.2602 -0.6798  0.1749
   18MOL   O36210256   1.388   5.226   0.575 -0.2324 -0.1092  0.6207
   18MOL   H36310257   2.039   4.646   0.812 -1.6000 -0.1350  0.3055
   18MOL   H36410258   2.023   4.502   0.916  1.2691 -1.8188 -0.1808
   18MOL   H36510259   2.023   4.486   0.613  3.0456  1.8038  0.9441
   18MOL   H36610260   2.078   4.321   0.764 -0.7370  0.3177 -0.0302
   18MOL   H36710261   1.771   4.437   0.642 -0.5729  0.7985 -0.5096
   18MOL   H36810262   1.786   4.465   0.815  0.1395 -1.8531  0.1415
   18MOL   H36910263   1.626   4.611   0.804  1.2211 -1.2588 -0.3858
   18MOL   H37010264   1.618   4.608   0.628  1.4024 -0.1144 -0.5863
   18MOL   H37110265   1.693   4.843   0.612  0.5619 -2.5717 -0.5640
   18MOL   H37210266   1.710   4.861   0.784 -0.3669  2.3481 -1.6488
   18MOL   H37310267   1.458   4.828   0.629  0.4539  3.5289 -2.3936
   18MOL   H37410268   1.466   4.810   0.811 -0.8018  3.6501  0.7811
   18MOL   H37510269   1.313   4.998   0.642  0.2752 -2.8524  1.5418
   18MOL   H37610270   1.332   5.042   0.916  0.1842  2.4379 -0.9422
   18MOL   H37710271   1.266   5.229   0.735  0.5206  0.4986 -0.5827
   18MOL   H37810272   1.435   5.251   0.772 -0.0307  1.4473 -1.5465
   18MOL   C37910273   1.491   5.307   0.542  0.4406 -0.1440  0.1158
   18MOL   C38010274   1.617   5.224   0.503 -0.1321 -0.0402  0.4729
   18MOL   O38110275   1.683   5.189   0.623 -0.5930  0.5245 -0.4371
   18MOL   C38210276   1.595   5.097   0.422 -0.0017  0.0764  0.1410
   18MOL   O38310277   1.705   5.035   0.354 -0.4942  0.0221 -0.3069
   18MOL   C38410278   1.679   4.926   0.272 -0.1982 -0.0873 -0.4139
   18MOL   C38510279   1.800   4.845   0.219  0.4735  0.9674  1.0022
   18MOL   C38610280   1.761   4.736   0.111  0.1876 -0.1430 -0.0647
   18MOL   O38710281   1.755   4.804   7.685  0.2197  0.1578  0.8289
   18MOL   C38810282   1.696   4.730   7.576  0.6449 -0.1947  0.2226
   18MOL   O38910283   1.554   4.727   7.589  0.0734 -0.3846 -0.2137
   18MOL   C39010284   1.738   4.789   7.441  0.0247  0.5149  0.0777
   18MOL   O39110285   1.829   4.714   7.364 -0.1675  0.3525  0.1380
   18MOL   H39210286   1.502   5.382   0.621  0.6115  1.4315 -1.3705
   18MOL   H39310287   1.448   5.358   0.456 -1.1120 -2.9676 -0.8152
   18MOL   H39410288   1.689   5.280   0.443  0.7890 -0.0900  1.5267
   18MOL   H39510289   1.632   5.124   0.669  0.0609 -0.8605 -1.6367
   18MOL   H39610290   1.544   5.014   0.471 -0.3399  0.1899 -0.0146
   18MOL   H39710291   1.528   5.122   0.340  1.0893  0.4875 -0.6377
   18MOL   H39810292   1.632   4.970   0.183  1.7098  2.3359 -0.2902
   18MOL   H39910293   1.599   4.864   0.313  1.4085 -0.3294  2.5011
   18MOL   H40010294   1.841   4.786   0.300  0.0653  0.2813  0.7092
   18MOL   H40110295   1.885   4.904   0.184  0.6136 -0.5605 -1.3304
   18MOL   H40210296   1.836   4.657   0.116  0.7668  0.4727  0.9513
   18MOL   H40310297   1.669   4.685   0.140 -0.4544  2.1248  2.0870
   18MOL   H40410298   1.732   4.628   7.588  1.9710  0.2709  0.3267
   18MOL   H40510299   1.520   4.678   7.515 -1.4468  1.7606 -0.9665
   18MOL   H40610300   1.652   4.803   7.377  0.1773  0.9542 -0.0347
   18MOL   H40710301   1.787   4.886   7.450  1.5591 -0.1745 -0.7630
   18MOL   C40810302   1.831   4.753   7.225  0.5711 -0.2371 -0.2220
   18MOL   C40910303   1.923   4.651   7.152  0.5585  0.0845 -0.0777
   18MOL   O41010304   1.986   4.708   7.032  0.3201 -0.2137  0.5190
   18MOL   C41110305   1.851   4.521   7.100  0.7511  0.4643  0.2717
   18MOL   O41210306   1.913   4.396   7.131  0.0724 -0.1104  0.4390
   18MOL   C41310307   1.985   4.357   7.016  0.1157 -0.0107 -0.3701
   18MOL   C41410308   2.049   4.220   7.032  0.2228 -0.1849 -0.6217
   18MOL   C41510309   2.132   4.183   6.902 -0.7921  0.0042  0.4550
   18MOL   O41610310   2.213   4.065   6.930 -0.0837 -0.3835 -0.4771
   18MOL   C41710311   2.309   4.025   6.832  0.7032 -0.1953  0.2262
   18MOL   O41810312   2.254   3.963   6.719 -0.3066  0.2579  0.0849
   18MOL   C41910313   2.394   3.925   6.898  0.6519 -0.3175 -0.7049
   18MOL   O42010314   2.494   3.989   6.975  0.1025  0.0289  0.0776
   18MOL   H42110315   1.869   4.855   7.216 -1.3526  0.3613 -1.7431
   18MOL   H42210316   1.733   4.738   7.179  0.3297 -0.0480  0.2309
   18MOL   H42310317   2.008   4.631   7.217  0.9129 -1.4304 -0.9748
   18MOL   H42410318   2.048   4.643   7.004  0.8150  0.6222 -0.3190
   18MOL   H42510319   1.763   4.511   7.164 -0.0148  0.0978 -0.8325
   18MOL   H42610320   1.815   4.531   6.998 -2.3022 -0.9982  1.1427
   18MOL   H42710321   1.925   4.349   6.926 -0.6744 -0.4940  0.1895
   18MOL   H42810322   2.070   4.423   7.001  0.3064  0.0542  0.8828
   18MOL   H42910323   1.971   4.146   7.054 -0.5906 -0.2939 -3.6273
   18MOL   H43010324   2.117   4.219   7.117  1.4786  1.4563 -1.5702
   18MOL   H43110325   2.070   4.163   6.815 -0.8342 -2.3398  0.9676
   18MOL   H43210326   2.198   4.264   6.872 -0.1559 -0.2717  1.0791
   18MOL   H43310327   2.366   4.115   6.806  1.4508 -1.0700 -1.1915
   18MOL   H43410328   2.218   4.033   6.666  0.5345 -1.2257 -2.5266
   18MOL   H43510329   2.331   3.860   6.958  1.8168 -2.1914 -1.4793
   18MOL   H43610330   2.442   3.870   6.817  4.0195  0.7447  0.5134
   18MOL   C43710331   2.473   3.997   7.116  0.3069  0.1200 -0.1096
   18MOL   C43810332   2.606   4.034   7.186  0.5876 -0.1569  1.0553
   18MOL   O43910333   2.584   4.032   7.326 -0.1447  0.0626  0.1611
   18MOL   C44010334   2.663   4.177   7.154  0.7219 -0.3668 -0.7600
   18MOL   O44110335   2.787   4.195   7.220  0.2841 -0.2702 -0.2798
   18MOL   C44210336   2.836   4.325   7.183  0.4384 -0.3052 -0.3797
   18MOL   C44310337   2.937   4.361   7.288 -0.4936 -0.5557 -0.1159
   18MOL   C44410338   2.872   4.402   7.420 -0.4919  0.3564 -0.2104
   18MOL   O44510339   2.979   4.435   7.505  0.3945  0.0356  0.8526
   18MOL   C44610340   2.938   4.470   7.634 -0.1037  0.6202 -0.4446
   18MOL   O44710341   2.858   4.587   7.633  0.1387  0.5498 -0.2596
   18MOL   C44810342   3.056   4.523   0.026  0.2044  0.3834  0.4760
   18MOL   O44910343   3.131   4.622   7.639 -0.0669 -0.2062  0.1013
   18MOL   H45010344   2.393   4.069   7.135  1.0308  0.7553  0.5450
   18MOL   H45110345   2.443   3.900   7.155 -0.4873  0.7174  0.7922
   18MOL   H45210346   2.681   3.961   7.155  0.0275 -0.4675  0.4312
   18MOL   H45310347   2.666   4.063   7.362  0.8022 -0.6030 -1.3847
   18MOL   H45410348   2.672   4.189   7.046 -0.2940  0.5555 -0.7488
   18MOL   H45510349   2.593   4.254   7.187  0.2041 -1.0523 -0.2638
   18MOL   H45610350   2.757   4.399   7.171  1.1691  0.3340 -1.2755
   18MOL   H45710351   2.887   4.313   7.088  2.3394  2.1931  0.2819
   18MOL   H45810352   2.993   4.448   7.253 -1.3088 -0.3942 -1.0514
   18MOL   H45910353   3.018   4.291   7.306 -0.2990  0.3533  2.7131
   18MOL   H46010354   2.812   4.491   7.406  0.5603  0.8911 -1.4126
   18MOL   H46110355   2.797   4.339   7.466 -0.7534  1.4798  0.9226
   18MOL   H46210356   2.876   4.394   7.681  0.8520  1.2360  1.8914
   18MOL   H46310357   2.910   4.656   7.595 -0.4159  1.1911  0.1456
   18MOL   H46410358   3.013   4.574   0.112  1.3293  0.8802  0.7589
   18MOL   H46510359   3.118   4.440   0.061 -1.5790 -0.8784  0.6901
   18MOL   C46610360   3.268   4.643   7.672  0.4988  0.1738 -0.1425
   18MOL   C46710361   3.336   4.706   7.556  0.0518 -0.0806  0.1017
   18MOL   O46810362   3.480   4.724   7.587  0.2382  0.2818 -0.0457
   18MOL   C46910363   3.330   4.622   7.431  0.3689 -0.3288  0.2233
   18MOL   O47010364   3.352   4.713   7.323 -0.3000  0.0428  0.0209
   18MOL   C47110365   3.235   4.754   7.253 -0.0523  1.2481 -0.3657
   18MOL   C47210366   3.286   4.834   7.134  0.8526  0.1035 -0.5109
   18MOL   C47310367   3.181   4.893   7.030 -0.3268 -0.8005 -0.0705
   18MOL   O47410368   3.139   5.011   7.091 -0.2942 -0.7490 -0.2901
   18MOL   C47510369   3.026   5.068   7.014 -1.1114  0.5095 -0.7079
   18MOL   O47610370   3.058   5.131   6.887 -0.1406 -0.0312 -0.8512
   18MOL   C47710371   2.960   5.182   7.097 -0.2770  0.4599  0.3214
   18MOL   O47810372   2.821   5.176   7.065  0.0078 -0.4300  0.4578
   18MOL   H47910373   3.323   4.553   0.006  1.0293  1.1426  1.9830
   18MOL   H48010374   3.278   4.709   0.063  1.3402  1.8078 -1.4778
   18MOL   H48110375   3.283   4.800   7.542  0.8210  0.2888 -0.4295
   18MOL   H48210376   3.510   4.796   7.534  0.4132  0.9846  0.9982
   18MOL   H48310377   3.418   4.560   7.419  1.0358  0.8021 -0.8740
   18MOL   H48410378   3.238   4.565   7.419 -0.2746  0.9743 -1.2223
   18MOL   H48510379   3.177   4.813   7.324 -1.0103  2.2021 -1.9066
   18MOL   H48610380   3.187   4.665   7.212  0.0294  1.0671 -0.0683
   18MOL   H48710381   3.341   4.763   7.073 -0.3114  0.0826 -1.5659
   18MOL   H48810382   3.343   4.922   7.161 -0.0852  1.1142 -1.7707
   18MOL   H48910383   3.219   4.913   6.930  0.8672 -1.2892  0.2729
   18MOL   H49010384   3.095   4.828   7.037 -0.8497  0.1195  3.0322
   18MOL   H49110385   2.948   4.995   6.993 -0.8029 -0.1128  0.2592
   18MOL   H49210386   2.995   5.092   6.828 -0.8690 -2.9915  1.7327
   18MOL   H49310387   2.975   5.168   7.204 -0.6354 -0.1537  0.2920
   18MOL   H49410388   3.004   5.278   7.071  0.9644  0.0065  0.7461
   18MOL   C49510389   2.735   5.245   7.158 -0.5094  0.2093 -0.0850
   18MOL   C49610390   2.603   5.165   7.157  0.2475  0.1706  0.5047
   18MOL   O49710391   2.546   5.190   7.277 -0.5130 -0.4326  0.0575
   18MOL   C49810392   2.500   5.195   7.044 -0.1769 -0.4394  0.1026
   18MOL   O49910393   2.448   5.324   7.076  0.5846  0.0998 -0.5816
   18MOL   C50010394   2.343   5.363   6.988  0.0826 -0.0105  0.1555
   18MOL   C50110395   2.392   5.394   6.845  0.7787 -0.1068  0.9089
   18MOL   C50210396   2.275   5.458   6.759  0.4906  0.4012 -0.5008
   18MOL   O50310397   2.334   5.485   6.627 -0.3533  0.1421 -0.0103
   18MOL   C50410398   2.262   5.581   6.550 -0.2884  0.9849 -0.2546
   18MOL   O50510399   2.276   5.704   6.602  0.0739 -0.2456 -0.6454
   18MOL   C50610400   2.112   5.543   6.535 -0.0983 -0.3118 -0.4286
   18MOL   O50710401   2.098   5.407   6.514  0.4463  0.5421 -0.2066
   18MOL   H50810402   2.730   5.349   7.127  1.8289  0.4061  0.1234
   18MOL   H50910403   2.784   5.252   7.255  0.9974  2.9086 -0.9983
   18MOL   H51010404   2.635   5.061   7.153  1.7985  0.6221  0.6702
   18MOL   H51110405   2.459   5.224   7.264  0.5139  2.4758  0.5639
   18MOL   H51210406   2.559   5.198   6.953  0.0741  1.3378  0.3044
   18MOL   H51310407   2.424   5.117   7.038  0.1626 -0.7268 -0.3869
   18MOL   H51410408   2.298   5.455   7.024 -1.4333  0.4611 -2.7510
   18MOL   H51510409   2.264   5.288   6.981  0.7607 -0.7168 -0.0249
   18MOL   H51610410   2.434   5.305   6.798  1.9650  0.9633 -0.0771
   18MOL   H51710411   2.472   5.467   6.849  1.3115 -0.5902 -0.8840
   18MOL   H51810412   2.190   5.393   6.743  1.4421 -0.9679 -0.0874
   18MOL   H51910413   2.234   5.550   6.801  0.6809 -0.6480  2.1098
   18MOL   H52010414   2.302   5.595   6.450 -0.2544  0.7022 -0.2818
   18MOL   H52110415   2.361   5.731   6.571 -0.5476  1.5333 -0.8182
   18MOL   H52210416   2.067   5.555   6.633  1.5863  1.1636  0.1864
   18MOL   H52310417   2.054   5.605   6.467  1.1758  1.0776 -0.2575
   18MOL   C52410418   1.962   5.379   6.491  0.6049 -0.7199 -0.2004
   18MOL   C52510419   1.943   5.227   6.528 -0.5949 -0.4624  0.0880
   18MOL   O52610420   1.990   5.141   6.424  0.2027  0.2722 -0.7371
   18MOL   C52710421   1.802   5.191   6.560 -0.4771  0.4654 -0.6916
   18MOL   O52810422   1.765   5.271   6.673  0.0412  0.8144 -0.1306
   18MOL   C52910423   1.625   5.279   6.696  0.0397  0.4546 -0.5388
   18MOL   C53010424   1.602   5.350   6.826  0.4077  0.1181 -0.3149
   18MOL   C53110425   1.637   5.269   6.947  0.0197 -0.5566 -0.0016
   18MOL   O53210426   1.631   5.345   7.065  0.0124 -0.1856  0.1515
   18MOL   C53310427   1.604   5.281   7.184 -1.5172  0.2149  0.2650
   18MOL   O53410428   1.722   5.202   7.231  0.0575  0.0661  0.2121
   18MOL   C53510429   1.569   5.388   7.288 -0.3171 -1.1029  0.1428
   18MOL   O53610430   1.442   5.377   7.343  0.5414 -0.3235 -0.0544
   18MOL   H53710431   1.932   5.398   6.387 -2.8442 -0.1596  0.8348
   18MOL   H53810432   1.904   5.442   6.558 -0.0416 -1.3745 -0.1304
   18MOL   H53910433   2.007   5.211   6.615 -2.1524 -2.1469  0.9638
   18MOL   H54010434   1.929   5.146   6.352 -0.2148  1.7074 -0.3166
   18MOL   H54110435   1.736   5.217   6.478 -2.1583  1.7908  1.0292
   18MOL   H54210436   1.791   5.083   6.576 -0.1862  0.4554 -0.5447
   18MOL   H54310437   1.575   5.182   6.699 -1.5587  1.2667 -0.1905
   18MOL   H54410438   1.589   5.336   6.611  1.5443  1.4286 -0.5472
   18MOL   H54510439   1.497   5.372   6.849  0.7220 -0.9479  2.3539
   18MOL   H54610440   1.655   5.443   6.846 -0.8118  0.7604 -0.0093
   18MOL   H54710441   1.561   5.191   6.948  1.0088 -1.6063 -2.3423
   18MOL   H54810442   1.736   5.224   6.937 -0.1180 -0.6468 -0.9661
   18MOL   H54910443   1.522   5.211   7.173 -2.0086  0.8060  0.1513
   18MOL   H55010444   1.793   5.256   7.259 -0.1373  0.8960 -0.8864
   18MOL   H55110445   1.642   5.391   7.368 -1.3549 -0.5591  1.0862
   18MOL   H55210446   1.580   5.484   7.238 -0.4101 -0.3208  1.5953
   18MOL   C55310447   1.345   5.414   7.242 -0.7728 -0.2155  0.0220
   18MOL   C55410448   1.209   5.410   7.311 -0.2423  0.2050 -0.2945
   18MOL   O55510449   1.155   5.288   7.265 -0.4719 -0.1587  0.2919
   18MOL   C55610450   1.111   5.523   7.264 -0.4319 -0.1069  0.2604
   18MOL   O55710451   1.022   5.558   7.365  0.1815  0.4009  0.1369
   18MOL   C55810452   0.955   5.684   7.361  0.0208 -0.6609 -0.5399
   18MOL   C55910453   0.853   5.693   7.254 -0.4232  0.1186  0.5801
   18MOL   C56010454   0.760   5.812   7.279  0.6703 -0.5385  0.2674
   18MOL   O56110455   0.673   5.830   7.164  0.0332  0.5422  0.0854
   18MOL   C56210456   0.585   5.936   7.180  0.5054  0.0322  0.4300
   18MOL   O56310457   0.644   6.061   7.154  0.1658 -0.2196 -0.2673
   18MOL   C56410458   0.470   5.913   7.082  0.1590 -0.0487 -0.2286
   18MOL   O56510459   0.500   5.957   6.946  0.4103  0.1573 -0.1256
   18MOL   H56610460   1.340   5.359   7.148 -0.2850 -0.8644  0.3710
   18MOL   H56710461   1.368   5.518   7.220 -0.4902 -0.1688  0.5320
   18MOL   H56810462   1.221   5.409   7.419 -1.2629 -0.8539 -0.1767
   18MOL   H56910463   1.077   5.271   7.317  0.6641 -0.7001  1.8520
   18MOL   H57010464   1.168   5.614   7.245  0.0411 -0.5265 -0.3789
   18MOL   H57110465   1.067   5.495   7.169 -1.7956 -0.3820  0.9607
   18MOL   H57210466   0.897   5.700   7.452 -3.3976  0.2624 -2.7827
   18MOL   H57310467   1.033   5.760   7.352 -0.0099 -0.4814  0.6163
   18MOL   H57410468   0.812   5.593   7.239  3.0353 -1.4456  1.0682
   18MOL   H57510469   0.900   5.725   7.161  2.2987 -0.7153  1.6110
   18MOL   H57610470   0.705   5.798   7.372 -0.4015 -0.0773 -0.2914
   18MOL   H57710471   0.822   5.902   7.285  1.4177 -1.0720  0.6358
   18MOL   H57810472   0.547   5.931   7.282 -1.1689 -2.5799 -0.2546
   18MOL   H57910473   0.619   6.068   7.063  2.9599 -0.7344 -1.1220
   18MOL   H58010474   0.437   5.809   7.078  0.9170 -0.2481 -1.3082
   18MOL   H58110475   0.387   5.973   7.121  1.7623  1.2358  1.3171
   18MOL   H58210476   0.576   5.909   6.918  0.3338 -0.5564  0.8602
   19MOL     C110477   6.693   6.152   6.942 -0.6404  0.2540 -0.5331
   19MOL     C210478   6.808   6.101   7.030  0.0171 -0.9440 -0.1276
   19MOL     O310479   6.806   5.959   7.012  0.0368  0.3412  0.2910
   19MOL     C410480   6.937   6.148   6.970 -0.2794 -0.3426  0.3344
   19MOL     O510481   6.950   6.295   6.999 -0.3425  0.0939  0.3285
   19MOL     C610482   7.076   6.350   6.966  0.4665 -0.0785  0.0774
   19MOL     C710483   7.091   6.467   7.065  0.2791 -0.5530  0.2511
   19MOL     C810484   7.242   6.523   7.060 -0.2989 -0.4912  0.4954
   19MOL     O910485   7.273   6.629   7.145 -0.2304 -0.4003 -0.0386
   19MOL    C1010486   7.385   6.695   7.113 -0.2990  0.4008 -0.5735
   19MOL    O1110487   7.500   6.612   7.092 -0.1498 -0.9900 -0.2084
   19MOL    C1210488   7.419   6.800   7.219 -0.5734  0.7146  0.3518
   19MOL    O1310489   7.394   6.930   7.163  0.1271  0.7129 -0.1014
   19MOL    H1410490   6.605   6.115   6.993 -0.0522 -0.1944  0.1702
   19MOL    H1510491   6.691   6.130   6.835 -1.9791  0.0248 -0.4660
   19MOL    H1610492   6.781   6.124   7.133 -0.1675  0.0931 -0.4006
   19MOL    H1710493   6.886   5.933   7.055  0.1015  2.1210  1.3318
   19MOL    H1810494   7.019   6.095   7.017  2.7998  0.7626 -3.5335
   19MOL    H1910495   6.935   6.124   6.864 -0.3000  0.7949  0.0668
   19MOL    H2010496   7.097   6.385   6.865  2.7733  0.4090  0.6862
   19MOL    H2110497   7.164   6.286   6.978  0.5490  0.0928  0.4077
   19MOL    H2210498   7.077   6.435   7.169 -0.2383 -2.7267 -0.4780
   19MOL    H2310499   7.030   6.554   7.041  0.5609 -0.5255 -0.3673
   19MOL    H2410500   7.324   6.453   7.077  1.3940  1.2104 -0.3818
   19MOL    H2510501   7.246   6.558   6.957  1.0759 -1.8834  0.0563
   19MOL    H2610502   7.378   6.755   7.022 -1.2940 -0.7197 -1.2307
   19MOL    H2710503   7.552   6.645   7.020 -0.0857  1.6523  0.9799
   19MOL    H2810504   7.362   6.782   7.310 -1.7610  0.3181 -0.4611
   19MOL    H2910505   7.520   6.793   7.258 -0.1925 -1.0905 -0.8969
   19MOL    H3010506   6.685   6.260   6.949 -1.2225  0.1578  0.3166
   19MOL    C3110507   7.433   7.039   7.244  0.1609 -0.4629 -0.4168
   19MOL    C3210508   7.391   7.164   7.179  0.2863  0.0408 -0.1058
   19MOL    O3310509   7.466   7.188   7.061  0.5154 -0.4229 -0.1593
   19MOL    C3410510   7.439   7.291   7.257 -0.4874 -0.4141 -0.2611
   19MOL    O3510511   7.388   7.409   7.204  0.0567  0.2166 -0.6438
   19MOL    C3610512   7.367   7.516   7.296  0.6038 -0.0749  0.7673
   19MOL    C3710513   7.233   7.490   7.378 -0.4729  0.7395 -0.2171
   19MOL    C3810514   7.101   7.537   7.302  0.1773 -0.3451 -0.2233
   19MOL    O3910515   6.994   7.456   7.341  0.3605  0.3207  0.1423
   19MOL    C4010516   6.870   7.491   7.274  1.4509 -0.2560 -0.0896
   19MOL    O4110517   6.832   7.620   7.312 -0.6032 -0.2110 -0.6018
   19MOL    C4210518   6.749   7.392   7.303  0.0999 -0.2825  0.4800
   19MOL    O4310519   6.758   7.289   7.204  0.0588  0.5360  0.0697
   19MOL    H4410520   7.386   7.031   7.342  0.1320 -0.0421 -0.3992
   19MOL    H4510521   7.540   7.036   7.265  0.0115  3.2436  1.2451
   19MOL    H4610522   7.283   7.160   7.162  0.5472  0.1856 -1.9299
   19MOL    H4710523   7.437   7.272   7.028 -0.8525 -0.5355  0.7225
   19MOL    H4810524   7.415   7.287   7.363  2.5458 -1.5049  0.4519
   19MOL    H4910525   7.547   7.301   7.249 -0.4754 -0.4095 -0.0901
   19MOL    H5010526   7.365   7.612   7.245 -1.0132 -0.7899 -0.5427
   19MOL    H5110527   7.451   7.519   7.366  0.0377  1.7970  1.3957
   19MOL    H5210528   7.245   7.545   7.471 -0.0561 -2.3935  1.6765
   19MOL    H5310529   7.226   7.387   7.412  0.2882 -0.0087 -2.2049
   19MOL    H5410530   7.095   7.643   7.327  3.0668 -0.0912 -0.4705
   19MOL    H5510531   7.113   7.530   7.194  0.1227 -1.3850 -0.1691
   19MOL    H5610532   6.890   7.494   7.166  0.7638 -1.0864 -0.2474
   19MOL    H5710533   6.811   7.623   7.404 -1.3002  1.0604 -0.7931
   19MOL    H5810534   6.740   7.364   7.408 -1.9622 -4.0332 -0.5916
   19MOL    H5910535   6.651   7.434   7.281  0.4597  1.0797  1.4468
   19MOL    C6010536   6.824   7.175   7.261 -0.0900 -0.8103 -0.0056
   19MOL    C6110537   6.846   7.076   7.146 -1.3750  0.5237  0.0517
   19MOL    O6210538   6.727   7.006   7.114  0.0848  0.3752  0.0852
   19MOL    C6310539   6.956   6.972   7.167  0.1269  0.3090 -0.3172
   19MOL    O6410540   6.925   6.909   7.298 -0.1458  0.2818 -0.1180
   19MOL    C6510541   7.037   6.824   7.333 -0.2053 -1.1040  0.0642
   19MOL    C6610542   7.015   6.787   7.476  0.7173 -0.0487 -0.0489
   19MOL    C6710543   7.138   6.723   7.531  0.3386 -0.6969  0.1265
   19MOL    O6810544   7.121   6.724   7.674  0.3291 -0.6881  0.2927
   19MOL    C6910545   7.223   6.667   0.054 -0.0124 -0.0057  0.1967
   19MOL    O7010546   7.332   6.750   0.056 -0.0027 -0.7069 -0.6645
   19MOL    C7110547   7.172   6.655   0.204  0.8342 -0.7822  0.3336
   19MOL    O7210548   7.062   6.562   0.216  0.9284  0.3134 -0.1830
   19MOL    H7310549   6.790   7.125   7.351 -0.8273 -0.8569 -0.3083
   19MOL    H7410550   6.920   7.224   7.278  0.7865 -1.2689 -3.3004
   19MOL    H7510551   6.882   7.131   7.059  0.6259  0.5814  0.9013
   19MOL    H7610552   6.659   7.072   7.106  1.5532  1.7598 -1.1630
   19MOL    H7710553   6.970   6.890   7.097  0.1335  0.4379 -0.4671
   19MOL    H7810554   7.050   7.026   7.159  1.1948 -0.7329  3.9808
   19MOL    H7910555   7.128   6.881   7.314 -0.7436  0.0845  1.0521
   19MOL    H8010556   7.029   6.737   7.268  1.1996 -0.9176 -0.3721
   19MOL    H8110557   6.931   6.718   7.484  0.4525  0.3376  0.6039
   19MOL    H8210558   6.980   6.870   7.538 -1.7055 -1.4604  0.5645
   19MOL    H8310559   7.227   6.783   7.509 -0.1566 -0.3529 -0.9591
   19MOL    H8410560   7.157   6.621   7.497  0.5454 -1.1238  1.4941
   19MOL    H8510561   7.261   6.569   0.025  1.0302  0.0873  1.2113
   19MOL    H8610562   7.393   6.718   7.685  1.3204 -1.0400  0.7254
   19MOL    H8710563   7.255   6.620   0.265 -0.4817 -1.4572  1.7444
   19MOL    H8810564   7.127   6.749   0.237  1.3353  0.1935 -1.6663
   19MOL    C8910565   7.077   6.477   0.329 -0.3042 -0.3522 -0.6102
   19MOL    C9010566   6.987   6.356   0.299 -0.3621  0.2518  0.2118
   19MOL    O9110567   6.850   6.407   0.296 -0.5030 -0.3168 -0.0307
   19MOL    C9210568   7.010   6.276   0.174 -0.0220 -0.2164 -0.7349
   19MOL    O9310569   7.012   6.139   0.209 -0.8525 -0.1913  0.1356
   19MOL    C9410570   7.083   6.048   0.122 -0.2125 -0.1889  0.9744
   19MOL    C9510571   7.239   6.062   0.140  0.5234  0.1432 -0.6263
   19MOL    C9610572   7.338   6.027   0.031 -0.5063  0.4376 -0.0330
   19MOL    O9710573   7.465   6.046   0.072  0.2586 -0.5096  0.2978
   19MOL    C9810574   7.574   5.986   7.692  0.5783 -0.1416 -0.5031
   19MOL    O9910575   7.572   6.012   7.552 -0.4191 -0.3391  0.4448
   19MOL   C10010576   0.004   6.035   0.066  0.4738 -0.0735  0.2375
   19MOL   O10110577   0.032   5.952   0.173  0.2421 -0.5459  0.2929
   19MOL   H10210578   7.045   6.525   0.421 -0.1183 -0.0196 -0.7168
   19MOL   H10310579   7.178   6.435   0.334 -0.3519 -0.3787  0.1628
   19MOL   H10410580   6.996   6.285   0.381 -0.7651 -0.3493 -0.2629
   19MOL   H10510581   6.847   6.488   0.248 -2.5314 -1.3122 -1.6380
   19MOL   H10610582   6.933   6.293   0.099  0.5883 -1.0106 -1.5505
   19MOL   H10710583   7.106   6.303   0.130  0.8262  2.4994  2.5809
   19MOL   H10810584   7.071   6.075   0.017  1.7814 -0.5821  0.6217
   19MOL   H10910585   7.049   5.946   0.135 -0.6234 -0.2846 -0.7088
   19MOL   H11010586   7.255   6.011   0.234 -2.6184 -1.1046 -0.7116
   19MOL   H11110587   7.266   6.165   0.161  1.8183 -0.4063  0.4570
   19MOL   H11210588   7.324   5.925   7.690  0.8469  0.2323  0.0076
   19MOL   H11310589   7.323   6.089   7.637  0.5573 -0.3481 -0.7721
   19MOL   H11410590   7.572   5.879   0.016 -2.6472  0.0736  0.6498
   19MOL   H11510591   7.523   5.945   7.506 -0.3528 -1.0927  1.4499
   19MOL   H11610592   0.094   6.011   0.008  0.9962 -0.7407  1.3141
   19MOL   H11710593   7.684   6.142   0.081  1.9151  0.2275 -0.4213
   19MOL   C11810594   0.132   6.011   0.258 -0.8084 -0.7810  0.5856
   19MOL   C11910595   0.252   5.912   0.259 -0.7499 -0.2307  0.6677
   19MOL   O12010596   0.210   5.791   0.303  0.0179  0.1135 -0.0694
   19MOL   C12110597   0.378   5.957   0.337  0.1038 -0.4484  0.0447
   19MOL   O12210598   0.439   6.070   0.284  0.5996 -0.1659  0.0713
   19MOL   C12310599   0.571   6.093   0.347  0.2104  0.4955  0.3552
   19MOL   C12410600   0.634   6.219   0.294 -0.5875 -0.6353  0.1840
   19MOL   C12510601   0.779   6.219   0.330 -0.4669  0.1116 -0.8717
   19MOL   O12610602   0.790   6.197   0.471 -0.2003 -0.3829  0.3128
   19MOL   C12710603   0.897   6.119   0.511 -0.3277  0.2129 -0.1125
   19MOL   O12810604   0.866   5.984   0.477 -0.4323 -0.2506 -0.3594
   19MOL   C12910605   0.908   6.129   0.667  0.2629 -0.6901 -0.3714
   19MOL   O13010606   1.005   6.228   0.703  0.1999 -0.3204 -0.0478
   19MOL   H13110607   0.170   6.111   0.241 -0.5983 -0.8167  0.8396
   19MOL   H13210608   0.084   6.014   0.355  1.2432  0.8998  1.5848
   19MOL   H13310609   0.291   5.892   0.160 -0.8165 -0.3120  0.6577
   19MOL   H13410610   0.116   5.791   0.303 -0.0148 -2.1832  0.9535
   19MOL   H13510611   0.353   5.974   0.442  1.7982 -0.1720  0.4061
   19MOL   H13610612   0.451   5.877   0.342  0.6396  0.1782  3.3456
   19MOL   H13710613   0.635   6.008   0.324 -2.0239 -1.0700 -0.2429
   19MOL   H13810614   0.551   6.100   0.454 -2.2449 -1.5104  0.0898
   19MOL   H13910615   0.581   6.305   0.333  2.6995  1.4348  0.2583
   19MOL   H14010616   0.623   6.222   0.186 -0.9070 -0.3825  0.2232
   19MOL   H14110617   0.838   6.160   0.260 -0.5866  0.8061 -1.5583
   19MOL   H14210618   0.824   6.318   0.322 -0.4714  0.1438 -0.5356
   19MOL   H14310619   0.994   6.134   0.464  0.9077 -3.5684  1.0022
   19MOL   H14410620   0.796   5.963   0.537  0.1897  1.3616  0.9863
   19MOL   H14510621   0.810   6.153   0.710 -0.8591 -0.7759 -2.8113
   19MOL   H14610622   0.928   6.030   0.708  2.4724 -1.1512 -2.4876
   19MOL   C14710623   0.968   6.312   0.809  0.4225 -0.1622  0.3703
   19MOL   C14810624   1.009   6.280   0.953  0.0666  0.1450 -0.3171
   19MOL   O14910625   0.935   6.169   0.996  0.5987 -0.4352  0.0832
   19MOL   C15010626   0.988   6.395   1.050  0.1798  0.6603  0.5507
   19MOL   O15110627   0.846   6.404   1.064 -0.2759  0.0656  0.6437
   19MOL   C15210628   0.802   6.518   1.139 -0.3426 -0.6671 -0.8378
   19MOL   C15310629   0.656   6.506   1.176  0.0354  0.0386 -0.8594
   19MOL   C15410630   0.595   6.625   1.244  0.8411  0.3059  0.0646
   19MOL   O15510631   0.465   6.588   1.296 -0.4728  0.1824 -0.0250
   19MOL   C15610632   0.375   6.697   1.302 -0.1133 -0.9409  0.0504
   19MOL   O15710633   0.418   6.803   1.391  0.6502 -0.4425 -0.8346
   19MOL   C15810634   0.236   6.651   1.353 -0.5068  0.3104 -0.4787
   19MOL   O15910635   0.138   6.737   1.299  0.2330  0.3034  0.3705
   19MOL   H16010636   0.860   6.317   0.804  0.2934 -1.9769  1.0151
   19MOL   H16110637   1.003   6.412   0.780  0.4516 -0.4332 -0.5193
   19MOL   H16210638   1.115   6.258   0.963 -0.0800 -0.2072  0.4706
   19MOL   H16310639   0.854   6.205   1.027  1.7944  0.4576  2.3651
   19MOL   H16410640   1.047   6.372   1.139  1.2957  0.3904 -0.2442
   19MOL   H16510641   1.036   6.479   1.000  0.4916  0.9602  1.3492
   19MOL   H16610642   0.817   6.610   1.083  1.2984 -0.2185  0.3205
   19MOL   H16710643   0.851   6.530   1.235  1.7413 -1.4580 -1.7711
   19MOL   H16810644   0.657   6.431   1.255 -1.2235  1.4599  0.5085
   19MOL   H16910645   0.604   6.462   1.091 -0.6973 -0.0660 -0.3624
   19MOL   H17010646   0.664   6.672   1.315 -1.7588 -1.7390  4.0842
   19MOL   H17110647   0.591   6.711   1.177  1.0879  0.7940  0.6607
   19MOL   H17210648   0.372   6.736   1.200  0.8040  1.6707  0.9791
   19MOL   H17310649   0.372   6.877   1.355  1.7632  1.1699  0.9955
   19MOL   H17410650   0.224   6.548   1.321  1.1729  0.1452 -0.6057
   19MOL   H17510651   0.240   6.650   1.462 -0.9420 -0.0170 -0.4661
   19MOL   C17610652   7.693   6.700   1.317  0.5505  0.3158  0.3975
   19MOL   C17710653   7.612   6.811   1.250  0.5358 -0.3573 -0.4767
   19MOL   O17810654   7.596   6.770   1.113 -0.0837  0.0228  0.2182
   19MOL   C17910655   7.673   6.950   1.238 -0.1971 -0.1661 -0.1415
   19MOL   O18010656   7.565   7.038   1.220  0.5025 -0.0898 -0.1096
   19MOL   C18110657   7.602   7.163   1.156 -0.5036  0.3769  0.0269
   19MOL   C18210658   7.590   7.269   1.271  0.3379 -0.0197 -0.4130
   19MOL   C18310659   7.443   7.301   1.308 -0.7235  0.2200  0.2901
   19MOL   O18410660   7.421   7.377   1.424  0.0717  0.6006  0.4387
   19MOL   C18510661   7.289   7.415   1.443  0.0989 -0.5340  0.0106
   19MOL   O18610662   7.250   7.509   1.345 -1.2123 -0.6968  0.0115
   19MOL   C18710663   7.274   7.473   1.585  0.6083  0.2352 -0.4564
   19MOL   O18810664   7.301   7.371   1.677  0.4318  0.3914  0.1113
   19MOL   H18910665   7.681   6.695   1.425 -0.1643 -1.6452  0.2417
   19MOL   H19010666   7.668   6.598   1.289 -0.4942  0.2835  1.3959
   19MOL   H19110667   7.514   6.817   1.296  0.9058 -1.8376  0.5442
   19MOL   H19210668   7.575   6.854   1.075 -0.1362 -0.8247 -1.7173
   19MOL   H19310669   0.046   6.973   1.320 -0.2996 -2.9523  0.7727
   19MOL   H19410670   0.043   6.938   1.152  0.4235 -0.9732  0.4315
   19MOL   H19510671   7.532   7.185   1.075 -0.6280  2.3346  0.6295
   19MOL   H19610672   0.003   7.163   1.104 -0.0685  1.8474  0.7783
   19MOL   H19710673   7.634   7.353   1.217 -1.0908  1.7849  1.1353
   19MOL   H19810674   7.653   7.240   1.356  0.3995  1.5765  0.1021
   19MOL   H19910675   7.398   7.355   1.225 -1.4602 -1.1261 -0.2069
   19MOL   H20010676   7.386   7.208   1.313  1.9244 -1.3491  3.0728
   19MOL   H20110677   7.226   7.328   1.428 -3.5108  2.1284 -1.0912
   19MOL   H20210678   7.265   7.590   1.391 -1.7869 -0.9860  0.7060
   19MOL   H20310679   7.342   7.555   1.605  0.4333  0.2875 -0.0715
   19MOL   H20410680   7.173   7.509   1.601  0.9454  0.9950 -0.0397
   19MOL   C20510681   7.267   7.398   1.810  0.6966 -0.0421  0.2468
   19MOL   C20610682   7.356   7.309   1.903 -0.5205  0.0608 -0.5908
   19MOL   O20710683   7.340   7.175   1.866 -0.3054  0.0318 -0.0280
   19MOL   C20810684   7.506   7.342   1.874  0.2224  0.0946 -0.2261
   19MOL   O20910685   7.585   7.285   1.973  0.4557 -0.4309 -0.2527
   19MOL   C21010686   0.028   7.321   1.961  0.4052 -0.8431  0.4522
   19MOL   C21110687   0.122   7.257   2.059 -0.0256 -0.0630  0.2590
   19MOL   C21210688   0.276   7.299   2.057  0.0101  1.2091  0.5948
   19MOL   O21310689   0.354   7.216   2.141  0.4687  0.1801  0.1372
   19MOL   C21410690   0.390   7.088   2.083  0.2596 -0.6106  0.4272
   19MOL   O21510691   0.286   6.998   2.116 -0.3287  0.1250 -0.3383
   19MOL   C21610692   0.523   7.045   2.157 -0.0344 -0.0093  0.1512
   19MOL   O21710693   0.616   6.996   2.071 -0.2287 -0.0462  0.0600
   19MOL   H21810694   7.161   7.375   1.823  0.5210  0.7560  0.2435
   19MOL   H21910695   7.279   7.499   1.849  1.8624 -0.2078  0.3292
   19MOL   H22010696   7.326   7.323   2.007 -1.5546 -0.0990 -0.8676
   19MOL   H22110697   7.315   7.166   1.775 -0.7499 -1.5293  0.2280
   19MOL   H22210698   7.533   7.306   1.775 -0.3646  1.1419 -0.7762
   19MOL   H22310699   7.509   7.451   1.881  0.5434 -0.0906  4.0515
   19MOL   H22410700   0.042   7.429   1.969  1.8951 -1.1757  2.8047
   19MOL   H22510701   0.072   7.288   1.868 -0.8730 -0.0153 -0.4596
   19MOL   H22610702   0.098   7.151   2.046 -0.9762  0.3241 -1.2729
   19MOL   H22710703   0.074   7.271   2.155 -0.0410 -0.8866  0.3793
   19MOL   H22810704   0.318   7.293   1.957 -1.3210  1.0926  0.0256
   19MOL   H22910705   0.273   7.406   2.077 -0.5216  1.8221 -2.5196
   19MOL   H23010706   0.410   7.096   1.976 -0.4147  0.7317  0.3849
   19MOL   H23110707   0.287   6.979   2.209 -0.2609  0.6404 -0.2280
   19MOL   H23210708   0.559   7.136   2.204  1.9334 -0.8756  0.3978
   19MOL   H23310709   0.504   6.989   2.249 -1.9878  1.9650  0.9836
   19MOL   C23410710   0.708   7.095   2.016  0.2554  0.2736  0.0707
   19MOL   C23510711   0.777   7.039   1.896  0.0641  0.1657 -0.1562
   19MOL   O23610712   0.885   7.122   1.860 -0.0151 -0.2760  0.3928
   19MOL   C23710713   0.679   7.025   1.777  0.2528 -0.4296 -0.1370
   19MOL   O23810714   0.731   6.938   1.673  0.0801 -0.3150 -0.3741
   19MOL   C23910715   0.816   6.995   1.577  0.4657 -0.6721 -0.0613
   19MOL   C24010716   0.730   7.041   1.455 -0.4546 -0.3070 -0.6344
   19MOL   C24110717   0.832   7.106   1.359  0.1354  0.6417 -0.5305
   19MOL   O24210718   0.890   6.997   1.292 -0.4652 -0.0052 -0.1151
   19MOL   C24310719   0.994   7.042   1.206  0.0146  0.4712  0.4497
   19MOL   O24410720   0.947   7.130   1.111 -0.1752 -0.1355  0.1715
   19MOL   C24510721   1.058   6.918   1.143  0.5519 -0.8619  0.5952
   19MOL   O24610722   1.152   6.862   1.229 -0.4358 -0.5857 -0.2969
   19MOL   H24710723   0.641   7.177   1.988 -2.8682 -2.6429 -1.2802
   19MOL   H24810724   0.779   7.126   2.093  0.4692 -1.1168  0.4485
   19MOL   H24910725   0.822   6.944   1.923  0.7790  0.3256 -0.7797
   19MOL   H25010726   0.839   7.204   1.850  2.2729  1.2954  2.1382
   19MOL   H25110727   0.585   6.978   1.808 -0.8977  1.0886 -1.1899
   19MOL   H25210728   0.638   7.120   1.741  0.9037  0.5480  1.6285
   19MOL   H25310729   0.890   6.925   1.538  0.1734 -0.4695 -1.0037
   19MOL   H25410730   0.878   7.077   1.614  1.9706 -1.8259  0.0081
   19MOL   H25510731   0.664   7.118   1.495 -0.3296 -0.7007  0.3482
   19MOL   H25610732   0.679   6.962   1.400 -0.7765 -0.6686  0.1752
   19MOL   H25710733   0.765   7.168   1.298 -1.2716 -0.9705 -0.6659
   19MOL   H25810734   0.902   7.173   1.409 -0.6446  1.5800 -0.6662
   19MOL   H25910735   1.060   7.089   1.280 -0.8292  1.1372  0.7907
   19MOL   H26010736   0.913   7.073   1.044  1.9096 -2.1094  0.7418
   19MOL   H26110737   0.981   6.855   1.099  0.5911 -1.0129  0.7460
   19MOL   H26210738   1.115   6.962   1.060 -0.1384  0.3622  0.7500
   19MOL   C26310739   1.101   6.751   1.291 -0.0106  0.2713  0.1725
   19MOL   C26410740   1.191   6.699   1.410 -0.0342  0.3060  0.0415
   19MOL   O26510741   1.164   6.781   1.524  0.5950  0.9244 -0.1937
   19MOL   C26610742   1.163   6.559   1.459 -0.3333  0.1192  0.5666
   19MOL   O26710743   1.023   6.550   1.501  0.1318 -0.3167  0.1457
   19MOL   C26810744   0.991   6.420   1.541 -0.2249 -0.9826 -0.2869
   19MOL   C26910745   0.876   6.418   1.644 -0.0630 -0.1954 -0.3142
   19MOL   C27010746   0.756   6.506   1.592 -0.0481  0.2634 -0.3095
   19MOL   O27110747   0.662   6.537   1.694 -0.1095  0.4352 -0.4284
   19MOL   C27210748   0.568   6.629   1.662 -0.6426 -0.0631 -0.3203
   19MOL   O27310749   0.475   6.565   1.583  0.5838  0.1014 -0.0604
   19MOL   C27410750   0.484   6.678   1.785 -0.1350 -0.2923 -0.0632
   19MOL   O27510751   0.397   6.785   1.753 -0.1877  0.2323 -0.4909
   19MOL   H27610752   1.095   6.676   1.212  0.8451  1.9888 -1.5711
   19MOL   H27710753   1.005   6.771   1.339 -0.7314 -0.0221 -1.1067
   19MOL   H27810754   1.296   6.704   1.382 -0.1002 -2.4231 -0.7597
   19MOL   H27910755   1.073   6.765   1.545  0.7225  2.7973  2.0489
   19MOL   H28010756   1.190   6.490   1.379  0.7140  0.3859  0.6891
   19MOL   H28110757   1.228   6.531   1.542 -0.8235  0.5186  1.0969
   19MOL   H28210758   1.079   6.362   1.569  0.0669 -0.7836 -0.7833
   19MOL   H28310759   0.949   6.386   1.447  0.7144  1.0079 -1.4515
   19MOL   H28410760   0.911   6.457   1.740  1.1544 -1.0022 -0.4100
   19MOL   H28510761   0.841   6.316   1.662 -0.6551  0.2269  1.0064
   19MOL   H28610762   0.790   6.600   1.548  1.9119  1.1693  3.0090
   19MOL   H28710763   0.706   6.460   1.507 -1.6017  1.8200 -0.2684
   19MOL   H28810764   0.606   6.715   1.607  0.8872  0.0596  0.9236
   19MOL   H28910765   0.465   6.621   1.507  1.1396  0.9677  0.5017
   19MOL   H29010766   0.438   6.590   1.830 -0.7853 -0.2262 -0.5892
   19MOL   H29110767   0.555   6.714   1.859 -1.7253 -1.5933  2.1533
   19MOL   C29210768   0.328   6.840   1.863 -0.2581 -0.5068 -0.1404
   19MOL   C29310769   0.239   6.946   1.794 -0.2134  0.1886  0.3683
   19MOL   O29410770   0.322   7.035   1.718 -0.3965  0.3885  0.2388
   19MOL   C29510771   0.125   6.886   1.706 -0.3236  0.3202  0.0873
   19MOL   O29610772   0.021   6.979   1.678  0.0027  0.1824  0.4082
   19MOL   C29710773   7.602   6.918   1.620 -0.7332  0.1161 -0.9467
   19MOL   C29810774   7.484   7.014   1.621  0.1953 -0.3574  0.4120
   19MOL   C29910775   7.372   6.986   1.514 -0.3188 -0.0068 -0.3363
   19MOL   O30010776   7.252   7.063   1.535  0.4479  0.5138  0.1908
   19MOL   C30110777   7.129   6.990   1.540 -0.7750  0.3128 -0.2812
   19MOL   O30210778   7.120   6.914   1.654  0.6500 -0.1172 -0.4398
   19MOL   C30310779   7.014   7.088   1.544  0.2607 -0.5602  0.3237
   19MOL   O30410780   6.951   7.101   1.421  0.4097  0.1573  0.0105
   19MOL   H30510781   0.274   6.769   1.926  0.4722 -1.5469 -0.6782
   19MOL   H30610782   0.409   6.872   1.930 -0.0874 -1.6874  0.2322
   19MOL   H30710783   0.196   7.003   1.876 -0.6931 -1.3629  1.2273
   19MOL   H30810784   0.371   6.972   1.668  0.1646  0.8012  0.2624
   19MOL   H30910785   0.174   6.852   1.615 -0.7565  1.1210 -0.4453
   19MOL   H31010786   0.080   6.799   1.755 -1.3617  0.4134 -0.6725
   19MOL   H31110787   7.565   6.827   1.668 -1.4801  0.9260  0.0344
   19MOL   H31210788   7.627   6.896   1.517 -0.0695 -0.0230 -0.7608
   19MOL   H31310789   7.517   7.118   1.615  1.1791 -0.6894 -0.0763
   19MOL   H31410790   7.439   7.013   1.720  1.5169 -1.2187  1.0129
   19MOL   H31510791   7.426   7.016   1.424 -1.3312  2.7067 -0.0943
   19MOL   H31610792   7.345   6.881   1.513  0.5760 -0.2338 -2.3446
   19MOL   H31710793   7.108   6.921   1.458 -0.4219 -1.3608  1.0116
   19MOL   H31810794   7.040   6.864   1.644 -0.0287  0.7474  0.5678
   19MOL   H31910795   7.054   7.182   1.582 -2.1444 -0.6117  3.2093
   19MOL   H32010796   6.931   7.049   1.604 -0.0684 -2.2493 -1.1829
   19MOL   C32110797   6.839   7.185   1.419 -0.9890  0.0009  0.6440
   19MOL   C32210798   6.767   7.149   1.292 -0.6898 -0.6343 -0.1717
   19MOL   O32310799   6.644   7.216   1.301 -0.0617 -0.2395  0.1091
   19MOL   C32410800   6.833   7.198   1.164 -0.4039 -0.2067 -0.2778
   19MOL   O32510801   6.836   7.342   1.147 -0.3197 -0.2388 -0.2687
   19MOL   C32610802   6.874   7.394   1.018  0.0877 -0.4585  0.4046
   19MOL   C32710803   6.845   7.548   1.013  0.8641 -0.2780  0.1344
   19MOL   C32810804   6.957   7.631   1.084  0.9210 -0.1343 -0.2625
   19MOL   O32910805   6.921   0.076   1.077 -0.1410  0.0704 -0.4069
   19MOL   C33010806   7.037   0.148   1.075 -0.2190  0.1240 -0.4636
   19MOL   O33110807   7.098   0.145   0.951 -0.3395  0.4392 -0.5451
   19MOL   C33210808   6.995   0.295   1.107  0.1265 -0.2063  0.3327
   19MOL   O33310809   7.096   0.361   1.183 -0.3661  0.4093 -0.3949
   19MOL   H33410810   6.868   7.290   1.416 -1.0922  0.0495  1.3488
   19MOL   H33510811   6.772   7.163   1.502 -2.0148  3.9707  0.9556
   19MOL   H33610812   6.743   7.043   1.286 -0.6522 -0.6379 -0.2755
   19MOL   H33710813   6.652   7.307   1.276 -1.7286 -0.7025 -2.4221
   19MOL   H33810814   6.783   7.157   1.077  0.6617  2.1633 -2.0598
   19MOL   H33910815   6.933   7.156   1.150 -0.1358  0.8251 -1.5524
   19MOL   H34010816   6.811   7.345   0.944 -0.7055  2.8905 -1.2150
   19MOL   H34110817   6.977   7.371   0.990 -0.1384 -0.3449 -0.5213
   19MOL   H34210818   6.829   7.586   0.913  0.9228  0.5803  0.4490
   19MOL   H34310819   6.747   7.564   1.058  1.2702  1.1990  0.5149
   19MOL   H34410820   6.967   7.605   1.189 -0.3190  0.5393  0.0361
   19MOL   H34510821   7.053   7.609   1.038  0.5960  0.0077 -1.0212
   19MOL   H34610822   7.107   0.112   1.150  1.2906 -0.8617 -2.2884
   19MOL   H34710823   7.110   0.230   0.912 -1.2856  0.7032 -0.2588
   19MOL   H34810824   6.972   0.345   1.012 -0.6842 -0.0853  0.5941
   19MOL   H34910825   6.912   0.285   1.176 -0.2388  0.2355 -0.0378
   19MOL   C35010826   7.049   0.475   1.246 -0.2439 -0.4125 -0.0160
   19MOL   C35110827   7.172   0.552   1.297 -0.2387 -0.6349 -0.0354
   19MOL   O35210828   7.232   0.604   1.191 -0.2090 -0.1746  0.0315
   19MOL   C35310829   7.129   0.660   1.395 -0.0346 -0.4408 -0.4367
   19MOL   O35410830   7.086   0.625   1.523  0.0301  0.1101  0.3077
   19MOL   C35510831   7.061   0.730   1.615  0.4155 -0.2602  0.4377
   19MOL   C35610832   7.195   0.802   1.663 -0.4049  0.1213  0.0999
   19MOL   C35710833   7.173   0.893   1.786  0.3049  0.2796  0.2078
   19MOL   O35810834   7.128   1.018   1.745  0.6990 -0.2478 -0.4533
   19MOL   C35910835   7.146   1.114   1.851 -0.1139  0.1561  0.6936
   19MOL   O36010836   7.276   1.157   1.852 -0.7586 -0.5438  0.2319
   19MOL   C36110837   7.038   1.221   1.837 -0.0519 -0.1444 -0.0736
   19MOL   O36210838   6.912   1.149   1.827  0.1171 -0.0505 -0.5678
   19MOL   H36310839   6.982   0.441   1.325 -2.2347 -0.9614 -1.8768
   19MOL   H36410840   6.982   0.533   1.182 -0.8568  1.8175  2.5248
   19MOL   H36510841   7.242   0.476   1.332 -1.0708 -1.0358  0.7734
   19MOL   H36610842   7.242   0.543   1.119  3.4938  1.1063 -0.6364
   19MOL   H36710843   7.216   0.724   1.411 -0.7857  0.5932 -0.4187
   19MOL   H36810844   7.055   0.720   1.343 -0.3809 -0.0431  0.5163
   19MOL   H36910845   7.008   0.686   1.699 -0.0628 -1.4357 -0.4552
   19MOL   H37010846   7.003   0.797   1.552 -0.7676 -0.8556  0.8884
   19MOL   H37110847   7.240   0.863   1.585 -1.6650  0.2082 -0.5868
   19MOL   H37210848   7.276   0.730   1.677 -3.1375 -3.2114 -0.2775
   19MOL   H37310849   7.099   0.852   1.854 -0.0865 -2.7738 -1.9769
   19MOL   H37410850   7.264   0.887   1.847 -0.4083 -3.3875  1.0040
   19MOL   H37510851   7.123   1.070   1.948  3.4255  1.6269  2.2956
   19MOL   H37610852   7.312   1.147   1.765  1.8483 -1.4528  1.3529
   19MOL   H37710853   7.030   1.281   1.927 -2.6512 -2.4706  1.3291
   19MOL   H37810854   7.059   1.284   1.750  0.0295 -0.9640 -0.6561
   19MOL   C37910855   6.799   1.238   1.833 -0.0580  0.1148  0.3881
   19MOL   C38010856   6.654   1.161   1.827 -0.1702 -0.3363 -0.5852
   19MOL   O38110857   6.635   1.128   1.965  0.0816  0.0844 -0.0377
   19MOL   C38210858   6.535   1.245   1.776 -0.1529  0.0385  0.6475
   19MOL   O38310859   6.551   1.250   1.634 -0.1357  0.6778  0.3586
   19MOL   C38410860   6.440   1.305   1.568 -0.1401 -0.3747 -0.3787
   19MOL   C38510861   6.470   1.324   1.414  0.1139  0.1686  0.2898
   19MOL   C38610862   6.364   1.413   1.356  0.2566  0.2748 -0.9203
   19MOL   O38710863   6.368   1.391   1.218  0.5308 -0.2277  0.1430
   19MOL   C38810864   6.304   1.490   1.146 -0.5600  0.0083 -0.0567
   19MOL   O38910865   6.382   1.608   1.138  0.2084 -0.3385  0.2764
   19MOL   C39010866   6.269   1.429   1.009 -0.6297 -0.1893 -0.3989
   19MOL   O39110867   6.384   1.363   0.944 -0.7534 -0.1053 -0.2687
   19MOL   H39210868   6.791   1.298   1.743 -0.0726 -1.2230 -0.5159
   19MOL   H39310869   6.794   1.294   1.926 -0.9492  1.2163 -0.3238
   19MOL   H39410870   6.680   1.074   1.766  1.6955  0.3162 -0.7364
   19MOL   H39510871   6.659   1.038   1.983  0.3185 -0.2314 -1.7919
   19MOL   H39610872   6.438   1.201   1.802  0.3536 -1.3345  0.2491
   19MOL   H39710873   6.550   1.343   1.822  2.8313  0.4703 -1.1925
   19MOL   H39810874   6.427   1.400   1.620  1.2271 -0.3774 -0.0005
   19MOL   H39910875   6.353   1.245   1.592  0.1102 -0.4505  0.3769
   19MOL   H40010876   6.474   1.230   1.358 -0.5049  1.7106 -2.4168
   19MOL   H40110877   6.567   1.369   1.392 -0.3733  1.1211  0.1013
   19MOL   H40210878   6.263   1.397   1.393  0.7854 -1.1712 -0.0418
   19MOL   H40310879   6.389   1.515   1.386 -0.4146  0.2411 -0.2205
   19MOL   H40410880   6.211   1.506   1.201 -1.2562 -0.6306 -1.0427
   19MOL   H40510881   6.466   1.569   1.123 -0.0554 -1.3107  1.2105
   19MOL   H40610882   6.190   1.357   1.031 -0.2405  0.0910  2.0383
   19MOL   H40710883   6.230   1.512   0.950  4.2055  2.1408 -0.5737
   19MOL   C40810884   6.336   1.289   0.830  0.9580  0.1657 -0.2228
   19MOL   C40910885   6.451   1.182   0.782 -0.3085 -0.2945 -0.0953
   19MOL   O41010886   6.396   1.115   0.669  0.0454 -0.1117  0.1978
   19MOL   C41110887   6.490   1.090   0.905  0.3640  0.1907  0.2843
   19MOL   O41210888   6.370   1.037   0.955 -0.3101 -0.4193  0.1471
   19MOL   C41310889   6.386   0.940   1.057  0.8080 -0.5425  0.6607
   19MOL   C41410890   6.249   0.917   1.110  0.1028  0.4146  0.0584
   19MOL   C41510891   6.250   0.864   1.257  0.3079  0.3599 -0.4601
   19MOL   O41610892   6.122   0.886   1.318 -0.1093 -0.3669 -0.4024
   19MOL   C41710893   6.116   0.990   1.410  0.3533  0.1394 -1.0672
   19MOL   O41810894   6.142   0.944   1.539 -0.6530  0.6676 -0.5535
   19MOL   C41910895   5.972   1.044   1.406 -0.6082  0.7762  0.4234
   19MOL   O42010896   5.977   1.189   1.412 -0.3568 -0.6972 -0.8476
   19MOL   H42110897   6.322   1.359   0.748  0.1484 -1.0077 -1.1138
   19MOL   H42210898   6.236   1.245   0.840  1.2837 -0.8931 -1.4319
   19MOL   H42310899   6.543   1.227   0.746 -1.4257  2.4807  0.3947
   19MOL   H42410900   6.321   1.069   0.704  0.8825 -1.3040  0.4760
   19MOL   H42510901   6.561   1.014   0.872  0.3269  0.2858 -0.0177
   19MOL   H42610902   6.538   1.154   0.979  0.1367 -0.8431  1.3317
   19MOL   H42710903   6.424   0.840   1.037 -0.3845 -1.1127  1.2209
   19MOL   H42810904   6.446   0.982   1.138  0.3227  0.7574  0.3597
   19MOL   H42910905   6.183   0.855   1.049  0.6895  0.6196 -0.7949
   19MOL   H43010906   6.211   1.019   1.119  1.9640  1.1099  0.2276
   19MOL   H43110907   6.271   0.758   1.254  2.2838  0.7361 -0.6866
   19MOL   H43210908   6.330   0.899   1.323 -0.6997  0.4634  0.7147
   19MOL   H43310909   6.190   1.068   1.389  2.6002 -2.1711 -1.8907
   19MOL   H43410910   6.096   0.999   1.601  0.8059  1.1110  0.1653
   19MOL   H43510911   5.912   1.006   1.323 -0.2916 -0.6323  0.8224
   19MOL   H43610912   5.919   1.010   1.495  1.6850 -0.0550  1.5144
   19MOL   C43710913   5.910   1.242   1.530  0.1156  0.1556  0.6365
   19MOL   C43810914   6.007   1.239   1.650  0.4758  0.0466  0.3985
   19MOL   O43910915   6.024   1.109   1.698 -0.2495  0.2981  0.3681
   19MOL   C44010916   5.961   1.321   1.778  0.0280 -0.0755  0.2756
   19MOL   O44110917   6.057   1.327   1.884  0.2109  0.1470 -0.1311
   19MOL   C44210918   6.159   1.427   1.867  0.6375  0.1776 -0.1537
   19MOL   C44310919   6.266   1.417   1.973  0.3387 -0.0015  0.8260
   19MOL   C44410920   6.216   1.443   2.116  0.0796 -0.1151 -0.5499
   19MOL   O44510921   6.322   1.446   2.212 -0.2217 -0.1515  0.0556
   19MOL   C44610922   6.273   1.440   2.345 -0.5860  0.1333  0.1046
   19MOL   O44710923   6.218   1.561   2.376 -0.3699 -0.0174  0.5468
   19MOL   C44810924   6.398   1.416   2.438 -0.2427  0.1984  0.1450
   19MOL   O44910925   6.414   1.279   2.465  0.5237 -0.0293 -0.2750
   19MOL   H45010926   5.884   1.347   1.514  1.0215  0.1539 -0.9006
   19MOL   H45110927   5.818   1.185   1.530  0.8764 -1.0925  0.2524
   19MOL   H45210928   6.097   1.286   1.611 -0.3846  0.9204 -0.5785
   19MOL   H45310929   5.979   1.112   1.781 -1.1179 -1.5872  0.0057
   19MOL   H45410930   5.940   1.424   1.752 -1.4070 -0.1002  1.3214
   19MOL   H45510931   5.868   1.290   1.824 -0.9946 -0.6808 -2.1188
   19MOL   H45610932   6.106   1.521   1.874 -0.2946 -0.4108  1.0255
   19MOL   H45710933   6.202   1.413   1.768 -2.4527 -1.0109 -1.3685
   19MOL   H45810934   6.337   1.495   1.946 -2.3146  1.9406 -0.8390
   19MOL   H45910935   6.315   1.320   1.964  1.3357  0.7423 -2.4298
   19MOL   H46010936   6.160   1.536   2.122 -2.5337 -1.7848  2.3971
   19MOL   H46110937   6.143   1.366   2.139 -1.3554  0.6300 -2.5129
   19MOL   H46210938   6.199   1.360   2.353  0.2661 -0.6467  0.2657
   19MOL   H46310939   6.203   1.566   2.469 -0.5564 -1.1750  0.5808
   19MOL   H46410940   6.487   1.465   2.398  1.0102 -3.1252 -1.3550
   19MOL   H46510941   6.386   1.457   2.538  0.3338  1.2438 -0.2072
   19MOL   C46610942   6.490   1.212   2.365  0.1521 -0.1705  0.5451
   19MOL   C46710943   6.638   1.213   2.402 -0.5767  0.1205  0.2609
   19MOL   O46810944   6.655   1.098   2.476 -0.3222 -0.2637  0.3005
   19MOL   C46910945   6.734   1.214   2.276  0.1967  0.2648  0.2634
   19MOL   O47010946   6.860   1.253   2.322  0.1669 -0.3808 -0.4333
   19MOL   C47110947   6.957   1.232   2.222  0.7513 -0.4198 -0.2941
   19MOL   C47210948   7.087   1.285   2.285 -0.6663 -0.5793 -0.1365
   19MOL   C47310949   7.211   1.228   2.214  0.8419 -0.4512 -0.1997
   19MOL   O47410950   7.334   1.295   2.233 -0.4277 -0.2669  0.1552
   19MOL   C47510951   7.439   1.222   2.177 -0.0058  0.6434  0.0560
   19MOL   O47610952   7.472   1.103   2.258  0.1905 -0.6067 -0.0099
   19MOL   C47710953   7.561   1.311   2.158  0.2552 -0.0205 -0.0573
   19MOL   O47810954   7.535   1.427   2.081 -0.0933  0.0173  0.2012
   19MOL   H47910955   6.461   1.247   2.266  1.1748  0.8427  0.5878
   19MOL   H48010956   6.461   1.108   2.357 -0.3040 -0.0739  0.9504
   19MOL   H48110957   6.675   1.299   2.457 -0.9908  0.6732 -0.3324
   19MOL   H48210958   6.724   1.116   2.538  0.3521  3.2819 -1.4061
   19MOL   H48310959   6.734   1.108   2.251 -2.0740  0.2061  0.4292
   19MOL   H48410960   6.697   1.278   2.195  0.2898  0.1890  0.1609
   19MOL   H48510961   6.929   1.281   2.128  2.2921 -1.8983 -1.5597
   19MOL   H48610962   6.980   1.130   2.190 -2.3557 -2.0756  2.4199
   19MOL   H48710963   7.082   1.266   2.392  1.5778 -1.4381 -0.1502
   19MOL   H48810964   7.091   1.390   2.259  1.6705 -1.2474 -2.7820
   19MOL   H48910965   7.224   1.123   2.241 -3.1395 -1.0000 -0.1606
   19MOL   H49010966   7.190   1.223   2.107 -0.0237 -0.3054 -0.0362
   19MOL   H49110967   7.406   1.195   2.077 -0.6957 -1.1499  0.7560
   19MOL   H49210968   7.523   1.125   2.334  1.9162  1.1819 -1.6175
   19MOL   H49310969   7.590   1.350   2.255 -0.5193  0.7019 -0.1053
   19MOL   H49410970   7.647   1.257   2.119  0.9219 -0.4867  2.0257
   19MOL   C49510971   7.515   1.421   1.947 -0.8226  0.0620  0.5111
   19MOL   C49610972   7.448   1.544   1.892 -0.1749 -0.2808  0.7338
   19MOL   O49710973   7.497   1.580   1.763  0.4045  0.4303  0.2084
   19MOL   C49810974   7.290   1.535   1.869  0.0127  0.2770 -1.5877
   19MOL   O49910975   7.249   1.653   1.815 -0.3219 -0.0063 -0.4985
   19MOL   C50010976   7.121   1.657   1.751 -0.2911  0.5564  0.0647
   19MOL   C50110977   7.119   1.794   1.683 -0.3823 -0.3395 -0.1548
   19MOL   C50210978   7.194   1.798   1.549 -0.2744 -0.6058 -0.0146
   19MOL   O50310979   7.120   1.715   1.458 -0.0485 -0.0519  0.5004
   19MOL   C50410980   7.131   1.742   1.321 -0.3401 -0.4610  0.1073
   19MOL   O50510981   7.078   1.865   1.285 -0.1040 -0.3514  0.0758
   19MOL   C50610982   7.050   1.633   1.241  0.0780  0.1817 -0.0140
   19MOL   O50710983   6.933   1.596   1.314 -0.4043 -0.1177 -0.4541
   19MOL   H50810984   7.446   1.339   1.927  0.2206 -0.7557  0.1859
   19MOL   H50910985   7.604   1.397   1.888 -1.3078 -1.7264  0.4589
   19MOL   H51010986   7.469   1.625   1.962 -0.4900 -1.3992  2.1402
   19MOL   H51110987   7.427   1.633   1.729  0.1917 -0.0171 -0.0438
   19MOL   H51210988   7.269   1.447   1.808 -0.0726 -0.9840  0.2188
   19MOL   H51310989   7.240   1.539   1.965 -1.1810 -1.7179 -2.0942
   19MOL   H51410990   7.047   1.656   1.830  1.3933 -2.1220  1.6791
   19MOL   H51510991   7.096   1.564   1.699  0.3663  1.0942 -1.2351
   19MOL   H51610992   7.165   1.867   1.750 -2.6446  1.0748 -0.0926
   19MOL   H51710993   7.020   1.831   1.658  0.2600 -0.7997 -3.6102
   19MOL   H51810994   7.208   1.899   1.509  1.5516 -0.5448  0.7320
   19MOL   H51910995   7.296   1.759   1.556 -0.6732 -2.0023 -1.5188
   19MOL   H52010996   7.238   1.735   1.303 -0.5024 -0.0610 -1.0232
   19MOL   H52110997   6.998   1.885   1.332 -0.5436 -0.9042 -0.4464
   19MOL   H52210998   7.039   1.662   1.137  1.0812 -1.6528 -0.6474
   19MOL   H52310999   7.117   1.549   1.258 -1.9407 -1.4889 -0.0018
   19MOL   C52411000   6.859   1.477   1.283 -0.0604 -0.1198 -0.6206
   19MOL   C52511001   6.782   1.498   1.152  0.4067  0.7353 -0.1356
   19MOL   O52611002   6.665   1.567   1.178 -0.2387 -0.5190 -0.0611
   19MOL   C52711003   6.749   1.360   1.090  0.4685 -0.5292 -0.3037
   19MOL   O52811004   6.857   1.298   1.019  0.3274  0.1094 -0.3320
   19MOL   C52911005   6.856   1.158   0.996 -0.1404  0.1052 -0.0062
   19MOL   C53011006   6.979   1.128   0.919  0.0760 -1.2094  0.2762
   19MOL   C53111007   7.008   0.972   0.917 -0.2726  0.5839 -0.6354
   19MOL   O53211008   7.123   0.931   0.839  0.0295  0.1154  0.1201
   19MOL   C53311009   7.145   0.790   0.831 -0.4722 -0.1240 -0.3768
   19MOL   O53411010   7.047   0.721   0.751 -0.0197 -0.1756 -0.2575
   19MOL   C53511011   7.287   0.770   0.771 -0.0957  0.4703  0.5848
   19MOL   O53611012   7.383   0.776   0.882 -0.0635  0.4253 -0.1190
   19MOL   H53711013   6.787   1.450   1.360 -0.3890 -1.0176 -1.2334
   19MOL   H53811014   6.928   1.395   1.262 -0.2791 -0.7557  1.0649
   19MOL   H53911015   6.841   1.557   1.082  1.6426 -1.1234 -0.7109
   19MOL   H54011016   6.683   1.655   1.207  0.1921 -0.5274 -0.3024
   19MOL   H54111017   6.706   1.297   1.168 -0.0837  1.2229  0.8605
   19MOL   H54211018   6.667   1.372   1.018  0.1465  1.2819  0.3311
   19MOL   H54311019   6.770   1.132   0.933  1.3172 -0.2638 -1.9021
   19MOL   H54411020   6.857   1.093   1.083  0.0020 -1.6718 -1.3069
   19MOL   H54511021   7.068   1.172   0.964  0.5680 -1.0224 -0.8598
   19MOL   H54611022   6.973   1.163   0.816  1.3729 -1.1876  0.1980
   19MOL   H54711023   7.029   0.943   1.020 -3.4337 -1.3547 -0.4484
   19MOL   H54811024   6.928   0.912   0.873  1.7478 -0.3677 -3.1424
   19MOL   H54911025   7.152   0.737   0.926 -0.5003  2.2694  0.9895
   19MOL   H55011026   7.067   0.705   0.660  0.7011 -1.0776  0.0543
   19MOL   H55111027   7.294   0.680   0.710 -0.2485  2.5694 -2.6823
   19MOL   H55211028   7.313   0.841   0.692  2.3099  0.1750  1.0633
   19MOL   C55311029   7.431   0.911   0.888  0.0694 -0.2958 -0.9913
   19MOL   C55411030   7.485   0.927   1.033  0.6772  0.1238 -0.0932
   19MOL   O55511031   7.600   0.851   1.049  0.0073  0.3278  0.0707
   19MOL   C55611032   7.383   0.922   1.146  0.0118 -0.5589 -0.1622
   19MOL   O55711033   7.299   1.033   1.173  0.2688  0.2116 -0.0687
   19MOL   C55811034   7.193   1.009   1.258 -0.0902  0.4206  0.0067
   19MOL   C55911035   7.137   1.152   1.297  0.2326  0.7286  0.2946
   19MOL   C56011036   7.045   1.146   1.413  0.2083  0.0333 -0.0580
   19MOL   O56111037   6.934   1.072   1.371 -0.2957  0.1106 -0.3182
   19MOL   C56211038   6.825   1.065   1.457  0.4457  0.1834  0.1818
   19MOL   O56311039   6.767   1.192   1.470 -0.2351  0.2845  0.4302
   19MOL   C56411040   6.730   0.971   1.386  0.1040 -0.4912 -0.2145
   19MOL   O56511041   6.603   0.973   1.444  0.2195 -0.2594  0.1137
   19MOL   H56611042   7.358   0.992   0.886 -0.2079 -0.5031  0.2112
   19MOL   H56711043   7.505   0.943   0.815  0.3831  0.2083 -0.4555
   19MOL   H56811044   7.512   1.033   1.035 -0.9450  0.5635 -0.4187
   19MOL   H56911045   7.568   0.763   1.034 -2.6008  1.2105  0.2353
   19MOL   H57011046   7.329   0.829   1.128 -3.3277  0.8435  1.9976
   19MOL   H57111047   7.437   0.897   1.238  1.0895  0.4270 -0.5113
   19MOL   H57211048   7.118   0.945   1.213 -1.9155  3.0743 -0.8280
   19MOL   H57311049   7.237   0.967   1.348  0.2001  0.5279 -0.0838
   19MOL   H57411050   7.078   1.199   1.218 -1.1156 -1.8310 -0.2824
   19MOL   H57511051   7.222   1.218   1.313  2.7863 -1.9007 -1.7753
   19MOL   H57611052   7.103   1.090   1.486 -0.1644 -1.8582 -1.1748
   19MOL   H57711053   7.027   1.244   1.456 -0.5555 -0.1828  0.1229
   19MOL   H57811054   6.857   1.029   1.554  0.3758 -0.6643 -0.1115
   19MOL   H57911055   6.676   1.166   1.476 -0.1406  0.0633  0.9806
   19MOL   H58011056   6.713   1.017   1.289  1.1403 -0.3757 -0.3498
   19MOL   H58111057   6.777   0.873   1.378 -0.7490 -0.8664 -0.7273
   19MOL   H58211058   6.557   0.893   1.423 -0.1621  0.3334 -1.4039
   20MOL     C111059   4.783   2.813   5.950 -0.0286  0.6982 -0.1761
   20MOL     C211060   4.926   2.809   6.009  0.2961  0.4841 -0.1609
   20MOL     O311061   4.992   2.931   6.016 -0.3735  0.1601 -0.0615
   20MOL     C411062   4.920   2.745   6.153  0.0534  0.2595  0.6799
   20MOL     O511063   4.917   2.608   6.152  0.4080  0.2313 -0.3601
   20MOL     C611064   4.862   2.556   6.277  0.3421  0.8950 -0.4273
   20MOL     C711065   4.980   2.546   6.379  0.0566 -0.3902 -0.0100
   20MOL     C811066   4.932   2.476   6.508  0.4846  0.4805 -0.3129
   20MOL     O911067   4.897   2.341   6.482 -0.7000  0.5063  0.0575
   20MOL    C1011068   4.832   2.288   6.587  0.6123 -0.0671 -0.1020
   20MOL    O1111069   4.909   2.286   6.705  0.3192  0.1201 -0.1241
   20MOL    C1211070   4.790   2.149   6.543  0.2446  0.6667 -0.6071
   20MOL    O1311071   4.683   2.111   6.626 -0.0829 -0.3671  0.4979
   20MOL    H1411072   4.781   2.842   5.845 -1.9037 -0.0817 -0.3791
   20MOL    H1511073   4.741   2.896   6.008  3.2509  0.2884  2.9394
   20MOL    H1611074   4.990   2.748   5.946 -1.0811 -1.2172  0.0547
   20MOL    H1711075   5.081   2.916   6.043 -0.8048 -2.4741 -0.0102
   20MOL    H1811076   4.995   2.778   6.225  0.3118  0.7606  0.1836
   20MOL    H1911077   4.830   2.782   6.201  0.3966 -0.1839  1.6722
   20MOL    H2011078   4.822   2.457   6.256 -2.8674  1.5782  2.0243
   20MOL    H2111079   4.776   2.615   6.309 -0.9149  0.0933 -2.2445
   20MOL    H2211080   5.019   2.641   6.416  1.4245 -0.9713  0.0485
   20MOL    H2311081   5.059   2.490   6.331 -1.0544 -0.3166 -1.9670
   20MOL    H2411082   5.004   2.481   6.589 -0.5881  0.7704  0.6409
   20MOL    H2511083   4.848   2.534   6.547  0.9752  0.3752  0.9287
   20MOL    H2611084   4.745   2.353   6.599 -0.3985 -1.3218 -0.4798
   20MOL    H2711085   4.851   2.247   6.769 -0.4285 -1.1168 -1.5140
   20MOL    H2811086   4.757   2.150   6.439 -2.8808  0.9204  0.3123
   20MOL    H2911087   4.880   2.090   6.555 -0.6740 -0.3330  1.6087
   20MOL    H3011088   4.719   2.726   5.965 -1.2089  1.4649 -0.5905
   20MOL    C3111089   4.640   1.978   6.593 -0.2436  0.4605  0.4730
   20MOL    C3211090   4.509   1.959   6.674 -0.2456 -0.2417 -0.3774
   20MOL    O3311091   4.527   1.937   6.812  0.3169  0.2477  0.1135
   20MOL    C3411092   4.416   1.847   6.627 -0.5199 -0.8174 -0.2502
   20MOL    O3511093   4.294   1.858   6.696  0.3291  0.3242 -0.5149
   20MOL    C3611094   4.201   1.960   6.652  0.1144  0.4774 -0.0633
   20MOL    C3711095   4.132   2.011   6.776 -0.3335 -0.4416 -0.6816
   20MOL    C3811096   3.994   2.083   6.750  0.1001 -0.0830  0.4290
   20MOL    O3911097   3.960   2.151   6.875  0.3480 -0.1732  0.4790
   20MOL    C4011098   3.825   2.196   6.879  0.2796  0.2802  0.0895
   20MOL    O4111099   3.810   2.325   6.819  0.2159  0.2646  0.3740
   20MOL    C4211100   3.777   2.214   7.024  0.0515 -0.1221 -0.3088
   20MOL    O4311101   3.741   2.090   7.088 -0.2999 -0.1768  0.9978
   20MOL    H4411102   4.603   1.974   6.490 -4.5471 -2.3675  2.0041
   20MOL    H4511103   4.712   1.902   6.623 -0.3518  0.3746  0.5147
   20MOL    H4611104   4.453   2.051   6.661  1.6144  1.1123  0.9003
   20MOL    H4711105   4.441   1.921   6.847 -1.2845 -0.0657 -3.7479
   20MOL    H4811106   4.397   1.863   6.521  2.4455 -1.3378 -0.9026
   20MOL    H4911107   4.451   1.744   6.638  0.8779 -0.4251 -0.9421
   20MOL    H5011108   4.130   1.910   6.586  1.7361 -2.2970  0.1760
   20MOL    H5111109   4.239   2.051   6.606  0.1444  0.3597 -0.2719
   20MOL    H5211110   4.205   2.069   6.831 -1.7013 -0.2596  0.9895
   20MOL    H5311111   4.106   1.929   6.843 -0.0121  0.2724  0.3310
   20MOL    H5411112   4.015   2.168   6.684 -0.0208 -0.8748 -0.6403
   20MOL    H5511113   3.914   2.019   6.713  1.3333 -2.6046  2.0151
   20MOL    H5611114   3.763   2.128   6.820  1.7206 -1.3018  0.3865
   20MOL    H5711115   3.787   2.310   6.728 -0.0830  1.0091  0.3223
   20MOL    H5811116   3.853   2.269   7.080 -0.4152 -0.6070  0.8178
   20MOL    H5911117   3.694   2.284   7.018  2.1143  2.3982 -0.0315
   20MOL    C6011118   3.842   1.989   7.077  0.0561 -0.1370  0.5275
   20MOL    C6111119   3.837   1.883   7.190  0.0751  0.2664 -0.2537
   20MOL    O6211120   3.947   1.917   7.279  0.1295 -0.1969  1.4110
   20MOL    C6311121   3.861   1.745   7.132  0.0957 -0.0547  0.4775
   20MOL    O6411122   3.753   1.696   7.048 -0.2673  0.7882 -0.0503
   20MOL    C6511123   3.638   1.661   7.125  0.1178 -1.1093  0.3723
   20MOL    C6611124   3.575   1.525   7.092  0.1759  0.1431 -0.5358
   20MOL    C6711125   3.434   1.512   7.141  0.0085  0.3221  0.3558
   20MOL    O6811126   3.348   1.599   7.070  0.0867 -0.4555  0.6370
   20MOL    C6911127   3.210   1.607   7.101 -0.5217  0.6523 -0.1400
   20MOL    O7011128   3.196   1.676   7.223 -0.0266 -0.1998 -0.8009
   20MOL    C7111129   3.133   1.685   6.997 -0.3996 -0.0529 -1.0241
   20MOL    O7211130   3.150   1.641   6.863  0.2037  0.1263 -0.2754
   20MOL    H7311131   3.941   2.035   7.077 -0.6626  1.4646  1.8900
   20MOL    H7411132   3.826   1.953   6.976 -2.8135  0.5642  0.6861
   20MOL    H7511133   3.738   1.883   7.236 -0.1287  0.2733 -0.6853
   20MOL    H7611134   3.983   2.002   7.260  0.0392 -0.7775 -1.6874
   20MOL    H7711135   3.950   1.748   7.070 -0.9222 -0.6267 -1.0616
   20MOL    H7811136   3.877   1.674   7.213 -0.3247 -1.2866 -0.4855
   20MOL    H7911137   3.567   1.739   7.096  0.2892 -1.3663 -0.7829
   20MOL    H8011138   3.652   1.665   7.233 -3.2910  0.9262  0.7981
   20MOL    H8111139   3.631   1.442   7.133 -0.3168 -0.5285 -1.2221
   20MOL    H8211140   3.577   1.503   6.985 -0.9918  1.8715 -0.9447
   20MOL    H8311141   3.440   1.534   7.248 -1.4201 -0.4429  0.6064
   20MOL    H8411142   3.398   1.410   7.155 -0.0002 -0.0487 -2.1741
   20MOL    H8511143   3.176   1.505   7.118 -0.1423  0.5133 -0.2184
   20MOL    H8611144   3.124   1.647   7.277  0.6928  0.9478  0.8141
   20MOL    H8711145   3.024   1.686   7.007 -0.4562  3.1077 -1.5354
   20MOL    H8811146   3.171   1.786   7.004  0.6251 -0.3829 -1.8109
   20MOL    C8911147   3.072   1.713   6.778 -0.5134 -0.2710 -0.4089
   20MOL    C9011148   3.118   1.701   6.637 -0.4676 -0.0761  0.4835
   20MOL    O9111149   3.047   1.594   6.577  0.3194  0.2492  0.0751
   20MOL    C9211150   3.102   1.833   6.548 -0.6430 -0.0750  0.3814
   20MOL    O9311151   3.175   1.822   6.426  0.0766 -0.3125 -0.6085
   20MOL    C9411152   3.101   1.799   6.310 -0.1185 -0.2912 -0.8137
   20MOL    C9511153   3.174   1.703   6.216  0.8820 -0.1884  0.3903
   20MOL    C9611154   3.219   1.573   6.280  0.8419 -0.5780  0.7162
   20MOL    O9711155   3.097   1.507   6.309  0.3164 -0.3512 -0.1098
   20MOL    C9811156   3.105   1.370   6.342  0.3103 -0.1997 -0.1051
   20MOL    O9911157   3.173   1.347   6.462  0.2622 -0.0069 -0.0650
   20MOL   C10011158   2.967   1.309   6.330  0.1681  0.3475 -0.5491
   20MOL   O10111159   2.885   1.390   6.410  0.0215  0.7443 -0.1097
   20MOL   H10211160   3.085   1.818   6.804 -0.3409 -0.2190 -0.6979
   20MOL   H10311161   2.967   1.685   6.782 -0.3085 -0.9908 -0.0974
   20MOL   H10411162   3.224   1.676   6.648 -1.1912 -4.2205 -0.7467
   20MOL   H10511163   3.089   1.595   6.492  1.7475  0.1452  0.7595
   20MOL   H10611164   2.996   1.848   6.527 -0.4560  0.9169  0.1254
   20MOL   H10711165   3.149   1.916   6.601  1.7758 -1.6094  0.7243
   20MOL   H10811166   3.099   1.898   6.265 -0.3122  0.5145  0.9696
   20MOL   H10911167   3.007   1.750   6.334 -0.3258  0.9861  1.0375
   20MOL   H11011168   3.259   1.750   6.166  0.2180 -0.2663 -0.8296
   20MOL   H11111169   3.100   1.685   6.138  1.0476  0.1664  0.1483
   20MOL   H11211170   3.279   1.518   6.207  0.8104 -1.0163  1.0230
   20MOL   H11311171   3.280   1.589   6.369 -0.7302  1.1768  1.5303
   20MOL   H11411172   3.170   1.327   6.266 -1.5175  0.7487 -2.2580
   20MOL   H11511173   3.114   1.361   6.534 -0.0936  2.0880 -0.7309
   20MOL   H11611174   2.928   1.306   6.228 -0.9202 -0.9692 -0.1226
   20MOL   H11711175   2.960   1.210   6.377  0.4689  1.0528  1.0312
   20MOL   C11811176   2.749   1.360   6.390  0.1240 -0.8112 -0.3272
   20MOL   C11911177   2.696   1.436   6.269  0.1351  0.1952 -0.0079
   20MOL   O12011178   2.739   1.570   6.285  0.1555  0.6876 -0.0345
   20MOL   C12111179   2.537   1.426   6.253  0.0558 -0.0047  0.1215
   20MOL   O12211180   2.485   1.473   6.131  0.1932  0.0423  0.8152
   20MOL   C12311181   2.357   1.520   6.139 -0.3651  0.3915  0.2444
   20MOL   C12411182   2.304   1.561   6.006 -0.1092  0.4284  0.3582
   20MOL   C12511183   2.198   1.665   6.010  0.2038  0.5800 -0.1817
   20MOL   O12611184   2.075   1.597   6.061 -0.4277 -0.7119  0.0270
   20MOL   C12711185   1.972   1.686   6.114 -0.3699 -0.6792  0.0863
   20MOL   O12811186   2.015   1.754   6.230  0.6766  0.5721 -0.0120
   20MOL   C12911187   1.840   1.623   6.148 -0.2062  0.0458  0.1212
   20MOL   O13011188   1.732   1.710   6.108  0.2171  0.1171  1.0239
   20MOL   H13111189   2.725   1.254   6.381  0.1292 -0.9610  1.2506
   20MOL   H13211190   2.700   1.395   6.481  0.1614 -1.5913 -0.0049
   20MOL   H13311191   2.741   1.395   6.179 -1.3246 -2.8372  0.5872
   20MOL   H13411192   2.830   1.562   6.259  0.1223 -0.7458  0.2534
   20MOL   H13511193   2.496   1.333   6.291  0.0330  0.1954  0.5924
   20MOL   H13611194   2.499   1.490   6.333 -0.0713  1.3830 -1.0349
   20MOL   H13711195   2.362   1.608   6.204  2.2102  0.9370 -0.5977
   20MOL   H13811196   2.287   1.456   6.192  1.4149 -0.1480  1.9965
   20MOL   H13911197   2.265   1.473   5.954  1.6031  0.0469 -0.3100
   20MOL   H14011198   2.392   1.605   5.959 -0.4667 -0.6440 -1.3399
   20MOL   H14111199   2.232   1.749   6.071  2.5813 -0.1678 -0.4259
   20MOL   H14211200   2.185   1.717   5.915 -0.6119  0.9540  0.1307
   20MOL   H14311201   1.967   1.754   6.029  0.9239 -0.2764  0.3228
   20MOL   H14411202   2.037   1.687   6.293 -0.2322  0.4417  0.1644
   20MOL   H14511203   1.831   1.524   6.103 -2.5901  0.0782  0.4582
   20MOL   H14611204   1.832   1.594   6.253  0.7403 -2.5473 -0.4741
   20MOL   C14711205   1.682   1.790   6.215  0.1854 -0.3285 -0.0091
   20MOL   C14811206   1.559   1.730   6.280 -0.1263  0.2753 -0.3157
   20MOL   O14911207   1.440   1.749   6.198 -0.3226  0.0768 -0.3849
   20MOL   C15011208   1.527   1.796   6.411 -0.2431  0.2864  0.9591
   20MOL   O15111209   1.445   1.717   6.503 -0.3527 -0.1006 -0.2775
   20MOL   C15211210   1.403   1.810   6.600 -1.0446  0.5571  0.1705
   20MOL   C15311211   1.299   1.753   6.695 -0.4873  0.7294 -0.1164
   20MOL   C15411212   1.236   1.858   6.785 -0.5224  1.3345  0.6644
   20MOL   O15511213   1.172   1.781   6.890  0.1127  0.6460  0.1813
   20MOL   C15611214   1.041   1.766   6.865  0.2838  0.3838  0.7047
   20MOL   O15711215   0.968   1.847   6.956 -0.1078 -0.6320 -0.1119
   20MOL   C15811216   0.998   1.621   6.877  0.2608 -0.1467 -0.9580
   20MOL   O15911217   1.031   1.540   6.766  0.1591 -0.6170  0.0549
   20MOL   H16011218   1.644   1.888   6.187  0.9928 -0.3419 -1.2113
   20MOL   H16111219   1.761   1.804   6.289 -0.0129 -0.0917  0.1578
   20MOL   H16211220   1.565   1.622   6.287 -0.3222  0.2520 -0.5007
   20MOL   H16311221   1.361   1.749   6.249  0.9938 -0.2721  1.7254
   20MOL   H16411222   1.624   1.812   6.458  0.6709  0.9440 -1.1014
   20MOL   H16511223   1.493   1.896   6.383 -1.3110  0.3373  2.3957
   20MOL   H16611224   1.367   1.898   6.547 -1.0747 -0.7828 -2.0997
   20MOL   H16711225   1.490   1.844   6.655 -0.7177 -1.4983  0.9523
   20MOL   H16811226   1.341   1.671   6.753 -3.2941 -1.4843 -1.0917
   20MOL   H16911227   1.215   1.706   6.643  0.4044 -1.6399  0.4956
   20MOL   H17011228   1.324   1.914   6.818 -1.3509  1.6189  2.4779
   20MOL   H17111229   1.177   1.930   6.728  0.6623  1.2055 -0.7371
   20MOL   H17211230   1.015   1.802   6.765  1.6511  0.6297  0.4202
   20MOL   H17311231   0.988   1.824   7.046  2.0128  1.5931  0.0418
   20MOL   H17411232   1.054   1.580   6.961 -1.5679 -0.0169  0.3564
   20MOL   H17511233   0.891   1.611   6.895  0.6817 -1.5442  0.9926
   20MOL   C17611234   1.015   1.399   6.782 -1.0037 -0.3653 -0.2424
   20MOL   C17711235   1.044   1.332   6.649 -0.3921 -0.3252 -0.1681
   20MOL   O17811236   1.021   1.192   6.669 -0.2189  0.1357 -0.0039
   20MOL   C17911237   1.190   1.358   6.605  0.4624 -0.4412  0.4113
   20MOL   O18011238   1.187   1.345   6.460  0.7346 -0.9984  0.0051
   20MOL   C18111239   1.310   1.366   6.395  0.0199  0.3226 -0.2119
   20MOL   C18211240   1.291   1.412   6.252 -0.1043 -0.5474  0.3627
   20MOL   C18311241   1.226   1.314   6.158 -0.0341 -0.3554  0.6538
   20MOL   O18411242   1.246   1.350   6.021 -0.1916  0.1796  0.2642
   20MOL   C18511243   1.187   1.270   5.931 -0.5406 -0.8344 -0.3508
   20MOL   O18611244   1.233   1.134   5.925 -0.0215  0.2113 -0.1247
   20MOL   C18711245   1.203   1.336   5.792  0.8848  0.4776 -0.1574
   20MOL   O18811246   1.335   1.325   5.747 -0.1046 -0.4752  0.1436
   20MOL   H18911247   0.916   1.374   6.819 -0.9023 -2.0924 -1.0499
   20MOL   H19011248   1.083   1.360   6.858  1.3037  0.8036 -1.6613
   20MOL   H19111249   0.977   1.374   6.575 -0.5596 -0.7997 -0.2919
   20MOL   H19211250   0.928   1.178   6.667 -0.5663  2.2425  0.7176
   20MOL   H19311251   1.213   1.458   6.641 -1.0497  0.4091 -0.8955
   20MOL   H19411252   1.261   1.286   6.647  0.9555 -1.5205 -2.1346
   20MOL   H19511253   1.379   1.282   6.397 -0.4977 -0.1082 -0.6148
   20MOL   H19611254   1.366   1.448   6.442  0.8854 -0.5771  0.3569
   20MOL   H19711255   1.389   1.429   6.207 -0.1900  0.0654  0.4008
   20MOL   H19811256   1.239   1.508   6.243  0.7735 -0.0714  0.2638
   20MOL   H19911257   1.298   1.234   6.176  1.1111  0.1602 -1.4587
   20MOL   H20011258   1.127   1.279   6.185 -1.5353  2.0761 -1.5295
   20MOL   H20111259   1.083   1.271   5.966 -0.2734 -1.2523  0.4675
   20MOL   H20211260   1.327   1.140   5.932 -0.0679  1.2622 -0.2958
   20MOL   H20311261   1.144   1.267   5.732  0.0660 -0.8628  2.1062
   20MOL   H20411262   1.164   1.438   5.789 -1.5802 -0.3072  2.4785
   20MOL   C20511263   1.429   1.402   5.817 -0.0383 -0.7022 -0.4660
   20MOL   C20611264   1.563   1.416   5.740  0.2006 -0.5080 -0.2030
   20MOL   O20711265   1.564   1.526   5.648  0.4529 -0.4659  0.5326
   20MOL   C20811266   1.689   1.440   5.833 -0.4245  0.3110  0.5718
   20MOL   O20911267   1.809   1.452   5.752  0.1263  0.7955 -0.3359
   20MOL   C21011268   1.931   1.422   5.819 -0.5468 -0.1449 -0.2115
   20MOL   C21111269   2.044   1.422   5.715  0.1492  0.1228  0.4113
   20MOL   C21211270   2.061   1.545   5.628 -0.0311 -0.5009 -0.5537
   20MOL   O21311271   2.174   1.520   5.547  0.3060  0.1355 -0.1219
   20MOL   C21411272   2.201   1.615   5.453 -0.3313 -0.2113  0.4731
   20MOL   O21511273   2.114   1.617   5.346  0.2607 -0.2867  0.3856
   20MOL   C21611274   2.343   1.610   5.398  0.0229  0.2056 -0.1947
   20MOL   O21711275   2.431   1.630   5.506  0.2909 -0.1702 -0.2813
   20MOL   H21811276   1.452   1.369   5.918  1.5235  2.6339  0.3260
   20MOL   H21911277   1.387   1.502   5.823  0.7278 -0.4186  0.2373
   20MOL   H22011278   1.575   1.325   5.682 -1.2672 -0.2873 -0.8556
   20MOL   H22111279   1.551   1.486   5.563 -1.8006 -0.2630  0.7549
   20MOL   H22211280   1.689   1.520   5.907 -1.5509 -0.4949  1.4632
   20MOL   H22311281   1.694   1.351   5.896  1.0199  0.3431  0.5094
   20MOL   H22411282   1.926   1.326   5.870  3.2997 -0.7975 -0.8900
   20MOL   H22511283   1.949   1.495   5.897  0.5977 -0.6003 -0.0297
   20MOL   H22611284   2.031   1.330   5.658 -0.8293 -0.2424  1.2163
   20MOL   H22711285   2.132   1.420   5.780  1.3348 -3.8799 -1.1378
   20MOL   H22811286   1.977   1.561   5.561 -1.9601 -0.4728  1.8354
   20MOL   H22911287   2.076   1.628   5.697 -2.3300  0.1273 -0.7637
   20MOL   H23011288   2.193   1.711   5.505  1.5460  1.3983 -2.1135
   20MOL   H23111289   2.040   1.673   5.362  0.1341 -0.3294 -0.0334
   20MOL   H23211290   2.350   1.510   5.356 -0.1562  0.3200 -0.4936
   20MOL   H23311291   2.367   1.685   5.323  0.4194  1.4862  1.1901
   20MOL   C23411292   2.567   1.587   5.489  0.2553  0.0646  0.1982
   20MOL   C23511293   2.592   1.444   5.539  0.7021 -0.3963 -0.1757
   20MOL   O23611294   2.556   1.355   5.434 -0.5659  0.3218  0.8764
   20MOL   C23711295   2.508   1.410   5.661 -0.5059 -0.0423 -0.0222
   20MOL   O23811296   2.563   1.294   5.723  0.0055 -0.2305 -0.3058
   20MOL   C23911297   2.486   1.248   5.835 -0.0111  0.2872 -0.6105
   20MOL   C24011298   2.351   1.193   5.798 -0.3837  0.2604  0.5408
   20MOL   C24111299   2.268   1.157   5.913 -0.0024  0.5418  0.3089
   20MOL   O24211300   2.152   1.107   5.849 -0.5210 -0.0767 -0.3551
   20MOL   C24311301   2.070   1.045   5.943 -0.4911  0.4048 -0.0639
   20MOL   O24411302   2.123   0.918   5.975 -0.4435  0.6596  0.1738
   20MOL   C24511303   1.931   1.016   5.884 -0.3661 -0.0548  0.2133
   20MOL   O24611304   1.960   0.933   5.765 -0.7179  0.2745  0.2382
   20MOL   H24711305   2.609   1.612   5.392 -0.4154 -1.8849 -0.6107
   20MOL   H24811306   2.623   1.652   5.557 -1.4994  2.7491 -0.8398
   20MOL   H24911307   2.698   1.437   5.563  0.9382  2.9261 -0.0363
   20MOL   H25011308   2.463   1.346   5.421 -0.4879 -2.3298  1.7848
   20MOL   H25111309   2.509   1.496   5.728  0.3452  1.6748 -2.1827
   20MOL   H25211310   2.403   1.390   5.638 -1.0724 -1.2640  3.2596
   20MOL   H25311311   2.467   1.332   5.902 -2.0822 -0.1691 -0.6070
   20MOL   H25411312   2.554   1.192   5.900  1.6326  0.3444 -2.2497
   20MOL   H25511313   2.359   1.098   5.745  2.7997  0.0866  1.2376
   20MOL   H25611314   2.288   1.249   5.729  1.0465  0.2208 -0.8142
   20MOL   H25711315   2.323   1.086   5.973  1.2210  1.8872  0.8128
   20MOL   H25811316   2.248   1.245   5.974 -0.9909  1.3619 -1.1452
   20MOL   H25911317   2.064   1.113   6.028  2.0176  0.8710 -0.2149
   20MOL   H26011318   2.057   0.857   5.946 -0.4474  0.4647  0.5818
   20MOL   H26111319   1.871   0.966   5.959 -0.0975  0.6778  0.9257
   20MOL   H26211320   1.874   1.106   5.859  0.2064  0.5558  1.0928
   20MOL   C26311321   1.838   0.883   5.711 -0.1145  0.2646 -0.2677
   20MOL   C26411322   1.893   0.776   5.612  0.4049 -0.1252  0.5270
   20MOL   O26511323   1.963   0.686   5.695  0.0676  0.3097 -0.2945
   20MOL   C26611324   1.772   0.705   5.537  0.0285 -0.2766  0.3335
   20MOL   O26711325   1.806   0.675   5.394  0.3312  0.6465  0.2535
   20MOL   C26811326   1.908   0.580   5.374  0.0672  0.1660  0.5027
   20MOL   C26911327   1.933   0.570   5.223  0.0843  0.8814 -0.3864
   20MOL   C27011328   2.072   0.518   5.183  1.2567 -0.3734 -0.5066
   20MOL   O27111329   2.080   0.493   5.042 -0.2349 -0.1009  0.5382
   20MOL   C27211330   2.194   0.426   5.002 -0.4973  1.0530  0.0849
   20MOL   O27311331   2.205   0.295   5.056 -0.0848 -0.1461 -0.3368
   20MOL   C27411332   2.197   0.424   4.851 -0.4538  0.3462 -0.3397
   20MOL   O27511333   2.075   0.380   4.798 -0.1134 -0.0726 -0.1170
   20MOL   H27611334   1.789   0.964   5.658  0.3485 -0.0381 -1.1605
   20MOL   H27711335   1.773   0.861   5.796  1.4726  0.2541  0.9789
   20MOL   H27811336   1.958   0.833   5.545 -1.1752  0.4522 -0.5294
   20MOL   H27911337   2.053   0.710   5.674 -0.3265  2.0567 -0.0807
   20MOL   H28011338   1.730   0.615   5.581 -1.1611  1.1332  2.1947
   20MOL   H28111339   1.684   0.769   5.527 -2.4399 -3.6969 -0.6516
   20MOL   H28211340   1.874   0.487   5.419  1.2409 -0.1883  0.6926
   20MOL   H28311341   1.988   0.617   5.438 -0.4170  1.9267  0.1072
   20MOL   H28411342   1.918   0.667   5.176  0.4814  0.3532 -1.6150
   20MOL   H28511343   1.858   0.505   5.179 -0.6877  1.5511 -0.0777
   20MOL   H28611344   2.159   0.560   5.233  1.2907 -2.1698  1.0094
   20MOL   H28711345   2.076   0.419   5.228 -1.7891  0.7675  2.4819
   20MOL   H28811346   2.281   0.481   5.039  0.2388  1.3570 -2.0464
   20MOL   H28911347   2.153   0.234   5.006  1.3284 -2.5707  1.0680
   20MOL   H29011348   2.234   0.524   4.828 -1.2603  0.8450  0.5103
   20MOL   H29111349   2.274   0.356   4.815 -1.9482  0.1024 -3.2326
   20MOL   C29211350   2.072   0.390   4.657  0.9500 -1.1311  0.2513
   20MOL   C29311351   1.989   0.282   4.585 -0.2947  0.1680 -0.1354
   20MOL   O29411352   1.946   0.336   4.460  0.2906 -0.7481 -0.2547
   20MOL   C29511353   2.078   0.159   4.556 -0.8970 -0.2353 -0.2218
   20MOL   O29611354   1.990   0.062   4.502  0.0362 -0.2479  0.1624
   20MOL   C29711355   2.046   7.626   4.496 -0.0347 -0.2069 -0.5778
   20MOL   C29811356   1.938   7.537   4.421 -0.8298 -0.1751 -0.5629
   20MOL   C29911357   1.983   7.394   4.400 -0.8948  0.4415 -0.0292
   20MOL   O30011358   1.876   7.309   4.380 -0.4635  0.0601  0.3740
   20MOL   C30111359   1.899   7.175   4.382  0.1770 -0.4136 -0.0091
   20MOL   O30211360   1.949   7.126   4.501  0.0100  0.1737  0.2866
   20MOL   C30311361   1.756   7.120   4.357 -0.6384 -0.7113  0.7955
   20MOL   O30411362   1.771   7.004   4.288  0.4741 -0.8605 -0.1066
   20MOL   H30511363   2.044   0.492   4.630  0.4269 -1.1692  0.6548
   20MOL   H30611364   2.168   0.375   4.607  0.7780 -2.5198  0.3328
   20MOL   H30711365   1.899   0.253   4.639 -0.5162  0.9152 -0.0958
   20MOL   H30811366   1.903   0.264   4.416  0.7740 -0.9170 -0.4487
   20MOL   H30911367   2.146   0.193   4.478 -0.5865  1.3464  0.7266
   20MOL   H31011368   2.129   0.125   4.647  0.0209  0.7733 -0.3541
   20MOL   H31111369   2.067   7.579   4.592 -0.9319 -1.7921 -1.1458
   20MOL   H31211370   2.134   7.629   4.432  0.4642 -2.7919 -0.0594
   20MOL   H31311371   1.906   7.576   4.325 -1.1889 -1.4009 -0.9545
   20MOL   H31411372   1.852   7.523   4.488  1.1493 -0.2626  2.0476
   20MOL   H31511373   2.051   7.385   4.315 -1.4104  0.7640 -0.4753
   20MOL   H31611374   2.031   7.356   4.490 -0.9786  1.5823  0.5076
   20MOL   H31711375   1.970   7.172   4.300  0.7716 -2.3909  0.5375
   20MOL   H31811376   1.931   7.033   4.509  0.3857  0.0891  0.1221
   20MOL   H31911377   1.703   7.185   4.288  3.3891  2.4749  0.4855
   20MOL   H32011378   1.704   7.115   4.453  0.5488  0.5689  1.5210
   20MOL   C32111379   1.804   7.012   4.146  0.3474 -0.5171  0.0292
   20MOL   C32211380   1.794   6.877   4.082 -0.3479 -0.3194  0.4307
   20MOL   O32311381   1.657   6.843   4.078 -0.5038  0.3807 -0.6961
   20MOL   C32411382   1.853   6.891   3.941 -0.2308 -0.4165  0.2032
   20MOL   O32511383   1.993   6.892   3.961 -0.6330 -0.5443 -0.0159
   20MOL   C32611384   2.077   6.917   3.854  0.1381 -0.0614  0.2441
   20MOL   C32711385   2.079   7.060   3.822 -0.2574  0.4510 -0.6438
   20MOL   C32811386   2.162   7.084   3.700 -0.3209  0.4581  0.5731
   20MOL   O32911387   2.301   7.052   3.714  0.1018 -0.0441  0.1555
   20MOL   C33011388   2.381   7.088   3.606 -0.0288  0.1322 -0.2971
   20MOL   O33111389   2.388   7.227   3.574  0.0610  0.9867 -0.0635
   20MOL   C33211390   2.524   7.045   3.648 -0.1648  0.1495  1.0563
   20MOL   O33311391   2.570   7.113   3.766 -0.3803 -0.4108  0.0392
   20MOL   H33411392   1.905   7.048   4.128  0.0520  0.1402 -0.3633
   20MOL   H33511393   1.737   7.080   4.094  0.3705 -0.8800 -0.4749
   20MOL   H33611394   1.843   6.806   4.148  0.9866  0.2384  0.0578
   20MOL   H33711395   1.603   6.915   4.049 -1.1135  1.5109  2.9977
   20MOL   H33811396   1.823   6.983   3.890  1.7038 -0.0512 -0.3296
   20MOL   H33911397   1.834   6.807   3.875 -1.3398 -0.0621  0.0566
   20MOL   H34011398   2.040   6.864   3.766  1.4000  2.1840 -1.6969
   20MOL   H34111399   2.179   6.890   3.884 -0.0988 -1.1493  0.1187
   20MOL   H34211400   1.984   7.105   3.793  0.4977  3.1314  0.8740
   20MOL   H34311401   2.126   7.111   3.906  0.6855 -0.0852 -0.8375
   20MOL   H34411402   2.118   7.029   3.617  0.9839  1.0762 -0.5568
   20MOL   H34511403   2.149   7.190   3.679 -1.5872  0.2326  0.2150
   20MOL   H34611404   2.349   7.033   3.518  0.2971  1.1155 -1.0401
   20MOL   H34711405   2.446   7.266   3.638  0.6632  0.1999 -0.1176
   20MOL   H34811406   2.514   6.939   3.668  0.4929  0.0267  0.7108
   20MOL   H34911407   2.596   7.060   3.568  1.1473 -0.2422  2.1434
   20MOL   C35011408   2.661   7.035   3.851 -0.2476 -0.2254 -0.1988
   20MOL   C35111409   2.589   6.923   3.934 -0.1832 -0.2041  0.2107
   20MOL   O35211410   2.678   6.873   4.027 -0.0259  0.2320  0.1910
   20MOL   C35311411   2.469   6.989   4.017 -0.2936  0.1400  0.6181
   20MOL   O35411412   2.398   6.888   4.080  0.2868  0.3660 -0.2038
   20MOL   C35511413   2.314   6.935   4.188 -0.5455  0.1908  0.1740
   20MOL   C35611414   2.226   6.823   4.232  0.4058 -0.0879 -0.5177
   20MOL   C35711415   2.122   6.872   4.340 -0.3632  0.8999  0.2394
   20MOL   O35811416   2.012   6.779   4.333  0.0347  0.0013  0.2231
   20MOL   C35911417   1.937   6.749   4.446 -0.1079  0.3323  0.5203
   20MOL   O36011418   1.873   6.863   4.491 -0.0754 -0.1296  0.5929
   20MOL   C36111419   1.837   6.642   4.405 -0.1027  0.6367 -0.2748
   20MOL   O36211420   1.880   6.518   4.460 -0.4638  0.0408 -0.3317
   20MOL   H36311421   2.711   7.107   3.917  1.1285 -0.9314 -0.4380
   20MOL   H36411422   2.738   6.998   3.783  0.9000  0.9923  0.4125
   20MOL   H36511423   2.563   6.831   3.883 -1.3570  0.0256  0.3673
   20MOL   H36611424   2.625   6.813   4.077  0.4086  1.0000  1.6132
   20MOL   H36711425   2.508   7.067   4.082  2.8748 -1.0852  0.2430
   20MOL   H36811426   2.399   7.051   3.961  0.8163  1.6397  0.8836
   20MOL   H36911427   2.243   7.012   4.159  0.4600  1.4138  0.9010
   20MOL   H37011428   2.371   6.975   4.272 -1.2587  3.2756 -0.7401
   20MOL   H37111429   2.291   6.748   4.276  0.6499  0.1387 -0.4931
   20MOL   H37211430   2.167   6.778   4.151  0.3891  0.0208 -0.5661
   20MOL   H37311431   2.163   6.854   4.439  0.0887 -0.9210 -0.2534
   20MOL   H37411432   2.090   6.972   4.310 -1.2419  0.6476  0.3461
   20MOL   H37511433   1.993   6.710   4.531 -1.7216  0.6090  1.7340
   20MOL   H37611434   1.817   6.890   4.420  0.5140 -2.9519 -1.0011
   20MOL   H37711435   1.747   6.674   4.457 -0.0585  0.6292 -0.1952
   20MOL   H37811436   1.831   6.642   4.296  2.1849  0.2989 -0.4405
   20MOL   C37911437   1.788   6.418   4.425 -0.3087  0.3153  0.4662
   20MOL   C38011438   1.833   6.297   4.514  0.2854  0.0640 -0.1039
   20MOL   O38111439   1.766   6.295   4.637  0.8431  0.5963 -0.2620
   20MOL   C38211440   1.821   6.150   4.443 -0.3547 -0.3718 -0.1223
   20MOL   O38311441   1.703   6.134   4.365 -0.1457  0.7104 -0.0327
   20MOL   C38411442   1.701   6.025   4.273  0.1541  0.1095  0.3255
   20MOL   C38511443   1.783   6.062   4.148  0.0808  0.4842  0.0736
   20MOL   C38611444   1.751   5.986   4.025 -0.0773 -0.1420  0.6239
   20MOL   O38711445   1.796   6.078   3.921 -0.5281 -0.2617  0.0475
   20MOL   C38811446   1.761   6.055   3.792 -0.0705  0.7436  1.1956
   20MOL   O38911447   1.627   6.065   3.772  0.3092  0.1390 -0.0444
   20MOL   C39011448   1.833   6.144   3.695 -0.0097  0.0679 -0.4843
   20MOL   O39111449   1.976   6.121   3.705  0.2983  0.0384  0.3030
   20MOL   H39211450   1.802   6.396   4.319 -1.7101  0.3868  0.2548
   20MOL   H39311451   1.683   6.446   4.436 -0.3736  0.7026 -1.0753
   20MOL   H39411452   1.937   6.313   4.542  0.2417  0.5965 -0.2390
   20MOL   H39511453   1.674   6.281   4.619 -0.2525  1.8333  3.8111
   20MOL   H39611454   1.914   6.129   4.390  0.2763 -0.4162  1.0011
   20MOL   H39711455   1.819   6.069   4.517  0.8309  0.7671  1.1873
   20MOL   H39811456   1.596   6.010   4.246  0.2077 -0.6171  0.4986
   20MOL   H39911457   1.727   5.934   4.327  0.0692  1.0416  1.9616
   20MOL   H40011458   1.888   6.048   4.172 -0.3867 -1.6335  0.9624
   20MOL   H40111459   1.765   6.170   4.140 -2.9473 -0.0701 -1.5825
   20MOL   H40211460   1.793   5.887   4.013 -0.0251 -0.1523  0.8828
   20MOL   H40311461   1.644   5.986   4.004  0.5510  1.1399 -2.8878
   20MOL   H40411462   1.777   5.950   3.769 -0.7845  1.0048 -0.5421
   20MOL   H40511463   1.609   6.157   3.757 -1.5201 -0.1855 -0.0287
   20MOL   H40611464   1.786   6.126   3.599 -1.7664 -0.4897  0.4551
   20MOL   H40711465   1.817   6.245   3.733  2.7739  0.1954  0.4491
   20MOL   C40811466   2.039   6.175   3.589  0.0846  0.7118 -0.2740
   20MOL   C40911467   2.179   6.216   3.625 -0.7189  0.1023 -0.0213
   20MOL   O41011468   2.177   6.338   3.700  0.3035  0.3798  0.3006
   20MOL   C41111469   2.268   6.238   3.498  0.2575  0.1480  0.6168
   20MOL   O41211470   2.288   6.101   3.455  0.5481 -0.1832  0.0784
   20MOL   C41311471   2.340   6.095   3.319  0.5209 -0.2692  0.7672
   20MOL   C41411472   2.396   5.958   3.297  0.2594 -0.3644  0.5389
   20MOL   C41511473   2.471   5.939   3.158  0.0615 -0.2121  0.3091
   20MOL   O41611474   2.577   6.040   3.159  0.4929 -0.2393  0.3345
   20MOL   C41711475   2.603   6.095   3.035  0.3818 -0.2430 -0.2258
   20MOL   O41811476   2.677   6.018   2.951  0.0865  0.0831 -0.5012
   20MOL   C41911477   2.672   6.228   3.048 -0.0425 -0.2477 -0.2539
   20MOL   O42011478   2.785   6.214   3.125  0.3393 -0.0369 -0.5680
   20MOL   H42111479   1.988   6.254   3.533 -0.2550  0.5929 -0.1326
   20MOL   H42211480   2.030   6.095   3.515 -1.2203 -0.8288  1.5298
   20MOL   H42311481   2.228   6.139   3.685 -2.0204 -1.4181 -0.8725
   20MOL   H42411482   2.140   6.320   3.785  0.0652  0.4411  0.2082
   20MOL   H42511483   2.214   6.296   3.423 -2.6014 -0.7072  1.9289
   20MOL   H42611484   2.358   6.294   3.522  0.4926  0.1202 -0.1929
   20MOL   H42711485   2.256   6.101   3.249  0.7657  1.5145  0.6015
   20MOL   H42811486   2.402   6.182   3.297 -0.4798  0.1275 -0.5750
   20MOL   H42911487   2.319   5.880   3.290  0.9468 -0.7895 -3.2290
   20MOL   H43011488   2.462   5.937   3.382  0.8927 -2.2126 -0.3697
   20MOL   H43111489   2.525   5.844   3.151  2.9175  1.1562  2.4776
   20MOL   H43211490   2.404   5.949   3.073 -0.1648  2.1875  0.7435
   20MOL   H43311491   2.502   6.100   2.994 -0.1752 -3.2981  0.6672
   20MOL   H43411492   2.764   6.022   2.987  0.0634 -1.5167 -0.2393
   20MOL   H43511493   2.690   6.284   2.956  1.2876 -1.0903 -0.5175
   20MOL   H43611494   2.611   6.292   3.112  1.0744 -0.5647  1.1505
   20MOL   C43711495   2.839   6.332   3.175 -0.3860 -0.3120 -0.0046
   20MOL   C43811496   2.846   6.307   3.327 -0.0013 -0.7298  0.5546
   20MOL   O43911497   2.729   6.348   3.386 -0.0079 -0.2103 -0.5846
   20MOL   C44011498   2.970   6.370   3.401  0.0673  0.2309  0.1124
   20MOL   O44111499   2.985   6.505   3.362 -0.2247  0.9577 -0.5084
   20MOL   C44211500   3.083   6.575   3.437  0.7131 -0.2055 -0.2570
   20MOL   C44311501   3.137   6.696   3.358 -0.1174  0.7655 -0.0092
   20MOL   C44411502   3.196   6.650   3.223  0.6217 -0.1151 -0.0036
   20MOL   O44511503   3.240   6.767   3.148  0.2384 -0.3646 -0.0967
   20MOL   C44611504   3.320   6.731   3.043 -0.3471  0.6785 -0.3540
   20MOL   O44711505   3.453   6.697   3.082  0.4074  0.4639 -0.0409
   20MOL   C44811506   3.320   6.851   2.942 -0.2928  0.4509  0.1732
   20MOL   O44911507   3.202   6.845   2.859  0.2517 -0.4477  0.0402
   20MOL   H45011508   2.934   6.348   3.123 -0.1534  0.4868  0.6573
   20MOL   H45111509   2.776   6.419   3.156 -0.5924 -0.6223 -0.7759
   20MOL   H45211510   2.849   6.199   3.341  0.0251 -0.9854 -1.3550
   20MOL   H45311511   2.703   6.436   3.366 -1.6812 -0.6615 -0.4136
   20MOL   H45411512   2.954   6.351   3.507  0.8403 -0.7584  0.0626
   20MOL   H45511513   3.059   6.312   3.378 -0.1284 -0.4872  1.1185
   20MOL   H45611514   3.168   6.510   3.459  0.2571 -0.4164  0.9217
   20MOL   H45711515   3.047   6.616   3.531  1.8844  1.7345 -0.6219
   20MOL   H45811516   3.209   6.736   3.429 -2.3110  1.3273  1.9671
   20MOL   H45911517   3.056   6.766   3.339  0.1540  0.8585 -0.8100
   20MOL   H46011518   3.274   6.575   3.234  1.1859  0.2187 -1.6742
   20MOL   H46111519   3.129   6.605   3.149  1.8720  2.3143 -2.7157
   20MOL   H46211520   3.277   6.644   2.992 -2.1146  1.1201  0.3290
   20MOL   H46311521   3.505   6.775   3.073 -0.1776  0.7121 -1.4498
   20MOL   H46411522   3.324   6.950   2.988  0.3203  1.6488 -2.3937
   20MOL   H46511523   3.405   6.845   2.875 -0.8023  0.1402 -0.4532
   20MOL   C46611524   3.218   6.885   2.721  0.5548 -0.0939 -0.0973
   20MOL   C46711525   3.086   6.878   2.627  0.4301  0.0609 -0.9990
   20MOL   O46811526   3.057   6.739   2.624 -0.1731  0.3602 -0.0959
   20MOL   C46911527   2.961   6.955   2.683  0.4168 -0.3429 -0.5148
   20MOL   O47011528   2.931   7.063   2.591  0.1224  0.5698  0.1976
   20MOL   C47111529   2.864   7.175   2.652  0.6779  0.5763  0.9524
   20MOL   C47211530   2.749   7.227   2.569  0.3522  0.0401 -0.4357
   20MOL   C47311531   2.662   7.328   2.641  0.1933  0.1978 -0.4002
   20MOL   O47411532   2.735   7.452   2.645  0.1823 -0.4679 -0.1684
   20MOL   C47511533   2.654   7.570   2.656  0.0054  0.6756 -0.8067
   20MOL   O47611534   2.572   7.592   2.543 -0.3099 -0.3156 -0.0088
   20MOL   C47711535   2.759   7.693   2.663  0.3646 -0.6775 -0.1367
   20MOL   O47811536   2.810   0.007   2.796 -0.3789 -0.4068 -0.7408
   20MOL   H47911537   3.302   6.834   2.674  0.7823 -1.1749  1.4325
   20MOL   H48011538   3.244   6.990   2.729 -2.3865  0.6845 -0.2759
   20MOL   H48111539   3.112   6.921   2.530 -0.7979 -0.5086 -1.5768
   20MOL   H48211540   3.021   6.716   2.709 -1.6931 -3.7777 -1.7376
   20MOL   H48311541   2.879   6.884   2.683 -1.4609  1.7413  1.4704
   20MOL   H48411542   2.988   6.985   2.785 -2.2552  0.7910 -0.0886
   20MOL   H48511543   2.939   7.251   2.676  0.1207  1.7595 -1.0132
   20MOL   H48611544   2.816   7.151   2.747 -2.1652  1.0227 -0.3479
   20MOL   H48711545   2.687   7.146   2.530  1.0006  0.0021 -1.3953
   20MOL   H48811546   2.783   7.271   2.476  2.2668 -1.0572 -0.2776
   20MOL   H48911547   2.566   7.340   2.590  0.2717  1.4300 -0.2553
   20MOL   H49011548   2.639   7.292   2.741 -0.8956 -0.6955 -0.9586
   20MOL   H49111549   2.603   7.576   2.751  2.1112  2.6806  0.2401
   20MOL   H49211550   2.584   7.681   2.517 -3.0602 -0.2661 -1.2863
   20MOL   H49311551   2.832   7.679   2.583  1.3645  1.9335  0.2778
   20MOL   H49411552   2.708   0.091   2.637  0.2995 -0.6091  0.2361
   20MOL   C49511553   2.914   0.104   2.803 -0.5791 -0.3058  0.1727
   20MOL   C49611554   2.931   0.150   2.956 -0.4278  0.0358  0.0903
   20MOL   O49711555   3.060   0.221   2.971 -0.2710 -0.0319 -0.1224
   20MOL   C49811556   2.807   0.236   2.999 -0.7378  0.2686 -0.2142
   20MOL   O49911557   2.824   0.258   3.140 -0.0282 -0.3280 -0.8780
   20MOL   C50011558   2.701   0.255   3.210  0.2605  0.2482  0.6057
   20MOL   C50111559   2.709   0.279   3.355 -0.5340  0.1588  0.2747
   20MOL   C50211560   2.579   0.264   3.435 -0.6996 -0.3948 -0.5756
   20MOL   O50311561   2.604   0.275   3.570 -0.0470  0.3750 -0.9157
   20MOL   C50411562   2.497   0.213   3.639 -0.2116  0.3050  0.1158
   20MOL   O50511563   2.363   0.256   3.608  0.6346 -0.3413 -0.1808
   20MOL   C50611564   2.523   0.218   3.787  0.1329 -0.4188  0.3754
   20MOL   O50711565   2.620   0.120   3.838  0.1565  0.3789  0.1661
   20MOL   H50811566   2.882   0.193   2.749  1.2876 -0.8838 -1.9731
   20MOL   H50911567   3.003   0.056   2.761 -0.8462  2.1269 -3.4466
   20MOL   H51011568   2.930   0.061   3.019 -2.4690  0.7987  1.1960
   20MOL   H51111569   3.042   0.305   2.932  2.5260  0.6186 -0.0585
   20MOL   H51211570   2.804   0.334   2.953 -1.6650  0.0196 -0.6986
   20MOL   H51311571   2.721   0.173   2.975 -0.2155 -0.3706 -0.4062
   20MOL   H51411572   2.649   0.161   3.190  4.2291 -1.8981 -0.1552
   20MOL   H51511573   2.632   0.325   3.164 -1.8790 -0.6277  2.3941
   20MOL   H51611574   2.770   0.365   3.384 -2.0165  1.4847 -0.5291
   20MOL   H51711575   2.766   0.190   3.382  0.2826 -0.0818 -2.1633
   20MOL   H51811576   2.508   0.343   3.414 -0.2380  0.0553 -0.4681
   20MOL   H51911577   2.538   0.169   3.400  0.9877 -1.3646 -0.0184
   20MOL   H52011578   2.499   0.110   3.603 -1.3194 -0.8100  3.0950
   20MOL   H52111579   2.309   0.179   3.597 -0.6233  0.3006  1.2855
   20MOL   H52211580   2.564   0.314   3.820 -1.2289  0.2426  0.1750
   20MOL   H52311581   2.428   0.199   3.836 -0.3802 -0.6329 -0.6998
   20MOL   C52411582   2.566   7.686   3.845  0.2657  0.5780 -0.3214
   20MOL   C52511583   2.674   7.589   3.892 -0.3207 -0.4111 -0.8950
   20MOL   O52611584   2.755   7.553   3.781 -0.2289  0.0089  0.3116
   20MOL   C52711585   2.619   7.463   3.966 -0.9803  0.2426  0.2155
   20MOL   O52811586   2.549   7.495   4.087 -0.7505  0.2026  0.2427
   20MOL   C52911587   2.501   7.379   4.159 -0.2386 -0.5766  0.1402
   20MOL   C53011588   2.462   7.407   4.306 -0.2922 -0.3049 -0.4486
   20MOL   C53111589   2.406   7.269   4.365 -0.4977 -1.0592  0.2781
   20MOL   O53211590   2.368   7.303   4.498  0.6075 -0.1766 -0.1070
   20MOL   C53311591   2.332   7.193   4.569 -1.0657 -0.2756  0.1570
   20MOL   O53411592   2.448   7.124   4.608 -0.6987  0.2265 -0.5332
   20MOL   C53511593   2.251   7.241   4.701  0.4517 -0.1477  1.0215
   20MOL   O53611594   2.136   7.171   4.727  0.4590  0.1573  0.1134
   20MOL   H53711595   2.519   7.642   3.756  0.1659  1.5559 -0.7568
   20MOL   H53811596   2.494   7.688   3.926 -0.0071  0.8099 -0.5666
   20MOL   H53911597   2.735   7.644   3.964 -0.0713  1.6702 -2.6614
   20MOL   H54011598   2.819   7.621   3.769  0.6188 -0.9235 -0.5640
   20MOL   H54111599   2.548   7.420   3.896  0.3721 -0.3313 -0.8276
   20MOL   H54211600   2.704   7.397   3.982  0.8330  2.2724 -0.8618
   20MOL   H54311601   2.588   7.313   4.160  0.5910  0.3646 -2.8841
   20MOL   H54411602   2.421   7.325   4.109 -0.7304 -0.5709  0.9288
   20MOL   H54511603   2.376   7.474   4.309  2.1985  2.9643  1.8587
   20MOL   H54611604   2.541   7.445   4.371 -0.7193 -0.7197  0.3253
   20MOL   H54711605   2.317   7.235   4.311 -1.6454 -0.8853  1.9896
   20MOL   H54811606   2.471   7.182   4.353  2.0104  0.7547  0.3862
   20MOL   H54911607   2.274   7.120   4.513  0.6878 -1.3380 -0.2872
   20MOL   H55011608   2.499   7.170   4.673 -0.6104  1.0287 -1.1571
   20MOL   H55111609   2.311   7.243   4.793  1.5904  1.4876  0.2770
   20MOL   H55211610   2.226   7.344   4.678  1.3226 -0.2387 -0.4232
   20MOL   C55311611   2.053   7.217   4.832 -0.1928 -0.4331  0.1794
   20MOL   C55411612   1.941   7.117   4.842 -0.5528 -0.1136 -0.6068
   20MOL   O55511613   1.839   7.158   4.752  0.5687  0.3230  0.5553
   20MOL   C55611614   1.888   7.113   4.989 -0.5780 -0.0867  0.0877
   20MOL   O55711615   1.940   6.995   5.049  0.4636  0.1304 -0.4145
   20MOL   C55811616   1.919   6.978   5.184 -0.1629 -0.0538 -0.7212
   20MOL   C55911617   1.982   7.078   5.286 -0.3436 -0.0661 -0.4575
   20MOL   C56011618   1.921   7.076   5.423  0.0884  0.6498 -0.4215
   20MOL   O56111619   1.785   7.113   5.420 -0.0401  0.9130  0.6053
   20MOL   C56211620   1.739   7.243   5.393 -0.0323  0.1009 -0.0795
   20MOL   O56311621   1.745   7.272   5.256 -0.5488  0.1749 -0.0934
   20MOL   C56411622   1.600   7.253   5.445 -0.0904 -0.2831  0.1049
   20MOL   O56511623   1.522   7.166   5.361 -0.2801  0.1982  0.3333
   20MOL   H56611624   2.028   7.319   4.804  0.8120 -0.3999 -0.6208
   20MOL   H56711625   2.112   7.208   4.923  1.5021  1.0488 -0.7488
   20MOL   H56811626   1.976   7.021   4.805 -0.5031 -0.9168  1.4497
   20MOL   H56911627   1.870   7.195   4.672 -2.7769 -2.1382 -2.0577
   20MOL   H57011628   1.916   7.210   5.032 -0.9500 -0.3079  0.8468
   20MOL   H57111629   1.779   7.115   4.993 -0.5718 -0.2611  0.3916
   20MOL   H57211630   1.811   6.967   5.195 -0.2891 -1.1002 -2.7613
   20MOL   H57311631   1.949   6.875   5.202 -1.6026 -0.5179 -0.9543
   20MOL   H57411632   1.979   7.177   5.241  1.9337 -0.7624 -2.2251
   20MOL   H57511633   2.086   7.047   5.291 -0.3620 -0.0861 -0.1734
   20MOL   H57611634   1.931   6.973   5.455  2.5883  0.6726 -1.0962
   20MOL   H57711635   1.979   7.141   5.489  3.5859 -1.8388 -0.9653
   20MOL   H57811636   1.808   7.306   5.449 -1.6030  1.0357  0.8512
   20MOL   H57911637   1.709   7.196   5.213 -0.2600 -0.0467  0.0600
   20MOL   H58011638   1.599   7.240   5.553 -1.3566  0.5056  0.1825
   20MOL   H58111639   1.570   7.357   5.443 -0.1484 -0.2838  0.7811
   20MOL   H58211640   1.564   7.084   5.380  1.7840  1.6837  2.3517
   21MOL     C111641   5.545   3.767   1.918  0.0915  0.3055  0.3250
   21MOL     C211642   5.541   3.617   1.916 -0.1357 -0.3501  0.9623
   21MOL     O311643   5.657   3.575   1.857  0.3713  0.4409 -0.6288
   21MOL     C411644   5.546   3.564   2.064  0.7691  0.3649 -0.2001
   21MOL     O511645   5.541   3.420   2.066  0.5140 -0.2120 -0.2663
   21MOL     C611646   5.502   3.369   2.193  0.3634 -0.8918 -0.1846
   21MOL     C711647   5.489   3.222   2.174  0.5638  0.3799  0.6472
   21MOL     C811648   5.453   3.163   2.310  0.0817  0.2854  0.2537
   21MOL     O911649   5.324   3.210   2.343 -0.4700  0.8207 -0.1553
   21MOL    C1011650   5.296   3.215   2.476  0.0794 -0.1689 -0.1545
   21MOL    O1111651   5.281   3.089   2.529  0.1964  0.3445 -0.0541
   21MOL    C1211652   5.162   3.287   2.503 -0.7908 -0.3819  0.5343
   21MOL    O1311653   5.059   3.198   2.457 -0.2752  0.6056  0.2492
   21MOL    H1411654   5.519   3.802   1.818  1.0986 -0.8396 -0.3436
   21MOL    H1511655   5.642   3.812   1.939 -0.5896  1.1152  1.9024
   21MOL    H1611656   5.452   3.570   1.875  0.5266  0.4412 -1.4679
   21MOL    H1711657   5.737   3.602   1.901  1.2683  0.5174 -2.2869
   21MOL    H1811658   5.629   3.606   2.121 -0.7413  0.5054  1.9357
   21MOL    H1911659   5.455   3.596   2.114  2.0085  0.6517  1.9515
   21MOL    H2011660   5.407   3.415   2.221  0.7720 -0.2986  0.2410
   21MOL    H2111661   5.573   3.402   2.269  0.7905  1.0081 -1.3842
   21MOL    H2211662   5.582   3.191   2.127 -0.4645 -0.4533 -0.8659
   21MOL    H2311663   5.412   3.197   2.101  0.6304 -1.1690  1.0757
   21MOL    H2411664   5.441   3.055   2.318  2.5259 -0.0630 -0.5032
   21MOL    H2511665   5.531   3.192   2.382  0.3362 -1.2049  0.5856
   21MOL    H2611666   5.376   3.261   2.534 -0.0853 -0.8388  0.6185
   21MOL    H2711667   5.194   3.068   2.499 -0.6389  0.8934  1.8992
   21MOL    H2811668   5.144   3.317   2.607 -0.9439 -2.8450  1.2573
   21MOL    H2911669   5.163   3.373   2.436  1.5825  0.4851  1.6513
   21MOL    H3011670   5.472   3.815   1.984 -0.3534  2.5577 -1.7029
   21MOL    C3111671   4.931   3.251   2.487 -0.4228  0.6512  0.5888
   21MOL    C3211672   4.874   3.324   2.363  0.0515 -0.8732  0.0846
   21MOL    O3311673   4.885   3.468   2.373  0.4862 -0.2438 -0.0361
   21MOL    C3411674   4.723   3.274   2.329 -0.7573  0.1269 -0.7368
   21MOL    O3511675   4.712   3.261   2.187  0.5490 -0.7241 -0.5512
   21MOL    C3611676   4.582   3.220   2.141 -0.3828 -0.7091 -0.2142
   21MOL    C3711677   4.562   3.071   2.173 -0.2110  0.7334 -0.1000
   21MOL    C3811678   4.676   2.985   2.130 -0.0849  0.7469 -0.2571
   21MOL    O3911679   4.645   2.849   2.176 -0.0252  0.8501  0.4724
   21MOL    C4011680   4.755   2.772   2.162  0.5908 -0.0213  0.3146
   21MOL    O4111681   4.803   2.764   2.030  0.1403  0.2966  0.2538
   21MOL    C4211682   4.720   2.631   2.207  0.3991  0.7351  0.3708
   21MOL    O4311683   4.643   2.566   2.105 -0.2916 -0.9918  0.1329
   21MOL    H4411684   4.862   3.174   2.523  0.4877 -0.7500 -0.6289
   21MOL    H4511685   4.923   3.326   2.566 -0.4874 -1.2032  2.3711
   21MOL    H4611686   4.944   3.303   2.283  0.1242 -1.1158  0.2126
   21MOL    H4711687   4.855   3.506   2.293  1.5482 -1.6574 -1.1415
   21MOL    H4811688   4.694   3.176   2.366  0.7810 -0.3444 -0.7207
   21MOL    H4911689   4.654   3.349   2.367  0.3549 -0.6555  3.0218
   21MOL    H5011690   4.564   3.242   2.035  0.6254 -1.8829 -0.6493
   21MOL    H5111691   4.505   3.266   2.202  0.5026  0.8212 -0.2175
   21MOL    H5211692   4.472   3.032   2.127 -0.1081 -0.3041  0.5565
   21MOL    H5311693   4.553   3.042   2.278  0.3649  0.3113 -0.1631
   21MOL    H5411694   4.693   2.998   2.024  0.2880  1.4349 -0.1146
   21MOL    H5511695   4.764   3.026   2.180  0.1567 -0.4933  0.3583
   21MOL    H5611696   4.834   2.807   2.229  0.4770  0.5904  0.1398
   21MOL    H5711697   4.769   2.685   1.992 -1.3483  1.8459 -1.7423
   21MOL    H5811698   4.815   2.579   2.217 -0.8104 -0.9638  3.7786
   21MOL    H5911699   4.676   2.641   2.306  2.2065  2.2796  1.0461
   21MOL    C6011700   4.623   2.432   2.145 -0.2895  0.6275  0.0990
   21MOL    C6111701   4.517   2.361   2.058 -0.6622 -0.1160 -0.0597
   21MOL    O6211702   4.400   2.430   2.063  0.3968  0.1649 -0.6518
   21MOL    C6311703   4.479   2.209   2.088 -0.7835 -0.5681  0.2411
   21MOL    O6411704   4.426   2.142   1.971 -0.0892  0.6930  0.0548
   21MOL    C6511705   4.432   2.003   1.981 -0.4486 -0.3328  0.0989
   21MOL    C6611706   4.535   1.960   1.873  0.2452  0.1956 -0.5992
   21MOL    C6711707   4.540   1.802   1.865  0.4065  0.4206  0.0514
   21MOL    O6811708   4.409   1.733   1.856  0.1575  0.5182 -0.0126
   21MOL    C6911709   4.406   1.622   1.768 -0.4211 -0.0152  0.0611
   21MOL    O7011710   4.293   1.528   1.785  0.8613  0.5845 -0.4139
   21MOL    C7111711   4.411   1.672   1.622  0.1668 -0.0318  0.9014
   21MOL    O7211712   4.301   1.762   1.585 -0.3394 -0.2394  0.2796
   21MOL    H7311713   4.594   2.428   2.250 -0.3412 -1.4341  0.0324
   21MOL    H7411714   4.713   2.373   2.133 -1.3025 -1.3720  2.0017
   21MOL    H7511715   4.560   2.366   1.958  0.8873 -1.9735  0.4731
   21MOL    H7611716   4.433   2.519   2.062 -0.4274  0.4764  0.1223
   21MOL    H7711717   4.573   2.158   2.107 -1.1209 -1.4315 -0.3540
   21MOL    H7811718   4.429   2.184   2.181 -1.0492 -0.3323  0.1659
   21MOL    H7911719   4.331   1.973   1.952 -1.1545 -0.6183  2.7412
   21MOL    H8011720   4.447   1.972   2.084 -0.2103 -1.4757 -0.2698
   21MOL    H8111721   4.633   1.996   1.904 -0.3718  1.4801 -0.1227
   21MOL    H8211722   4.528   1.997   1.771 -0.5319  2.1364  0.1378
   21MOL    H8311723   4.590   1.761   1.953 -0.2458 -2.5329 -0.9005
   21MOL    H8411724   4.599   1.772   1.779 -1.3460 -1.1718 -0.6313
   21MOL    H8511725   4.495   1.560   1.778 -0.1212 -0.1507 -2.9485
   21MOL    H8611726   4.222   1.575   1.744 -0.1612  0.0258  0.7077
   21MOL    H8711727   4.510   1.707   1.592 -1.2527  1.5795 -2.1572
   21MOL    H8811728   4.400   1.584   1.558 -0.6677  0.4298  0.4089
   21MOL    C8911729   4.323   1.802   1.448  0.2533  0.2426  0.1606
   21MOL    C9011730   4.428   1.923   1.435  0.4852  0.3776  0.2203
   21MOL    O9111731   4.559   1.870   1.426 -0.1271 -1.0974 -0.2505
   21MOL    C9211732   4.402   2.023   1.318  0.9677 -0.0644  0.3843
   21MOL    O9311733   4.397   1.961   1.194  0.1760  0.0078  0.2721
   21MOL    C9411734   4.412   2.041   1.077 -0.1353 -0.1907 -0.1814
   21MOL    C9511735   4.292   2.045   0.990 -0.1257 -0.1170 -0.2499
   21MOL    C9611736   4.325   2.108   0.856 -0.2135 -0.2916  0.0293
   21MOL    O9711737   4.211   2.111   0.770 -1.0397 -0.1980  0.4783
   21MOL    C9811738   4.248   2.154   0.641 -0.2895  0.1900  0.1190
   21MOL    O9911739   4.321   2.053   0.581  0.3599  0.6546 -0.6508
   21MOL   C10011740   4.118   2.184   0.563  0.2157  0.2428  0.1549
   21MOL   O10111741   4.078   2.322   0.594  0.3274  0.0375 -0.0950
   21MOL   H10211742   4.225   1.841   1.421 -0.7526 -2.8284 -0.7419
   21MOL   H10311743   4.333   1.717   1.381 -2.5105  0.2270 -0.3080
   21MOL   H10411744   4.434   1.977   1.530 -0.7297  1.0680 -0.0860
   21MOL   H10511745   4.543   1.804   1.361 -0.1417 -2.0711  0.7403
   21MOL   H10611746   4.305   2.069   1.339  0.2732 -1.9486  1.4736
   21MOL   H10711747   4.474   2.104   1.322  0.3664  0.5982 -1.6810
   21MOL   H10811748   4.499   1.994   1.032  0.8411  0.5304  0.9133
   21MOL   H10911749   4.443   2.145   1.095  2.1345 -0.9414  0.4159
   21MOL   H11011750   4.207   2.091   1.042 -0.6412 -0.4192 -0.8208
   21MOL   H11111751   4.256   1.943   0.978 -0.0189 -0.0350 -1.2429
   21MOL   H11211752   4.361   2.206   0.887  1.8456 -0.8680 -0.4334
   21MOL   H11311753   4.409   2.070   0.798  0.3798  1.0316  0.0159
   21MOL   H11411754   4.316   2.239   0.648  0.2146 -0.0986 -1.0453
   21MOL   H11511755   4.258   1.986   0.559 -0.4877  1.2477 -0.0412
   21MOL   H11611756   4.149   2.162   0.461 -1.8160 -2.1168 -0.0189
   21MOL   H11711757   4.037   2.114   0.584 -1.1884  1.8260  0.1291
   21MOL   C11811758   3.945   2.342   0.541  0.5191 -0.2422 -0.2688
   21MOL   C11911759   3.885   2.486   0.556  0.3105  0.1368  0.0492
   21MOL   O12011760   3.913   2.559   0.441 -0.2269  0.2225  0.1041
   21MOL   C12111761   3.929   2.559   0.688  0.3075 -0.2028 -1.3413
   21MOL   O12211762   3.857   2.675   0.721 -0.1337  0.0753 -0.2275
   21MOL   C12311763   3.802   2.679   0.850  0.8922  0.4113  1.0929
   21MOL   C12411764   3.822   2.815   0.915 -0.4184 -0.0019  0.6360
   21MOL   C12511765   3.796   2.796   1.065  0.1543  0.7114  0.3709
   21MOL   O12611766   3.731   2.910   1.117  0.3072  0.0517 -0.0059
   21MOL   C12711767   3.810   3.011   1.171  0.2651  0.5142  0.7782
   21MOL   O12811768   3.836   2.987   1.305 -0.0933  0.4526  0.3377
   21MOL   C12911769   3.747   3.142   1.138  0.6456  0.4585  0.2804
   21MOL   O13011770   3.747   3.166   0.995 -0.3051 -0.2696  0.0436
   21MOL   H13111771   3.934   2.311   0.438 -1.3110 -0.9565  0.1217
   21MOL   H13211772   3.882   2.277   0.603 -1.0799  1.8119  0.3300
   21MOL   H13311773   3.777   2.483   0.559  0.3493 -0.3635  2.1420
   21MOL   H13411774   3.925   2.647   0.472  2.4587 -0.3944  0.9971
   21MOL   H13511775   3.929   2.480   0.764  0.7070  0.4186 -0.6907
   21MOL   H13611776   4.037   2.576   0.686  0.4681 -0.6499  1.0288
   21MOL   H13711777   3.833   2.603   0.921  3.8932  0.6447  0.0988
   21MOL   H13811778   3.696   2.666   0.831  0.3967  3.2640  1.6429
   21MOL   H13911779   3.756   2.893   0.878 -1.7010 -0.5722  1.7052
   21MOL   H14011780   3.926   2.849   0.923 -0.1779 -0.4606 -0.4365
   21MOL   H14111781   3.728   2.713   1.085  1.8316 -1.1160 -1.3375
   21MOL   H14211782   3.888   2.772   1.118 -0.1423  0.5660  0.8186
   21MOL   H14311783   3.905   3.017   1.118 -0.6361  1.7923 -0.7387
   21MOL   H14411784   3.767   3.024   1.358  1.2017  4.0852 -0.3735
   21MOL   H14511785   3.650   3.128   1.186  1.6826  2.7100  3.1565
   21MOL   H14611786   3.798   3.221   1.193  0.8294 -0.1339  0.9671
   21MOL   C14711787   3.871   3.228   0.951  0.6533 -0.7846  0.4826
   21MOL   C14811788   3.845   3.318   0.829 -0.2413 -0.1077 -0.1916
   21MOL   O14911789   3.928   3.299   0.715 -0.0694  0.1398 -0.0232
   21MOL   C15011790   3.869   3.465   0.860 -0.6168  1.0068  0.3989
   21MOL   O15111791   4.010   3.469   0.894 -0.0261  0.1719  1.1174
   21MOL   C15211792   4.058   3.595   0.879 -0.0325 -1.0298 -0.6583
   21MOL   C15311793   4.215   3.589   0.885 -0.5028 -0.2618  0.0983
   21MOL   C15411794   4.267   3.732   0.871  0.2945 -0.1642 -0.8231
   21MOL   O15511795   4.408   3.715   0.846 -0.4182  0.1155  0.1264
   21MOL   C15611796   4.465   3.831   0.795 -0.3632 -0.1869 -0.2657
   21MOL   O15711797   4.447   3.836   0.654 -0.4771  0.0480 -0.5053
   21MOL   C15811798   4.620   3.821   0.822 -0.1863 -0.0327  0.4035
   21MOL   O15911799   4.639   3.825   0.968  0.1020  0.7018  0.6657
   21MOL   H16011800   3.943   3.151   0.925  0.5580 -1.1893  1.4139
   21MOL   H16111801   3.910   3.295   1.028 -0.8099  1.2100 -0.4506
   21MOL   H16211802   3.742   3.298   0.799 -0.6610  1.8925 -0.2000
   21MOL   H16311803   4.012   3.323   0.751  0.1664 -0.2680 -0.2918
   21MOL   H16411804   3.847   3.532   0.777  1.1637  0.3589 -0.6273
   21MOL   H16511805   3.814   3.509   0.943  0.4313 -0.2642  1.7906
   21MOL   H16611806   4.020   3.678   0.938  1.0257 -1.6768  0.9662
   21MOL   H16711807   4.035   3.614   0.774 -1.4630  0.4836 -0.0965
   21MOL   H16811808   4.249   3.510   0.819 -0.0339 -0.3221  0.4078
   21MOL   H16911809   4.244   3.554   0.985 -2.7513 -1.4911  0.3518
   21MOL   H17011810   4.215   3.781   0.789 -0.4609  0.3341 -0.0590
   21MOL   H17111811   4.250   3.789   0.963  0.0552 -2.3667  0.5281
   21MOL   H17211812   4.421   3.917   0.847  1.6479  1.2650 -0.9288
   21MOL   H17311813   4.496   3.774   0.603  2.0061  2.3388 -1.0110
   21MOL   H17411814   4.655   3.729   0.775  2.2213  1.3955 -0.7653
   21MOL   H17511815   4.675   3.906   0.780  0.4788  0.1870  1.6945
   21MOL   C17611816   4.733   3.725   1.011 -0.2497  0.0944  0.2194
   21MOL   C17711817   4.655   3.625   1.099  0.3814  0.3707 -0.1659
   21MOL   O17811818   4.550   3.577   1.020  0.2059 -0.0873  0.6484
   21MOL   C17911819   4.600   3.687   1.226 -0.1750  0.0592  0.6116
   21MOL   O18011820   4.696   3.692   1.331 -0.2977  0.4399 -0.0529
   21MOL   C18111821   4.642   3.725   1.460  0.5348  0.0272 -0.6009
   21MOL   C18211822   4.756   3.762   1.559  0.1634  0.3653  0.0714
   21MOL   C18311823   4.873   3.665   1.566 -0.5578 -0.3541 -0.2175
   21MOL   O18411824   4.962   3.732   1.655  0.5716 -0.6762 -0.1621
   21MOL   C18511825   5.093   3.700   1.641 -0.5899  0.1013  0.8016
   21MOL   O18611826   5.119   3.561   1.672  0.6558 -0.7232  0.5385
   21MOL   C18711827   5.174   3.783   1.738 -0.8279  0.2686 -0.2596
   21MOL   O18811828   5.151   3.918   1.715  0.2620 -0.0238  0.0940
   21MOL   H18911829   4.809   3.774   1.073 -1.0268  1.2896  0.2463
   21MOL   H19011830   4.786   3.670   0.933 -0.6785  1.5276 -1.1132
   21MOL   H19111831   4.722   3.542   1.120  0.0765 -0.3148 -1.8211
   21MOL   H19211832   4.505   3.650   0.981  0.1814  1.2485  3.0569
   21MOL   H19311833   4.559   3.787   1.214 -0.3288 -0.3523 -2.7232
   21MOL   H19411834   4.525   3.619   1.266  0.5185 -0.0025  1.8281
   21MOL   H19511835   4.590   3.636   1.494  1.5045 -0.0518  0.6816
   21MOL   H19611836   4.564   3.801   1.448  0.0084 -0.4215 -0.0648
   21MOL   H19711837   4.723   3.780   1.662  1.0971  2.1511  0.0748
   21MOL   H19811838   4.807   3.852   1.524  0.6709  0.1229  0.1870
   21MOL   H19911839   4.859   3.562   1.600 -1.6771 -0.8316 -2.0502
   21MOL   H20011840   4.918   3.666   1.466  1.0602  2.0204  0.4989
   21MOL   H20111841   5.130   3.720   1.540 -0.2855 -0.5437  0.7852
   21MOL   H20211842   5.083   3.508   1.603 -2.8674  2.4943 -0.2341
   21MOL   H20311843   5.154   3.748   1.839 -1.1775  1.7782  0.2076
   21MOL   H20411844   5.279   3.754   1.729 -0.9141  0.0254 -0.4932
   21MOL   C20511845   5.229   4.008   1.799  0.0871  0.4786 -0.1538
   21MOL   C20611846   5.203   4.155   1.764  0.3275  0.1261  0.7350
   21MOL   O20711847   5.285   4.233   1.848  0.4172  0.0197  0.0317
   21MOL   C20811848   5.236   4.188   1.619  0.3845 -0.1179 -0.6445
   21MOL   O20911849   5.182   4.316   1.604 -0.0066  0.2853  0.5475
   21MOL   C21011850   5.199   4.382   1.485  0.3275  0.1456  0.0268
   21MOL   C21111851   5.182   4.531   1.508  0.2828 -0.3467  0.0810
   21MOL   C21211852   5.213   4.617   1.385 -0.1200  0.0157  0.0676
   21MOL   O21311853   5.350   4.619   1.368  0.0701  0.2061 -0.4250
   21MOL   C21411854   5.406   4.730   1.300 -0.2101  0.0330  0.3197
   21MOL   O21511855   5.370   4.728   1.164 -0.1090  0.5123  0.3597
   21MOL   C21611856   5.558   4.731   1.315  0.0190 -0.1809 -0.4996
   21MOL   O21711857   5.601   4.826   1.418  0.0582 -0.2413  0.0724
   21MOL   H21811858   5.333   3.976   1.794  0.0461  0.0698  1.2863
   21MOL   H21911859   5.207   3.986   1.904  0.7677 -1.4711 -0.3958
   21MOL   H22011860   5.103   4.185   1.797 -0.3096 -0.3824 -0.6979
   21MOL   H22111861   5.249   4.320   1.849  1.5920  0.5619 -1.8664
   21MOL   H22211862   5.340   4.184   1.587  0.3788 -3.9617 -0.4322
   21MOL   H22311863   5.194   4.113   1.552 -0.6135 -0.9492  0.8731
   21MOL   H22411864   5.123   4.360   1.411  0.2284 -1.9652  0.7129
   21MOL   H22511865   5.301   4.363   1.451  0.3096 -1.3055  0.7034
   21MOL   H22611866   5.252   4.558   1.587 -1.1149  0.2273  1.1509
   21MOL   H22711867   5.082   4.553   1.547 -1.0211 -2.3531 -1.9706
   21MOL   H22811868   5.165   4.572   1.299  2.3304  0.3608 -1.5243
   21MOL   H22911869   5.175   4.718   1.402  0.8250  0.3645  0.1119
   21MOL   H23011870   5.366   4.821   1.344  3.0471  0.9296  1.5697
   21MOL   H23111871   5.306   4.797   1.158 -0.4204  0.4436  2.6001
   21MOL   H23211872   5.593   4.627   1.318 -0.8635 -0.4642  0.1860
   21MOL   H23311873   5.606   4.764   1.223  0.6692 -1.8423 -0.7751
   21MOL   C23411874   5.588   4.760   1.547 -1.0146 -0.4359  0.0935
   21MOL   C23511875   5.699   4.818   1.639  0.4492 -0.3590 -0.8890
   21MOL   O23611876   5.807   4.732   1.630  0.4062 -0.5156  0.3846
   21MOL   C23711877   5.651   4.831   1.784 -0.1755  0.7170 -0.2110
   21MOL   O23811878   5.731   4.917   1.869 -0.3567 -0.5807 -0.1561
   21MOL   C23911879   5.702   4.899   2.010  0.1941 -0.1547 -0.4591
   21MOL   C24011880   5.774   5.002   2.103  0.1213 -0.0181 -0.2706
   21MOL   C24111881   5.755   4.969   2.256  0.4472  0.3386  0.1448
   21MOL   O24211882   5.794   5.086   2.320 -0.5367 -0.3889 -0.1126
   21MOL   C24311883   5.743   5.091   2.453  0.5823  0.3496  0.7573
   21MOL   O24411884   5.605   5.096   2.458 -0.2726  0.1788 -0.0756
   21MOL   C24511885   5.782   5.228   2.509 -0.3666 -0.1111  0.0877
   21MOL   O24611886   5.794   5.209   2.647 -0.0474 -0.1700  0.2619
   21MOL   H24711887   5.489   4.786   1.584 -0.3089  1.2653  0.8540
   21MOL   H24811888   5.594   4.651   1.553 -1.0402 -0.4699 -0.4821
   21MOL   H24911889   5.737   4.914   1.604 -0.5510  0.1109 -0.7080
   21MOL   H25011890   5.779   4.662   1.687 -0.5460  0.0117  0.5762
   21MOL   H25111891   5.544   4.846   1.794 -0.5051 -2.0371  0.6648
   21MOL   H25211892   5.659   4.736   1.837 -1.4322 -0.7797 -2.6326
   21MOL   H25311893   5.736   4.804   2.051 -1.8677 -0.1823  1.2648
   21MOL   H25411894   5.593   4.902   2.020  0.3175  0.3840  0.8691
   21MOL   H25511895   5.744   5.100   2.065  0.7582  0.6272  0.8531
   21MOL   H25611896   5.880   5.005   2.079  0.0548 -0.3020 -0.6031
   21MOL   H25711897   5.651   4.941   2.274  1.2205 -4.3255 -1.6647
   21MOL   H25811898   5.809   4.880   2.290  1.0825 -0.4262 -2.6394
   21MOL   H25911899   5.788   5.010   2.511 -1.3245 -0.9308  0.4596
   21MOL   H26011900   5.580   5.133   2.541 -0.3558 -0.1630  0.0549
   21MOL   H26111901   5.877   5.253   2.462 -1.0511  0.7635 -0.8517
   21MOL   H26211902   5.715   5.311   2.486 -1.1135 -1.1255 -1.3744
   21MOL   C26311903   5.804   5.334   2.718  0.2328 -0.1421 -0.2697
   21MOL   C26411904   5.803   5.326   2.870  0.4711 -0.5332 -0.1286
   21MOL   O26511905   5.672   5.289   2.898  0.1532  0.0998 -0.3258
   21MOL   C26611906   5.884   5.215   2.934  0.5159 -0.0392 -0.2466
   21MOL   O26711907   5.915   5.241   3.068  0.2667  0.1025 -0.4664
   21MOL   C26811908   5.974   5.128   3.135  0.3661 -0.3615  0.4015
   21MOL   C26911909   6.036   5.175   3.267  0.4432 -0.5635  0.4516
   21MOL   C27011910   6.149   5.087   3.319  0.0923  0.1254  0.3184
   21MOL   O27111911   6.100   4.971   3.380 -0.3767  0.2375  0.2165
   21MOL   C27211912   6.192   4.864   3.394  0.9343 -0.7515 -0.0183
   21MOL   O27311913   6.309   4.910   3.458  0.2799 -0.0959 -0.0545
   21MOL   C27411914   6.122   4.758   3.472  0.1148  0.5014  0.0531
   21MOL   O27511915   6.172   4.633   3.434  0.2891  0.1774  0.6400
   21MOL   H27611916   5.732   5.407   2.682 -1.0982  0.2794  3.1162
   21MOL   H27711917   5.891   5.395   2.692  2.0434 -2.2529  0.6117
   21MOL   H27811918   5.821   5.425   2.911  0.3048 -0.0317 -1.2468
   21MOL   H27911919   5.659   5.287   2.991 -1.1784  1.3959 -0.4711
   21MOL   H28011920   5.860   5.114   2.903  0.1412  0.0288 -0.1751
   21MOL   H28111921   5.983   5.232   2.890 -0.0296 -1.3553 -2.0732
   21MOL   H28211922   6.043   5.076   3.068  1.1535 -2.1101  2.5082
   21MOL   H28311923   5.898   5.053   3.159 -1.7091  0.8751 -2.1086
   21MOL   H28411924   5.957   5.191   3.340  0.2755 -2.6616  0.7574
   21MOL   H28511925   6.075   5.271   3.230 -2.2385 -0.0210 -1.1066
   21MOL   H28611926   6.205   5.055   3.231  2.7763 -0.9833  2.3840
   21MOL   H28711927   6.218   5.144   3.380  1.7882 -0.9846 -0.5286
   21MOL   H28811928   6.221   4.836   3.293 -0.9129 -1.4366 -0.3803
   21MOL   H28911929   6.298   4.919   3.552  0.9089  1.3134 -0.1046
   21MOL   H29011930   6.136   4.776   3.579 -0.9757 -0.1494  0.3106
   21MOL   H29111931   6.014   4.754   3.457  0.0471 -1.3380  0.8506
   21MOL   C29211932   6.132   4.519   3.508 -0.5235  0.4470  0.0309
   21MOL   C29311933   6.214   4.395   3.463 -0.2087  0.1860  0.3629
   21MOL   O29411934   6.338   4.387   3.523  0.2125  0.0199 -0.1855
   21MOL   C29511935   6.159   4.261   3.500  0.5274  0.7438 -0.5024
   21MOL   O29611936   6.240   4.170   3.427  0.1907 -0.5404 -0.1221
   21MOL   C29711937   6.177   4.045   3.417 -0.0919 -0.4264 -0.2221
   21MOL   C29811938   6.268   3.951   3.343  0.0290  0.0224 -0.1663
   21MOL   C29911939   6.199   3.823   3.290  0.7713  0.3512 -0.3714
   21MOL   O30011940   6.295   3.734   3.230 -0.1245  0.1839 -0.6774
   21MOL   C30111941   6.256   3.601   3.210  0.3295 -0.4116 -0.7373
   21MOL   O30211942   6.149   3.593   3.111  0.5278 -0.2587  0.0580
   21MOL   C30311943   6.366   3.511   3.168  0.0499  0.1070 -0.5752
   21MOL   O30411944   6.406   3.436   3.283 -0.0897  0.1605  0.6613
   21MOL   H30511945   6.135   4.528   3.617 -0.6610 -0.0962  0.0822
   21MOL   H30611946   6.030   4.494   3.479 -0.9026  2.2232 -0.2216
   21MOL   H30711947   6.225   4.398   3.355 -0.6098  1.6649  0.3505
   21MOL   H30811948   6.355   4.294   3.525  0.2936  0.0313 -0.3020
   21MOL   H30911949   6.160   4.240   3.607  0.6970 -0.5191 -0.7438
   21MOL   H31011950   6.060   4.246   3.455  0.7980 -1.5130 -0.3960
   21MOL   H31111951   6.087   4.060   3.359  0.3587  2.7195 -0.1969
   21MOL   H31211952   6.142   4.007   3.513 -4.0615  1.1954 -0.9502
   21MOL   H31311953   6.344   3.914   3.412 -0.5478  1.1343  1.0754
   21MOL   H31411954   6.319   3.990   3.255 -0.1712 -1.6983 -1.0734
   21MOL   H31511955   6.144   3.778   3.373  1.1647  0.8968  0.1900
   21MOL   H31611956   6.130   3.847   3.208 -0.4435 -1.5319  0.0721
   21MOL   H31711957   6.214   3.567   3.305 -0.2092  0.7142 -0.5677
   21MOL   H31811958   6.182   3.528   3.050  1.0761  0.8624 -0.8505
   21MOL   H31911959   6.450   3.572   3.135 -0.5677  0.8765 -0.7425
   21MOL   H32011960   6.324   3.436   3.101  0.8851 -1.5366  0.7193
   21MOL   C32111961   6.490   3.506   3.375 -0.5430 -0.0510  0.3452
   21MOL   C32211962   6.525   3.407   3.484 -0.2319  0.1756  0.1370
   21MOL   O32311963   6.613   3.311   3.416  0.2271 -0.0659 -0.2629
   21MOL   C32411964   6.601   3.467   3.602  0.2246 -0.9308  0.1742
   21MOL   O32511965   6.620   3.384   3.712 -0.3805  0.8107 -0.5429
   21MOL   C32611966   6.709   3.442   3.808  0.0665  0.0169  0.0739
   21MOL   C32711967   6.727   3.354   3.928 -0.0382  0.7865  0.0637
   21MOL   C32811968   6.599   3.355   4.016 -0.7634 -0.5521 -0.1182
   21MOL   O32911969   6.596   3.468   4.104  0.5486  0.4202  0.3299
   21MOL   C33011970   6.482   3.474   4.183 -0.4063 -0.0754  0.2588
   21MOL   O33111971   6.487   3.365   4.282 -0.4358  0.0078 -0.6030
   21MOL   C33211972   6.471   3.612   4.254 -0.7899  0.2334 -0.1864
   21MOL   O33311973   6.464   3.708   4.153  0.0230  0.5688  0.2000
   21MOL   H33411974   6.434   3.587   3.422  0.4051  0.7331  0.1655
   21MOL   H33511975   6.583   3.539   3.329 -1.5449  2.5469  0.1171
   21MOL   H33611976   6.426   3.372   3.513 -0.7084  1.3361 -0.0444
   21MOL   H33711977   6.698   3.342   3.444  0.4291 -3.0245  2.7627
   21MOL   H33811978   6.545   3.555   3.635 -0.1195 -0.5738 -1.3464
   21MOL   H33911979   6.695   3.514   3.574 -0.3963 -0.6536 -1.5088
   21MOL   H34011980   6.686   3.543   3.841  1.4445 -0.8254  3.7764
   21MOL   H34111981   6.803   3.445   3.754 -0.0936  0.0949 -0.2028
   21MOL   H34211982   6.749   3.253   3.892  1.1919  0.0552  2.7161
   21MOL   H34311983   6.808   3.382   3.995  0.4432 -0.7291  0.1465
   21MOL   H34411984   6.513   3.363   3.949 -1.1501  1.5262  0.5881
   21MOL   H34511985   6.600   3.262   4.073  0.3022  0.3349  1.3466
   21MOL   H34611986   6.395   3.465   4.117 -0.0259  1.0750 -0.4058
   21MOL   H34711987   6.570   3.371   4.328 -0.1291  1.9736 -1.3897
   21MOL   H34811988   6.382   3.621   4.315 -1.3832 -2.8773 -0.5272
   21MOL   H34911989   6.553   3.631   4.323  0.3800  1.5336 -1.8789
   21MOL   C35011990   6.481   3.849   4.187  0.0053 -0.2085  0.3028
   21MOL   C35111991   6.635   3.887   4.199 -0.1880 -0.2294  0.2724
   21MOL   O35211992   6.680   3.872   4.329 -0.4159  0.5667  0.1422
   21MOL   C35311993   6.723   3.821   4.094 -0.2454 -0.2514  0.1748
   21MOL   O35411994   6.840   3.904   4.056 -0.2778 -0.1694 -0.0050
   21MOL   C35511995   6.955   3.829   4.020  0.3548  0.1865 -0.2500
   21MOL   C35611996   7.062   3.910   3.952  0.4837 -0.4698  0.4179
   21MOL   C35711997   7.010   3.961   3.815  0.1487  0.2287 -1.1554
   21MOL   O35811998   7.010   3.866   3.714 -0.0040 -0.3400  0.8307
   21MOL   C35911999   6.982   3.921   3.594  0.5169 -0.1638 -1.0385
   21MOL   O36012000   7.090   3.970   3.526 -0.6435  0.0637  0.6051
   21MOL   C36112001   6.901   3.813   3.514 -0.3109  0.9655 -0.7693
   21MOL   O36212002   6.965   3.684   3.529  0.1447  0.2547 -0.3764
   21MOL   H36312003   6.434   3.870   4.282  1.3115 -1.1331  1.1833
   21MOL   H36412004   6.438   3.914   4.111  1.7149 -1.1064 -1.4895
   21MOL   H36512005   6.634   3.993   4.174 -2.6474 -1.0489 -3.5844
   21MOL   H36612006   6.768   3.906   4.323  0.4797 -1.6235  0.5869
   21MOL   H36712007   6.748   3.724   4.137  1.3705  0.4828  0.9287
   21MOL   H36812008   6.660   3.803   4.007  1.7418 -0.0230 -1.3301
   21MOL   H36912009   6.942   3.743   3.954 -3.3519 -0.4183  1.1163
   21MOL   H37012010   6.994   3.783   4.111 -2.8529 -1.7843  0.2278
   21MOL   H37112011   7.153   3.854   3.930  0.2979 -0.2892 -0.8286
   21MOL   H37212012   7.089   3.992   4.019  1.0623 -0.8857  0.6992
   21MOL   H37312013   6.910   4.003   3.829 -0.7211 -1.9304 -0.7172
   21MOL   H37412014   7.063   4.052   3.788  0.4153  1.1994  2.2911
   21MOL   H37512015   6.912   4.003   3.610  0.3398 -0.4951 -0.0531
   21MOL   H37612016   7.147   3.908   3.484  0.7179  2.8553 -1.8788
   21MOL   H37712017   6.799   3.802   3.551  0.1382  1.3816  0.6016
   21MOL   H37812018   6.913   3.847   3.411  2.0960 -1.0135 -1.1888
   21MOL   C37912019   6.922   3.582   3.430 -0.2660  0.1502  0.3554
   21MOL   C38012020   6.968   3.441   3.467  0.9647 -0.5624 -0.0323
   21MOL   O38112021   6.893   3.353   3.387 -0.4123 -0.1150  1.0771
   21MOL   C38212022   7.118   3.414   3.455 -1.2839  0.4173 -0.7011
   21MOL   O38312023   7.141   3.274   3.488 -0.2037 -0.5873 -0.5071
   21MOL   C38412024   7.268   3.220   3.454 -0.0533  0.8190  1.1807
   21MOL   C38512025   7.369   3.224   3.565 -0.3503 -0.0944  0.3153
   21MOL   C38612026   7.518   3.194   3.530  0.1470 -0.6443  0.4866
   21MOL   O38712027   7.565   3.282   3.427  0.4400  0.2116  0.2435
   21MOL   C38812028   0.003   3.258   3.396  0.3911  0.0565 -0.0808
   21MOL   O38912029   0.025   3.141   3.325  0.2098  0.1330  0.0370
   21MOL   C39012030   0.054   3.379   3.310 -0.4215 -0.2462  0.5871
   21MOL   O39112031   7.669   3.386   3.186  0.8841 -0.1941 -0.6348
   21MOL   H39212032   6.983   3.613   3.345 -0.2957  1.2148  0.7112
   21MOL   H39312033   6.817   3.585   3.402  0.3349  1.2526 -1.9201
   21MOL   H39412034   6.935   3.427   3.570  1.5586 -0.6916  0.1434
   21MOL   H39512035   6.950   3.278   3.378  2.7995  2.2249  1.3342
   21MOL   H39612036   7.151   3.449   3.358 -0.5869  1.2517 -0.1679
   21MOL   H39712037   7.172   3.484   3.518 -1.3100  1.3817 -1.7418
   21MOL   H39812038   7.304   3.267   3.362 -1.8347 -0.0293  0.0212
   21MOL   H39912039   7.251   3.114   3.436  1.2464  0.9749 -1.1314
   21MOL   H40012040   7.343   3.164   3.652 -1.7234  0.1332  0.0761
   21MOL   H40112041   7.373   3.325   3.605 -1.1176  0.2428 -0.4457
   21MOL   H40212042   7.572   3.218   3.621 -1.4049 -0.0747  1.2838
   21MOL   H40312043   7.535   3.089   3.507 -0.9949 -1.1646  1.9254
   21MOL   H40412044   0.070   3.264   3.482  0.5232  0.2064 -0.1931
   21MOL   H40512045   7.684   3.153   3.239 -0.7915 -1.4699  0.2115
   21MOL   H40612046   0.061   3.474   3.363  1.9480 -0.6290  1.0110
   21MOL   H40712047   0.156   3.359   3.277 -1.2452 -2.2448 -0.8060
   21MOL   C40812048   7.556   3.476   3.195  0.6102  0.4546  0.0874
   21MOL   C40912049   7.467   3.467   3.079  0.8882  0.1569  0.0783
   21MOL   O41012050   7.533   3.513   2.960  0.2709 -0.4593  0.2666
   21MOL   C41112051   7.335   3.556   3.092 -0.2774 -0.0407 -0.2611
   21MOL   O41212052   7.376   3.688   3.139  0.1886  0.0376  0.0064
   21MOL   C41312053   7.268   3.765   3.171 -0.2018 -0.2742 -0.0985
   21MOL   C41412054   7.304   3.843   3.298  0.2565  0.3900  0.3054
   21MOL   C41512055   7.315   3.750   3.424 -0.2315 -0.3737  0.3296
   21MOL   O41612056   7.325   3.828   3.531  0.1600 -0.1100 -1.2645
   21MOL   C41712057   7.365   3.772   3.657  0.2845 -0.3723 -0.3674
   21MOL   O41812058   7.253   3.701   3.705 -0.1560  0.9582  0.1461
   21MOL   C41912059   7.406   3.884   3.745 -0.2282  0.2506 -0.3065
   21MOL   O42012060   7.518   3.953   3.685 -0.5311 -0.3215  0.3476
   21MOL   H42112061   7.582   3.582   3.203 -1.2419  0.7752  2.5059
   21MOL   H42212062   7.494   3.449   3.281 -0.0699  0.0457 -0.5316
   21MOL   H42312063   7.436   3.365   3.056 -1.1767  0.9606 -0.7698
   21MOL   H42412064   7.529   3.606   2.975  1.0475 -0.5082  0.7903
   21MOL   H42512065   7.288   3.577   2.996  0.0425 -0.6870 -0.5555
   21MOL   H42612066   7.271   3.499   3.159  0.3812 -2.2960 -1.5097
   21MOL   H42712067   7.245   3.831   3.086 -0.2679  0.3578  0.4061
   21MOL   H42812068   7.171   3.719   3.189 -0.2068 -1.1642 -2.1867
   21MOL   H42912069   7.235   3.926   3.311 -1.2619 -0.5426 -1.5851
   21MOL   H43012070   7.397   3.897   3.283  0.9298 -0.2195  2.1594
   21MOL   H43112071   7.232   3.681   3.440 -2.2605  2.0684  0.7466
   21MOL   H43212072   7.407   3.695   3.402 -0.2074  0.0501 -0.6915
   21MOL   H43312073   7.449   3.704   3.641  0.7549  0.3634 -1.0799
   21MOL   H43412074   7.182   3.761   3.688 -3.1934 -2.2085  1.1320
   21MOL   H43512075   7.324   3.955   3.752  0.7838  1.1970  2.7214
   21MOL   H43612076   7.417   3.848   3.847  2.1377 -1.8377 -1.2426
   21MOL   C43712077   7.533   4.076   3.752  0.3209 -0.2038 -0.7688
   21MOL   C43812078   7.667   4.140   3.717  0.2867 -0.7960 -0.4932
   21MOL   O43912079   0.071   4.060   3.796 -0.1074  0.3271  0.0136
   21MOL   C44012080   7.668   4.286   3.772 -0.3540 -0.6233  0.5362
   21MOL   O44112081   7.576   4.371   3.706  0.0567  0.4997  0.5788
   21MOL   C44212082   7.577   4.507   3.757  0.3664 -0.0593  0.4020
   21MOL   C44312083   7.452   4.579   3.814 -0.4770 -0.1507  0.8311
   21MOL   C44412084   7.348   4.583   3.699 -0.0182  0.1757 -0.2478
   21MOL   O44512085   7.306   4.450   3.671  0.2574  0.1223  0.3428
   21MOL   C44612086   7.196   4.429   3.574 -0.6772 -0.3981 -0.4768
   21MOL   O44712087   7.080   4.476   3.636  0.4138 -0.2333  0.2450
   21MOL   C44812088   7.179   4.279   3.545 -1.6903 -0.1360  0.3273
   21MOL   O44912089   7.243   4.249   3.414  0.9094 -0.0814 -0.1479
   21MOL   H45012090   7.458   4.144   3.711 -0.3769 -0.3850  0.1971
   21MOL   H45112091   7.523   4.071   3.860  0.7852 -0.3990 -0.7322
   21MOL   H45212092   0.006   4.145   3.614  1.2784  0.6179 -0.1205
   21MOL   H45312093   0.088   3.980   3.748 -2.8270  0.0667 -0.6096
   21MOL   H45412094   7.653   4.289   3.880 -0.1856 -1.4482  0.5928
   21MOL   H45512095   0.068   4.331   3.741 -0.0391 -0.6902  1.3789
   21MOL   H45612096   7.628   4.570   3.683  2.4204 -2.9650 -0.7367
   21MOL   H45712097   7.636   4.516   3.848  0.3538  0.3694  0.3722
   21MOL   H45812098   7.470   4.678   3.856 -2.5978  0.3188  0.6642
   21MOL   H45912099   7.403   4.520   3.891 -1.7061  1.2330  1.1383
   21MOL   H46012100   7.269   4.655   3.720  0.3010 -0.0665  1.9190
   21MOL   H46112101   7.400   4.629   3.615  0.3703 -0.4634 -0.3604
   21MOL   H46212102   7.224   4.488   3.487 -3.1245  0.9319 -0.4110
   21MOL   H46312103   7.075   4.565   3.605 -0.6524 -0.6681 -0.8880
   21MOL   H46412104   7.202   4.216   3.630 -0.9684  1.7300  1.5586
   21MOL   H46512105   7.075   4.254   3.523 -1.0946 -0.9128 -1.6451
   21MOL   C46612106   7.380   4.205   3.430 -0.1699 -0.6999  0.3752
   21MOL   C46712107   7.444   4.236   3.295 -1.0199 -0.0988 -0.5408
   21MOL   O46812108   7.447   4.377   3.289  0.6153  0.2566 -0.0581
   21MOL   C46912109   7.592   4.187   3.277  0.0648 -0.5780  0.0626
   21MOL   O47012110   7.593   4.048   3.292  0.1852  0.2232 -0.5109
   21MOL   C47112111   0.021   3.990   3.273  0.0250 -0.8033 -0.0548
   21MOL   C47212112   0.021   3.839   3.310 -0.2466  0.1578  0.0022
   21MOL   C47312113   0.023   3.806   3.461 -0.5242  0.0496 -0.3535
   21MOL   O47412114   0.137   3.733   3.493  0.1430  0.4500  0.1388
   21MOL   C47512115   0.152   3.716   3.628 -0.8036  0.4043  0.2698
   21MOL   O47612116   0.167   3.836   3.696 -0.6514 -0.4393 -0.1008
   21MOL   C47712117   0.271   3.621   3.650 -0.0341  0.0838  0.1747
   21MOL   O47812118   0.388   3.677   3.599  0.6730  0.9019  0.2393
   21MOL   H47912119   7.376   4.098   3.448  1.4837 -0.5454  1.8397
   21MOL   H48012120   7.422   4.253   3.518  0.9259 -0.2312 -0.3863
   21MOL   H48112121   7.384   4.200   3.211  0.5528 -2.2792 -0.7866
   21MOL   H48212122   7.365   4.405   3.326  0.9679  1.9834 -0.5339
   21MOL   H48312123   7.630   4.216   3.179  2.6647 -2.3441  0.5223
   21MOL   H48412124   7.651   4.235   3.355 -1.6883  2.4142 -0.3326
   21MOL   H48512125   0.100   4.032   3.334 -1.8666 -0.5085  2.2994
   21MOL   H48612126   0.043   3.994   3.167 -1.3088 -0.1078 -0.3139
   21MOL   H48712127   0.106   3.791   3.261  0.4057  0.1159  1.1554
   21MOL   H48812128   7.635   3.782   3.263 -0.0727 -0.3763  0.3470
   21MOL   H48912129   0.015   3.901   3.515 -0.6626 -0.3761  0.3721
   21MOL   H49012130   7.626   3.751   3.484 -1.0090  1.1447  0.4221
   21MOL   H49112131   0.063   3.660   3.658 -1.2995  1.2561  0.3814
   21MOL   H49212132   0.250   3.877   3.680 -2.3966  2.9576 -0.9544
   21MOL   H49312133   0.270   3.599   3.757 -0.4351 -2.3876 -0.2902
   21MOL   H49412134   0.248   3.520   3.617  1.9410 -0.6093  0.8438
   21MOL   C49512135   0.476   3.738   3.693  0.3150 -0.6925 -0.5894
   21MOL   C49612136   0.524   3.864   3.618  0.7207 -0.0973 -0.6767
   21MOL   O49712137   0.418   3.956   3.621  0.2701  0.1926  0.3083
   21MOL   C49812138   0.636   3.941   3.689  0.2659 -0.0218 -0.2503
   21MOL   O49912139   0.677   4.042   3.596  0.8292 -0.0342 -0.0067
   21MOL   C50012140   0.737   4.154   3.663 -0.1779 -0.2209  0.1456
   21MOL   C50112141   0.857   4.191   3.576 -0.1231  0.5399 -0.1068
   21MOL   C50212142   0.947   4.306   3.635 -0.2982 -0.1069 -0.5840
   21MOL   O50312143   0.860   4.417   3.621  0.2158 -0.2067 -0.1592
   21MOL   C50412144   0.914   4.545   3.636  0.1230  0.0969 -0.3023
   21MOL   O50512145   0.978   4.563   3.758 -0.4285 -0.0301 -0.1074
   21MOL   C50612146   0.810   4.647   3.613 -0.4463  0.0237  0.8328
   21MOL   O50712147   0.720   4.657   3.722 -0.0799  0.5439  0.5152
   21MOL   H50812148   0.560   3.669   3.701 -0.0693 -1.2662 -1.4212
   21MOL   H50912149   0.439   3.764   3.792  0.6175 -0.6276 -0.4919
   21MOL   H51012150   0.556   3.841   3.517 -4.9760 -2.6622 -2.0920
   21MOL   H51112151   0.458   4.039   3.601  0.6942 -0.3508 -1.1556
   21MOL   H51212152   0.596   3.978   3.783 -0.7427 -1.1159 -0.2326
   21MOL   H51312153   0.726   3.886   3.713 -0.1817  0.1352  1.8394
   21MOL   H51412154   0.772   4.121   3.761 -2.4437 -0.7768  0.8031
   21MOL   H51512155   0.658   4.223   3.694 -0.4728 -0.9900  1.1812
   21MOL   H51612156   0.828   4.220   3.475  0.9535 -1.5377 -1.0429
   21MOL   H51712157   0.912   4.097   3.568 -0.0431  0.6281 -0.6068
   21MOL   H51812158   0.983   4.282   3.735  1.8493  0.7574 -1.1234
   21MOL   H51912159   1.040   4.312   3.577  1.2494  0.6896  1.9184
   21MOL   H52012160   0.983   4.564   3.554 -2.6514  1.1353 -2.4693
   21MOL   H52112161   0.909   4.570   3.823  0.3035 -2.1138  0.9239
   21MOL   H52212162   0.861   4.742   3.603  2.5534 -1.5738  0.2703
   21MOL   H52312163   0.755   4.624   3.522  1.6216  0.3602 -0.5254
   21MOL   C52412164   0.644   4.782   3.730 -0.1437  0.5539 -0.5168
   21MOL   C52512165   0.527   4.756   3.822  0.3432  0.0340 -0.3200
   21MOL   O52612166   0.578   4.681   3.927 -0.3394 -0.4528 -0.4161
   21MOL   C52712167   0.419   4.680   3.752  0.3902 -0.1900  0.6364
   21MOL   O52812168   0.301   4.703   3.825  0.2490 -0.2469  0.4923
   21MOL   C52912169   0.273   4.648   3.949  0.6553 -0.1961  0.2194
   21MOL   C53012170   0.161   4.710   4.019  0.5118  0.1896 -0.4637
   21MOL   C53112171   0.097   4.620   4.123 -0.5856  0.2667  0.5668
   21MOL   O53212172   0.010   4.701   4.206  0.2396 -0.2893 -0.4927
   21MOL   C53312173   7.619   4.639   4.299 -0.6895 -0.2975  0.0978
   21MOL   O53412174   0.013   4.580   4.394 -0.4733 -0.1200 -0.0851
   21MOL   C53512175   7.527   4.749   4.360  0.9584  0.1105  0.1078
   21MOL   O53612176   7.387   4.721   4.326  0.3123  0.2364  0.2777
   21MOL   H53712177   0.613   4.824   3.635 -0.1666 -3.5465 -2.4317
   21MOL   H53812178   0.711   4.858   3.771 -0.1556 -0.2803  1.0981
   21MOL   H53912179   0.484   4.850   3.856  0.6148  0.6181 -1.5648
   21MOL   H54012180   0.616   4.607   3.883  1.3890 -0.6400  1.2984
   21MOL   H54112181   0.408   4.729   3.655 -0.4195 -5.0759 -1.8665
   21MOL   H54212182   0.441   4.576   3.731 -0.9806 -0.8930  2.5331
   21MOL   H54312183   0.365   4.642   4.008  1.3073 -1.4028 -0.8978
   21MOL   H54412184   0.248   4.544   3.927  0.4320 -0.5532  2.0712
   21MOL   H54512185   0.094   4.758   3.947  1.7919 -1.2604 -2.6689
   21MOL   H54612186   0.190   4.797   4.078  1.5204 -0.8462  0.5811
   21MOL   H54712187   0.045   4.540   4.069  0.3248 -1.1999  1.8364
   21MOL   H54812188   0.175   4.577   4.185 -1.5726 -0.0147  1.6187
   21MOL   H54912189   7.566   4.562   4.243  0.3476 -1.5319  0.7987
   21MOL   H55012190   0.045   4.648   4.451 -3.3054  1.4376 -0.2211
   21MOL   H55112191   7.535   4.774   4.466  0.0597  2.0987 -0.2615
   21MOL   H55212192   7.553   4.846   4.317  0.1964  1.0216  1.6492
   21MOL   C55312193   7.323   4.640   4.425 -0.6373  0.4713  0.3596
   21MOL   C55412194   7.181   4.612   4.363  0.5582 -0.2206 -0.0850
   21MOL   O55512195   7.098   4.734   4.361  0.7005 -0.1477  0.2935
   21MOL   C55612196   7.101   4.521   4.457 -0.0942 -0.8559  0.0475
   21MOL   O55712197   6.973   4.495   4.393  0.0372  0.1447  0.3570
   21MOL   C55812198   6.890   4.402   4.451  0.3070  0.7994 -0.7937
   21MOL   C55912199   6.750   4.395   4.383 -0.3180 -0.0281 -0.0939
   21MOL   C56012200   6.674   4.527   4.419 -0.2560  0.1189  0.3574
   21MOL   O56112201   6.545   4.523   4.361  0.3976  0.2978  0.1278
   21MOL   C56212202   6.457   4.632   4.394 -0.7964  0.0143  0.4374
   21MOL   O56312203   6.481   4.761   4.335  0.0027  0.6059 -0.1648
   21MOL   C56412204   6.313   4.587   4.362 -0.9605  0.3796  0.5462
   21MOL   O56512205   6.225   4.652   4.450 -0.1219  0.2062 -0.2677
   21MOL   H56612206   7.322   4.693   4.520 -1.0228  1.4417 -0.1883
   21MOL   H56712207   7.384   4.549   4.428  1.1358  1.6330  0.1512
   21MOL   H56812208   7.190   4.572   4.262 -1.6689  0.5938 -0.6224
   21MOL   H56912209   7.014   4.713   4.399  0.7891  1.1995  1.2617
   21MOL   H57012210   7.150   4.425   4.471 -0.6327 -1.2365 -0.5840
   21MOL   H57112211   7.072   4.561   4.554 -0.4002 -2.4384  0.6315
   21MOL   H57212212   6.938   4.305   4.440 -0.5187  0.5008 -1.8655
   21MOL   H57312213   6.873   4.425   4.556 -1.7006  0.0596 -0.9412
   21MOL   H57412214   6.694   4.307   4.417 -0.0782 -0.4107 -0.6824
   21MOL   H57512215   6.764   4.385   4.276 -0.0271 -0.8453  0.0147
   21MOL   H57612216   6.668   4.523   4.528  0.8335  0.4954  0.4324
   21MOL   H57712217   6.720   4.620   4.386 -1.5557 -0.2711 -2.6475
   21MOL   H57812218   6.462   4.647   4.502  1.2979 -2.3591  0.6996
   21MOL   H57912219   6.408   4.817   4.358  0.7251  1.4381  0.1064
   21MOL   H58012220   6.287   4.589   4.256  0.4622 -2.1184  0.0981
   21MOL   H58112221   6.314   4.484   4.397 -1.1252  0.5328  1.0131
   21MOL   H58212222   6.238   4.622   4.539  0.3792 -0.8469 -0.6816
   22MOL     C112223   4.807   5.353   5.714 -0.3552 -0.1887 -0.6099
   22MOL     C212224   4.836   5.214   5.670 -1.2140  0.0779 -0.3234
   22MOL     O312225   4.716   5.171   5.605  0.0472  0.2275  1.1032
   22MOL     C412226   4.952   5.201   5.571  0.1347  0.9618  0.3213
   22MOL     O512227   4.950   5.060   5.539 -0.3514  0.1948  0.3007
   22MOL     C612228   5.080   5.012   5.488  0.3900  0.0046 -0.1804
   22MOL     C712229   5.168   4.957   5.601 -0.7705 -0.0503  0.0361
   22MOL     C812230   5.303   4.890   5.557  0.7071  0.2967  0.1237
   22MOL     O912231   5.363   4.793   5.647  1.2790 -0.5981 -0.0480
   22MOL    C1012232   5.388   4.837   5.773  0.2081 -0.0154  0.5860
   22MOL    O1112233   5.476   4.947   5.777  0.8813  0.3572 -0.7537
   22MOL    C1212234   5.444   4.709   5.842 -0.0270 -0.0173  0.0075
   22MOL    O1312235   5.545   4.640   5.768  0.7618 -0.4396 -0.0793
   22MOL    H1412236   4.809   5.416   5.626 -1.5888 -0.5253 -0.8837
   22MOL    H1512237   4.881   5.387   5.786 -1.4553  1.6857 -0.3541
   22MOL    H1612238   4.856   5.159   5.761 -0.5798 -0.1141 -0.5758
   22MOL    H1712239   4.745   5.099   5.551 -0.5335  0.9694 -0.2423
   22MOL    H1812240   4.940   5.264   5.483 -0.4280  1.9714  1.1128
   22MOL    H1912241   5.041   5.231   5.627  1.9068 -1.6010 -1.0349
   22MOL    H2012242   5.136   5.088   5.434 -2.8708  2.8966  0.3470
   22MOL    H2112243   5.059   4.926   5.425  0.0691 -0.4401  0.5249
   22MOL    H2212244   5.119   4.874   5.652  0.1097 -0.7909 -0.3104
   22MOL    H2312245   5.184   5.043   5.666 -2.0707  1.0319 -1.0490
   22MOL    H2412246   5.284   4.833   5.466  0.6095  1.7950 -0.8021
   22MOL    H2512247   5.383   4.960   5.534  0.7686  0.2511  0.1992
   22MOL    H2612248   5.300   4.875   5.825 -0.1673  0.1664 -0.1816
   22MOL    H2712249   5.555   4.929   5.826  0.8635  0.2915 -0.7501
   22MOL    H2812250   5.474   4.728   5.945 -1.0670  1.0086  0.1332
   22MOL    H2912251   5.363   4.637   5.834  0.8431 -0.8424 -1.6911
   22MOL    H3012252   4.714   5.351   5.771  0.4684  0.1262  0.7591
   22MOL    C3112253   5.576   4.508   5.812  0.1433  0.4239 -0.0389
   22MOL    C3212254   5.715   4.479   5.746 -0.4457  0.5443  0.0717
   22MOL    O3312255   5.706   4.361   5.665 -0.3404  0.1037 -0.0202
   22MOL    C3412256   5.821   4.438   5.857 -0.5502 -0.3406 -0.0021
   22MOL    O3512257   5.939   4.421   5.774 -0.0262 -0.5919 -0.2535
   22MOL    C3612258   6.057   4.370   5.834 -0.6643 -0.1562  0.5027
   22MOL    C3712259   6.051   4.227   5.849  0.2544  0.9127 -0.4671
   22MOL    C3812260   6.071   4.135   5.731 -0.4281  0.1239  0.3807
   22MOL    O3912261   5.979   4.166   5.624 -1.0369  0.0567  0.9149
   22MOL    C4012262   6.019   4.118   5.498 -0.8004 -0.1211 -0.1593
   22MOL    O4112263   6.135   4.187   5.448  0.0136 -0.3164 -0.1062
   22MOL    C4212264   5.897   4.137   5.401  0.3761 -0.0798 -0.6105
   22MOL    O4312265   5.899   4.266   5.341  0.2768  0.1005  0.0617
   22MOL    H4412266   5.579   4.499   5.920  2.5241  1.1774 -0.0233
   22MOL    H4512267   5.498   4.436   5.784 -0.1680  0.2837  1.1628
   22MOL    H4612268   5.754   4.564   5.690  1.3245 -0.3226 -0.0298
   22MOL    H4712269   5.792   4.322   5.667  0.2253  1.3537  1.9962
   22MOL    H4812270   5.836   4.515   5.933 -1.5091 -1.5809  1.4721
   22MOL    H4912271   5.794   4.341   5.899 -0.4390 -0.7541 -0.8582
   22MOL    H5012272   6.067   4.418   5.931 -0.3678  1.0248 -0.0975
   22MOL    H5112273   6.150   4.400   5.785 -0.7275 -0.1742  0.3707
   22MOL    H5212274   5.957   4.193   5.893  0.9714 -0.3888  0.0901
   22MOL    H5312275   6.122   4.198   5.926 -0.1194  0.3262 -0.3429
   22MOL    H5412276   6.173   4.140   5.691 -0.6360  1.1007 -0.0534
   22MOL    H5512277   6.051   4.032   5.759 -1.0390  0.4957  1.3278
   22MOL    H5612278   6.039   4.012   5.515  0.0913 -0.0281 -0.5824
   22MOL    H5712279   6.108   4.272   5.419  1.5073 -0.5195 -2.2538
   22MOL    H5812280   5.904   4.080   5.308 -1.4709 -0.2109 -0.6834
   22MOL    H5912281   5.803   4.108   5.448  0.2312  2.7208  0.9502
   22MOL    C6012282   5.768   4.308   5.291 -0.0431  0.2728  0.4110
   22MOL    C6112283   5.774   4.456   5.247 -0.2428 -0.0149  0.0316
   22MOL    O6212284   5.823   4.526   5.361  0.8779 -0.1148  0.2965
   22MOL    C6312285   5.647   4.518   5.193  0.6203  0.5592 -0.0557
   22MOL    O6412286   5.684   4.624   5.100  0.1595 -0.0265 -0.1610
   22MOL    C6512287   5.578   4.711   5.065 -0.8772 -0.2562 -0.0958
   22MOL    C6612288   5.636   4.821   4.983 -0.3641 -0.3746 -1.2694
   22MOL    C6712289   5.736   4.912   5.056 -0.4975 -0.9172 -0.1870
   22MOL    O6812290   5.747   5.043   4.988  0.2066 -0.5562  0.0231
   22MOL    C6912291   5.797   5.143   5.069  0.0983 -0.1871  0.4424
   22MOL    O7012292   5.925   5.099   5.099  0.3933 -0.1066  0.2931
   22MOL    C7112293   5.794   5.271   4.981 -0.2735 -0.2797 -0.2564
   22MOL    O7212294   5.664   5.329   4.961 -0.0481  0.3848  0.0036
   22MOL    H7312295   5.684   4.310   5.361 -0.7649  0.6247 -0.4480
   22MOL    H7412296   5.739   4.241   5.210  1.0468 -2.5863  2.3079
   22MOL    H7512297   5.851   4.476   5.173  0.0751  1.1032  0.6532
   22MOL    H7612298   5.792   4.480   5.438 -1.7514  0.5756 -0.2866
   22MOL    H7712299   5.578   4.454   5.137 -2.2403 -0.2630  4.1396
   22MOL    H7812300   5.581   4.551   5.274  1.4382  0.5458  0.6216
   22MOL    H7912301   5.536   4.756   5.155 -3.1833  2.8395 -2.6230
   22MOL    H8012302   5.498   4.660   5.013  0.3260  0.1238 -2.3921
   22MOL    H8112303   5.542   4.873   4.964  0.0742  1.0130  0.2727
   22MOL    H8212304   5.684   4.788   4.891  0.6472  0.9843 -1.2548
   22MOL    H8312305   5.838   4.879   5.078 -0.7261 -2.4516 -1.3210
   22MOL    H8412306   5.696   4.931   5.155  0.4846  0.6165 -0.0781
   22MOL    H8512307   5.739   5.158   5.160 -1.1300 -2.6666  0.1196
   22MOL    H8612308   5.985   5.131   5.034 -0.7605  0.3689 -0.5543
   22MOL    H8712309   5.844   5.351   5.035  2.0271 -1.6256 -0.3050
   22MOL    H8812310   5.850   5.248   4.890  1.2485  0.6573  0.4270
   22MOL    C8912311   5.665   5.424   4.853  0.2424 -0.2003  0.4545
   22MOL    C9012312   5.511   5.464   4.825  0.2338 -0.1233 -0.2419
   22MOL    O9112313   5.507   5.584   4.738  0.6564 -0.0886  0.3151
   22MOL    C9212314   5.440   5.353   4.759  0.1836  0.2606 -0.1228
   22MOL    O9312315   5.301   5.372   4.759 -0.1861 -0.3384 -0.1001
   22MOL    C9412316   5.219   5.279   4.694  0.3721 -1.1864  0.6015
   22MOL    C9512317   5.085   5.362   4.691 -0.3715 -0.4946 -0.5875
   22MOL    C9612318   4.963   5.290   4.616 -0.9872  0.5458 -0.6162
   22MOL    O9712319   4.865   5.392   4.593  0.2033  0.1815  0.8334
   22MOL    C9812320   4.755   5.331   4.539 -0.4060 -0.2928  0.1861
   22MOL    O9912321   4.678   5.249   4.626 -0.3260  0.1315 -0.0503
   22MOL   C10012322   4.666   5.444   4.474  0.1491 -0.1590  0.1704
   22MOL   O10112323   4.748   5.526   4.390  0.1080  0.6806 -0.9207
   22MOL   H10212324   5.697   5.377   4.760 -1.6265 -1.3630  0.3662
   22MOL   H10312325   5.725   5.513   4.868  0.2710 -0.1824  0.2306
   22MOL   H10412326   5.465   5.493   4.919 -2.1282 -2.0078 -0.7590
   22MOL   H10512327   5.416   5.606   4.725  1.0607  0.9364 -0.8235
   22MOL   H10612328   5.477   5.346   4.657  1.5242 -0.0421  0.3872
   22MOL   H10712329   5.460   5.258   4.807 -0.7634  1.1038  1.9889
   22MOL   H10812330   5.218   5.179   4.739  0.6100 -0.0900  3.1630
   22MOL   H10912331   5.245   5.275   4.588 -1.8796 -0.4346  0.0033
   22MOL   H11012332   5.103   5.455   4.637 -2.4921  1.4989  1.9943
   22MOL   H11112333   5.057   5.387   4.793 -0.0004 -2.6035  0.0430
   22MOL   H11212334   5.001   5.259   4.518 -1.7273  1.3488 -1.1647
   22MOL   H11312335   4.926   5.211   4.681  0.6545 -0.3675 -0.7442
   22MOL   H11412336   4.791   5.263   4.462 -1.0744 -0.7752  0.2932
   22MOL   H11512337   4.603   5.218   4.577 -1.9423  2.7493  0.6867
   22MOL   H11612338   4.585   5.390   4.425  3.0498 -2.4643 -2.3113
   22MOL   H11712339   4.616   5.505   4.549  1.7281 -1.1895  2.1145
   22MOL   C11812340   4.765   5.469   4.262  0.4095 -0.0205 -0.1794
   22MOL   C11912341   4.891   5.539   4.206 -1.2394  0.3290  0.4433
   22MOL   O12012342   4.917   5.495   4.072 -0.5313  0.2122  0.5313
   22MOL   C12112343   5.022   5.501   4.278 -0.4365 -0.4783 -0.0109
   22MOL   O12212344   5.125   5.577   4.215 -0.8741 -0.5275  0.0496
   22MOL   C12312345   5.258   5.559   4.261  0.0550 -0.0241 -0.0154
   22MOL   C12412346   5.279   5.568   4.416 -0.6619 -0.0844  0.0422
   22MOL   C12512347   5.240   5.704   4.476 -0.0981  0.4775  0.1911
   22MOL   O12612348   5.296   5.717   4.604  0.8049  0.1960  0.2413
   22MOL   C12712349   5.256   5.841   4.656 -0.0853 -0.3933 -0.9561
   22MOL   O12812350   5.332   5.943   4.601  0.0431 -0.0894 -0.1670
   22MOL   C12912351   5.274   5.851   4.813 -0.2869  0.2270 -0.5160
   22MOL   O13012352   5.411   5.867   4.851 -0.7400  0.4409 -0.1017
   22MOL   H13112353   4.775   5.361   4.255 -2.1072 -0.2182 -1.5965
   22MOL   H13212354   4.671   5.485   4.209 -0.8636 -1.5301  1.5387
   22MOL   H13312355   4.890   5.646   4.222  1.7794  0.7436 -1.7379
   22MOL   H13412356   5.003   5.530   4.055 -0.3616 -1.1628 -1.6556
   22MOL   H13512357   5.023   5.511   4.386 -0.6304  0.3704 -0.0916
   22MOL   H13612358   5.037   5.393   4.267 -0.4567 -0.6424  1.5128
   22MOL   H13712359   5.323   5.618   4.196 -0.7860  0.5111 -0.3906
   22MOL   H13812360   5.286   5.456   4.242 -0.9353 -0.3123  0.0896
   22MOL   H13912361   5.385   5.549   4.431 -0.3194  2.9702  1.7723
   22MOL   H14012362   5.227   5.489   4.470  0.0978 -0.1120  0.7344
   22MOL   H14112363   5.288   5.785   4.421  0.0272  0.8471  0.8369
   22MOL   H14212364   5.132   5.717   4.483 -0.3941 -2.5238  1.9992
   22MOL   H14312365   5.153   5.865   4.630 -1.1992 -2.3526  1.4584
   22MOL   H14412366   5.412   5.953   4.651 -1.0722  0.1351  1.6099
   22MOL   H14512367   5.209   5.931   4.847  0.1399  0.3184  0.0971
   22MOL   H14612368   5.246   5.756   4.858  1.5332  0.1976  0.6070
   22MOL   C14712369   5.434   5.843   4.993 -0.2832  0.4402 -0.2231
   22MOL   C14812370   5.369   5.942   5.085 -0.2976 -0.6214 -0.4571
   22MOL   O14912371   5.236   5.923   5.109  0.0758  0.1213 -0.4540
   22MOL   C15012372   5.375   6.088   5.042 -0.1151  0.0325  0.2123
   22MOL   O15112373   5.333   6.173   5.148  0.2098  0.0394 -0.2026
   22MOL   C15212374   5.355   6.311   5.108  0.6084  0.2579 -0.3532
   22MOL   C15312375   5.325   6.415   5.216 -0.4199  0.2111 -0.1735
   22MOL   C15412376   5.324   6.559   5.155 -0.1790  0.5034  0.5746
   22MOL   O15512377   5.458   6.601   5.123 -0.3373  0.8673  0.5783
   22MOL   C15612378   5.479   6.651   4.995 -0.1182  0.1079  0.1495
   22MOL   O15712379   5.465   6.546   4.900  0.2137  0.7839 -0.5107
   22MOL   C15812380   5.619   6.714   4.990  0.1544 -0.5586  0.4578
   22MOL   O15912381   5.606   6.853   4.983  0.2753  0.3378  0.4158
   22MOL   H16012382   5.543   5.845   5.000 -0.2105  0.2062 -1.2140
   22MOL   H16112383   5.422   5.738   5.021  0.9822  0.5864  0.8949
   22MOL   H16212384   5.422   5.935   5.180 -1.3117 -2.2566  0.0058
   22MOL   H16312385   5.201   6.001   5.150  0.5455 -0.5673  1.2730
   22MOL   H16412386   5.475   6.114   5.009 -0.0297  1.0673  1.2716
   22MOL   H16512387   5.323   6.110   4.948 -0.4733 -2.0212 -0.0899
   22MOL   H16612388   5.294   6.331   5.020  0.3384 -0.9485 -0.4598
   22MOL   H16712389   5.457   6.315   5.071  0.6459  1.2578 -0.1412
   22MOL   H16812390   5.400   6.404   5.295 -0.5107  1.3184  0.0759
   22MOL   H16912391   5.230   6.383   5.258 -0.6027 -0.1310 -0.8362
   22MOL   H17012392   5.251   6.568   5.075  1.5947 -1.5937 -1.3698
   22MOL   H17112393   5.295   6.622   5.239 -2.1127  1.9795 -1.1617
   22MOL   H17212394   5.405   6.725   4.965 -0.1133  1.0007  2.2179
   22MOL   H17312395   5.529   6.480   4.922 -1.3495 -0.1913  1.2601
   22MOL   H17412396   5.688   6.680   5.067 -0.7187 -1.4080  0.8756
   22MOL   H17512397   5.669   6.699   4.895  0.6580 -0.6320  0.7338
   22MOL   C17612398   5.618   6.918   5.107 -0.1582 -0.0527  0.5927
   22MOL   C17712399   5.637   7.068   5.089  0.4283  0.1437 -0.1778
   22MOL   O17812400   5.643   7.137   5.205  0.1467 -0.3220  0.2285
   22MOL   C17912401   5.512   7.132   5.017 -0.2349 -0.2481 -0.2220
   22MOL   O18012402   5.547   7.253   4.956 -0.0540  0.3416  0.1721
   22MOL   C18112403   5.620   7.258   4.826  0.6937  0.8861  0.0643
   22MOL   C18212404   5.724   7.364   4.844  0.7085  0.5294 -0.4535
   22MOL   C18312405   5.661   7.500   4.882 -0.6677 -0.0029  0.1934
   22MOL   O18412406   5.766   7.591   4.857 -0.7582 -0.2833 -0.3585
   22MOL   C18512407   5.755   0.033   4.894 -0.0131 -0.2685 -0.2093
   22MOL   O18612408   5.683   0.101   4.800  0.1562 -0.1450 -0.0564
   22MOL   C18712409   5.902   0.078   4.896  0.4572  0.0951 -0.0195
   22MOL   O18812410   5.918   0.196   4.971  0.7477  0.1291 -0.1993
   22MOL   H18912411   5.707   6.876   5.153  0.2185  0.0292 -0.0494
   22MOL   H19012412   5.527   6.912   5.168 -1.6737 -0.7933 -1.6613
   22MOL   H19112413   5.730   7.083   5.033  1.2798 -1.8904  0.6480
   22MOL   H19212414   5.682   7.221   5.188 -2.0092  0.3331 -1.7581
   22MOL   H19312415   5.477   7.062   4.941  3.5356  1.4362 -3.7268
   22MOL   H19412416   5.434   7.161   5.087  0.0206 -0.3323  0.1036
   22MOL   H19512417   5.545   7.283   4.751 -1.1325  0.7348  1.7958
   22MOL   H19612418   5.663   7.165   4.789  2.7156  1.1541  1.6690
   22MOL   H19712419   5.778   7.377   4.750 -0.0055 -0.7530 -1.0528
   22MOL   H19812420   5.798   7.326   4.914 -0.3980 -1.3443 -0.2629
   22MOL   H19912421   5.581   7.517   4.809 -0.3283  1.2962  0.1004
   22MOL   H20012422   5.616   7.507   4.981  0.0800 -0.8677  0.5972
   22MOL   H20112423   5.702   0.032   4.989 -0.7632 -0.4679 -0.6240
   22MOL   H20212424   5.745   0.133   4.736  0.3519  0.5016  0.4614
   22MOL   H20312425   5.963   7.690   4.931  1.1543  1.3418  1.7512
   22MOL   H20412426   5.943   0.085   4.795  0.2092 -2.8992 -0.3659
   22MOL   C20512427   5.910   0.171   5.110 -0.4717 -0.3230  0.4850
   22MOL   C20612428   6.022   0.261   5.173  0.3658  0.7440  0.0065
   22MOL   O20712429   5.998   0.393   5.130  0.2239 -0.1467 -0.1154
   22MOL   C20812430   6.043   0.239   5.318  1.0148 -0.2580 -0.4702
   22MOL   O20912431   6.058   0.097   5.358  0.2969 -0.1073 -0.2099
   22MOL   C21012432   6.061   0.070   5.496  0.3489 -0.4939  0.0791
   22MOL   C21112433   6.119   7.626   5.514 -0.2612 -0.1052  0.4709
   22MOL   C21212434   6.010   7.521   5.500  0.0770 -0.2338  0.4776
   22MOL   O21312435   5.973   7.517   5.364  0.2241  0.0109  0.2368
   22MOL   C21412436   5.934   7.388   5.317 -0.0995  0.2207 -0.7134
   22MOL   O21512437   6.045   7.322   5.269  0.5472  0.8030 -0.3166
   22MOL   C21612438   5.834   7.401   5.198  0.3762  0.2265 -0.9200
   22MOL   O21712439   5.705   7.415   5.243  0.2358 -0.1259  0.4946
   22MOL   H21812440   5.925   0.066   5.134  1.3140 -0.0642  0.6207
   22MOL   H21912441   5.809   0.201   5.138 -0.2395  1.5930 -0.5961
   22MOL   H22012442   6.113   0.224   5.125  0.9435  2.4124 -0.2055
   22MOL   H22112443   5.931   0.381   5.064  2.4990 -1.1206 -2.3465
   22MOL   H22212444   6.128   0.299   5.348 -0.2828  1.6660 -0.5862
   22MOL   H22312445   5.953   0.278   5.367  2.3223  0.5805  1.3211
   22MOL   H22412446   5.960   0.086   5.532 -0.5069 -3.7621 -0.7475
   22MOL   H22512447   6.133   0.148   5.523  0.8420 -0.3567 -1.5687
   22MOL   H22612448   6.165   7.618   5.612  0.3649 -0.8063  0.1215
   22MOL   H22712449   6.197   7.615   5.439  1.1305  0.0895  1.8681
   22MOL   H22812450   6.051   7.429   5.541 -0.8689  0.4333  2.9659
   22MOL   H22912451   5.921   7.543   5.559 -0.1093 -0.5532  0.3196
   22MOL   H23012452   5.896   7.323   5.395  1.9367  0.0722  0.1830
   22MOL   H23112453   6.058   7.360   5.183  1.0477  0.7113 -0.2810
   22MOL   H23212454   5.864   7.493   5.148  3.8114  0.3770  1.3010
   22MOL   H23312455   5.845   7.307   5.143  0.5524  0.5133 -1.3764
   22MOL   C23412456   5.671   7.553   5.273  0.3557 -0.1077  0.6013
   22MOL   C23512457   5.523   7.547   5.290  0.7840 -0.5760 -1.0084
   22MOL   O23612458   5.481   7.679   5.308  0.2433 -0.5157  0.8935
   22MOL   C23712459   5.481   7.470   5.412 -0.3834  0.5268 -0.1967
   22MOL   O23812460   5.342   7.439   5.402 -0.2720  0.1350 -0.3273
   22MOL   C23912461   5.285   7.395   5.529  0.0652 -0.2822  0.2264
   22MOL   C24012462   5.292   7.239   5.528 -0.7073  0.1407 -0.7231
   22MOL   C24112463   5.229   7.168   5.655  0.3705  0.8303 -0.5047
   22MOL   O24212464   5.261   7.027   5.656 -0.1976  0.2809 -0.0546
   22MOL   C24312465   5.264   6.968   5.781  0.7395 -0.1176  0.3103
   22MOL   O24412466   5.352   7.026   5.875  0.0274  0.2132  0.2777
   22MOL   C24512467   5.281   6.813   5.762  0.0940  0.7998  0.1306
   22MOL   O24612468   5.162   6.752   5.814 -0.0398 -0.2485  0.5365
   22MOL   H24712469   5.722   7.573   5.367  2.2723 -0.7870 -0.2694
   22MOL   H24812470   5.704   7.627   5.199 -0.5912  0.6881  0.9613
   22MOL   H24912471   5.480   7.506   5.198 -0.1899  3.6834 -2.5554
   22MOL   H25012472   5.390   7.666   5.329  0.1194 -0.2333  0.5499
   22MOL   H25112473   5.533   7.374   5.416 -3.3689 -1.1031  1.5529
   22MOL   H25212474   5.510   7.522   5.503  1.1611  0.2901 -0.5360
   22MOL   H25312475   5.181   7.427   5.534  0.2317  0.3992 -0.4734
   22MOL   H25412476   5.337   7.432   5.617 -1.3477  3.7604 -0.5077
   22MOL   H25512477   5.397   7.210   5.516 -0.3322  1.0783  0.2080
   22MOL   H25612478   5.232   7.205   5.444  0.2488 -1.2326 -0.8870
   22MOL   H25712479   5.256   7.225   5.744 -0.7141 -0.7284  0.8724
   22MOL   H25812480   5.122   7.178   5.638  0.1470  1.3489  1.1276
   22MOL   H25912481   5.163   6.992   5.813 -0.2184 -2.7077 -0.6058
   22MOL   H26012482   5.304   7.027   5.956 -1.5224  0.7074 -0.6383
   22MOL   H26112483   5.306   6.800   5.657  0.4391  0.6483  0.2330
   22MOL   H26212484   5.371   6.795   5.820  2.2112  2.0688 -2.6655
   22MOL   C26312485   5.190   6.610   5.812  0.5556  0.5817  0.2611
   22MOL   C26412486   5.189   6.543   5.670  0.3730  0.1300  0.2419
   22MOL   O26512487   5.321   6.519   5.620 -0.0010 -0.0068 -0.2748
   22MOL   C26612488   5.129   6.404   5.685 -0.4928  1.0605 -0.3070
   22MOL   O26712489   5.152   6.339   5.558 -0.0403  0.6591  0.1590
   22MOL   C26812490   5.065   6.230   5.541 -0.0283  0.2193 -0.4064
   22MOL   C26912491   5.094   6.171   5.412  0.8951  0.5614  0.6979
   22MOL   C27012492   4.980   6.085   5.361  0.6454 -0.2721  0.0798
   22MOL   O27112493   5.013   6.057   5.223  0.4848  0.1302 -0.1395
   22MOL   C27212494   4.905   6.008   5.138  0.1726 -0.3184  0.0686
   22MOL   O27312495   4.941   5.994   5.004  0.2813 -0.4233  0.6357
   22MOL   C27412496   4.860   5.871   5.188 -0.1643 -0.0630 -0.1524
   22MOL   O27512497   4.759   5.894   5.280 -0.0522 -0.3065  0.4601
   22MOL   H27612498   5.105   6.577   5.871 -0.0184  0.3946 -0.6530
   22MOL   H27712499   5.273   6.580   5.875  1.1737  1.2343 -0.2203
   22MOL   H27812500   5.134   6.607   5.602  1.2786  2.8852  2.0033
   22MOL   H27912501   5.313   6.439   5.572  0.6829 -1.1033  1.3968
   22MOL   H28012502   5.182   6.353   5.765 -1.1290 -1.2381 -1.2877
   22MOL   H28112503   5.021   6.406   5.704 -0.4134 -0.7136  0.4612
   22MOL   H28212504   4.964   6.271   5.543 -0.5550 -1.0988  0.8825
   22MOL   H28312505   5.072   6.166   5.629 -1.6792  0.4822 -0.0730
   22MOL   H28412506   5.192   6.127   5.398  0.0865 -0.8260 -0.7614
   22MOL   H28512507   5.107   6.255   5.344  1.1284 -0.6828 -0.8239
   22MOL   H28612508   4.970   5.993   5.419  1.2189 -1.6162 -1.8671
   22MOL   H28712509   4.887   6.141   5.363  0.4911 -0.5334  0.2670
   22MOL   H28812510   4.820   6.076   5.149  0.7260  0.2042  1.1283
   22MOL   H28912511   5.026   5.952   5.001  0.3879 -0.1276 -1.4121
   22MOL   H29012512   4.823   5.805   5.109  1.4057  0.8365 -1.6714
   22MOL   H29112513   4.941   5.818   5.239  0.3595  1.5093  0.6568
   22MOL   C29212514   4.706   5.770   5.319  0.1073 -0.2805 -0.3114
   22MOL   C29312515   4.592   5.790   5.422  0.0441  0.1222  0.1124
   22MOL   O29412516   4.488   5.831   5.335  0.1112 -0.0851  0.8285
   22MOL   C29512517   4.557   5.671   5.514 -0.4841 -0.7391  0.5540
   22MOL   O29612518   4.507   5.712   5.638  0.1469  0.5176  0.7120
   22MOL   C29712519   4.507   5.600   5.734 -0.8000 -0.1521  0.1863
   22MOL   C29812520   4.413   5.620   5.854 -0.6255  0.1926 -0.0652
   22MOL   C29912521   4.273   5.566   5.833  0.1799  0.3010 -0.1143
   22MOL   O30012522   4.197   5.585   5.954  0.0322 -0.8544  0.7178
   22MOL   C30112523   4.061   5.559   5.952 -0.3228 -0.0677  0.5422
   22MOL   O30212524   4.009   5.503   6.072  0.2580 -0.0670 -0.5575
   22MOL   C30312525   3.972   5.675   5.916 -0.1318  0.5131  0.1317
   22MOL   O30412526   3.994   5.704   5.778 -0.2486 -0.0791 -0.4925
   22MOL   H30512527   4.677   5.700   5.240  0.7112 -0.5023 -0.3400
   22MOL   H30612528   4.787   5.717   5.370 -0.7045 -0.7046  0.5549
   22MOL   H30712529   4.609   5.869   5.494 -1.3106 -0.7578  1.4288
   22MOL   H30812530   4.536   5.889   5.278  1.9402 -0.2679  2.1425
   22MOL   H30912531   4.499   5.593   5.465  1.4612 -1.5145 -0.5885
   22MOL   H31012532   4.651   5.618   5.532 -0.4462 -1.0197 -0.4734
   22MOL   H31112533   4.608   5.583   5.771  0.5284  0.9273 -2.7501
   22MOL   H31212534   4.482   5.502   5.694  2.4922 -1.4903  1.2019
   22MOL   H31312535   4.417   5.725   5.885 -0.6526 -0.6068  2.7649
   22MOL   H31412536   4.462   5.571   5.938 -2.6944  0.3708  1.2882
   22MOL   H31512537   4.228   5.619   5.749  2.3286 -1.7743 -2.6640
   22MOL   H31612538   4.283   5.463   5.799 -1.2810 -0.5783  2.0281
   22MOL   H31712539   4.046   5.480   5.879 -1.0228  0.2059  0.3912
   22MOL   H31812540   4.034   5.567   6.138 -0.8420  0.5212 -0.6919
   22MOL   H31912541   4.008   5.768   5.961  3.4221 -0.1793 -1.1084
   22MOL   H32012542   3.867   5.655   5.939 -0.8819  0.2936 -3.1749
   22MOL   C32112543   3.911   5.799   5.723  0.1323 -0.7771 -0.3399
   22MOL   C32212544   3.959   5.825   5.578 -0.2695  0.1337  0.1184
   22MOL   O32312545   3.862   5.898   5.503 -0.4716 -0.3571 -0.0629
   22MOL   C32412546   4.100   5.886   5.544 -0.0996  0.3781  0.2568
   22MOL   O32512547   4.116   6.004   5.618  0.8217 -0.0767  0.4632
   22MOL   C32612548   4.209   5.980   5.719  0.1674 -0.3708 -0.6401
   22MOL   C32712549   4.256   6.112   5.787  0.8869 -0.2094  0.3727
   22MOL   C32812550   4.376   6.074   5.876 -0.4081 -0.2495 -0.0283
   22MOL   O32912551   4.417   6.190   5.947  0.3351  0.8069 -0.4728
   22MOL   C33012552   4.512   6.161   6.046  0.2664  0.0093  0.1032
   22MOL   O33112553   4.631   6.116   6.002  0.2408 -0.3620  0.4927
   22MOL   C33212554   4.532   6.294   6.120 -0.2836  0.1867 -0.6479
   22MOL   O33312555   4.433   6.305   6.215 -0.4967  0.2376 -0.4031
   22MOL   H33412556   3.913   5.893   5.776  0.7928  1.2588 -3.8093
   22MOL   H33512557   3.805   5.772   5.721 -0.4101  1.1652  0.6422
   22MOL   H33612558   3.965   5.726   5.533  1.1192  0.3589 -0.2020
   22MOL   H33712559   3.840   5.973   5.555  1.9637  1.1183 -1.0578
   22MOL   H33812560   4.118   5.890   5.436  0.8490  0.3334  0.4047
   22MOL   H33912561   4.163   5.802   5.573  2.0170  2.5150  2.0996
   22MOL   H34012562   4.297   5.933   5.673  0.0336 -0.7641 -0.4892
   22MOL   H34112563   4.170   5.909   5.792 -1.5356  2.2676  1.1142
   22MOL   H34212564   4.278   6.182   5.706 -1.8352  1.1165  0.7359
   22MOL   H34312565   4.186   6.157   5.856  0.6467  1.6054 -1.0027
   22MOL   H34412566   4.350   6.000   5.952  0.9934  0.2841  1.0009
   22MOL   H34512567   4.460   6.039   5.816 -0.3690 -1.9747  0.9878
   22MOL   H34612568   4.475   6.080   6.109  2.0834 -0.6741  0.3319
   22MOL   H34712569   4.671   6.066   6.072  0.8214 -0.5237  0.0460
   22MOL   H34812570   4.623   6.274   6.176  0.3809  2.5349 -0.8075
   22MOL   H34912571   4.535   6.377   6.049 -1.1936 -0.8146 -1.8858
   22MOL   C35012572   4.452   6.409   6.310 -0.2762  0.1223  0.3427
   22MOL   C35112573   4.309   6.447   6.366  0.1808 -0.0827  0.5302
   22MOL   O35212574   4.286   6.362   6.473  0.2268 -0.0212 -0.5026
   22MOL   C35312575   4.289   6.593   6.411 -0.4516 -0.2339 -0.3934
   22MOL   O35412576   4.149   6.614   6.432  0.1081  0.6113  0.2481
   22MOL   C35512577   4.094   6.734   6.475 -0.2428  0.1171 -0.0569
   22MOL   C35612578   4.127   6.775   6.621  0.3251  0.3388 -0.2578
   22MOL   C35712579   4.059   6.906   6.664 -0.2218  0.6266 -0.8738
   22MOL   O35812580   3.916   6.889   6.659  0.1598 -0.3006 -0.7452
   22MOL   C35912581   3.869   6.850   6.786 -0.2153  0.1112 -0.0552
   22MOL   O36012582   3.841   6.964   6.867 -0.1928  0.0142  0.5353
   22MOL   C36112583   3.736   6.774   6.785  0.0749 -0.3457  1.3375
   22MOL   O36212584   3.638   6.872   6.744  0.5745  0.1040 -0.0657
   22MOL   H36312585   4.497   6.496   6.261  0.6068  0.0189  0.9498
   22MOL   H36412586   4.520   6.387   6.392 -1.6749  2.9911  2.3811
   22MOL   H36512587   4.229   6.432   6.293  0.8587 -0.8137 -0.0820
   22MOL   H36612588   4.358   6.354   6.534 -1.7883 -1.4250  1.8202
   22MOL   H36712589   4.350   6.625   6.495  1.2583 -1.7752 -1.0205
   22MOL   H36812590   4.306   6.650   6.320  3.6950 -1.3205 -0.4063
   22MOL   H36912591   3.987   6.721   6.456  0.1012 -2.3483 -0.5555
   22MOL   H37012592   4.135   6.812   6.412  0.4897  1.8019  2.4394
   22MOL   H37112593   4.235   6.790   6.620  0.2035  1.3280  0.3463
   22MOL   H37212594   4.107   6.694   6.690  2.1849 -1.0366 -1.2723
   22MOL   H37312595   4.101   6.943   6.757  1.0552 -0.9660 -0.8006
   22MOL   H37412596   4.085   6.973   6.582  1.6356 -1.5107 -2.0865
   22MOL   H37512597   3.942   6.788   6.838  0.3225  1.1748  0.4791
   22MOL   H37612598   3.764   7.011   6.839  0.4820  1.4050  0.9215
   22MOL   H37712599   3.746   6.695   6.709 -1.7058 -0.9524  1.6931
   22MOL   H37812600   3.720   6.722   6.879  2.0743  0.3744  2.1006
   22MOL   C37912601   3.504   6.826   6.721 -0.3885 -0.7349 -0.0554
   22MOL   C38012602   3.505   6.732   6.601 -0.5040  0.1580 -1.1105
   22MOL   O38112603   3.503   6.605   6.646 -0.3886 -0.1705  0.7909
   22MOL   C38212604   3.387   6.764   6.502 -0.2148  0.1149 -0.1739
   22MOL   O38312605   3.413   6.687   6.386  0.0107 -0.0249 -0.0845
   22MOL   C38412606   3.410   6.774   6.270 -1.0772 -0.2701 -0.9528
   22MOL   C38512607   3.558   6.839   6.266 -0.3484 -0.2516 -0.5077
   22MOL   C38612608   3.559   6.967   6.178 -0.6302  1.7886 -0.4663
   22MOL   O38712609   3.472   7.057   6.243  0.8665 -0.1478  0.2302
   22MOL   C38812610   3.463   7.175   6.171  0.1204  0.0560  0.5656
   22MOL   O38912611   3.401   7.158   6.041 -0.0496 -0.4710  0.5900
   22MOL   C39012612   3.381   7.285   6.255  0.1167 -0.4251  0.3804
   22MOL   O39112613   3.412   7.415   6.216 -0.3901 -0.4563  0.2093
   22MOL   H39212614   3.443   6.916   6.716  2.3884  1.4656  3.0614
   22MOL   H39312615   3.466   6.782   6.813 -1.8198 -1.2010 -0.8626
   22MOL   H39412616   3.597   6.744   6.543  1.4564  0.2764  1.9606
   22MOL   H39512617   3.547   6.563   6.574 -0.4546  0.6031  0.3018
   22MOL   H39612618   3.290   6.742   6.547  0.0474 -2.1320 -0.6450
   22MOL   H39712619   3.379   6.872   6.490 -0.8237  0.3248  1.9371
   22MOL   H39812620   3.322   6.837   6.261 -0.5009  0.7261  0.2991
   22MOL   H39912621   3.402   6.718   6.176 -0.5974  0.2554 -1.3076
   22MOL   H40012622   3.639   6.778   6.227  0.2986  1.3116 -1.6448
   22MOL   H40112623   3.585   6.873   6.366 -3.2611  0.2224  0.1696
   22MOL   H40212624   3.656   7.015   6.179  0.2507  0.0087  0.6804
   22MOL   H40312625   3.536   6.950   6.072 -0.0904 -0.6767 -0.2099
   22MOL   H40412626   3.560   7.219   6.149 -0.8085  1.3436 -1.0598
   22MOL   H40512627   3.393   7.245   6.005 -2.4922 -0.6876  0.5515
   22MOL   H40612628   3.276   7.255   6.246 -0.0479  0.5386 -1.2350
   22MOL   H40712629   3.421   7.271   6.355  0.6156  0.0581  0.2508
   22MOL   C40812630   3.451   7.505   6.322 -0.0362  0.0317  0.1564
   22MOL   C40912631   3.495   7.633   6.254  0.0166  0.7038  0.4921
   22MOL   O41012632   3.632   7.624   6.222 -0.1553  0.4608 -0.6970
   22MOL   C41112633   3.488   0.054   6.348  0.1785  0.1146  1.1732
   22MOL   O41212634   3.541   0.008   6.473 -0.4586  0.4107 -0.6611
   22MOL   C41312635   3.533   0.102   6.581  0.0410 -0.6487  0.4096
   22MOL   C41412636   3.593   0.036   6.703 -0.0031 -0.6143 -0.0521
   22MOL   C41512637   3.742   0.071   6.700 -0.2951  0.7192 -0.0478
   22MOL   O41612638   3.799   0.003   6.808 -0.2954 -0.0258  0.2862
   22MOL   C41712639   3.944   7.684   6.799  0.2697 -0.4269  0.0009
   22MOL   O41812640   3.981   7.589   6.698 -0.4216  0.1489 -0.6490
   22MOL   C41912641   4.005   7.646   6.935  0.6187  0.2930 -0.3775
   22MOL   O42012642   4.036   0.081   6.996  0.3153 -0.3675 -0.3774
   22MOL   H42112643   3.530   7.464   6.385  0.7591 -1.1217 -1.5347
   22MOL   H42212644   3.361   7.520   6.381  0.0827  2.1399 -0.1778
   22MOL   H42312645   3.433   7.658   6.167 -0.4159  1.9234  1.1389
   22MOL   H42412646   3.671   7.613   6.307  0.0233 -0.4670 -0.8931
   22MOL   H42512647   3.539   0.146   6.317 -2.7311  0.6019 -2.4662
   22MOL   H42612648   3.383   0.080   6.358  0.3168  1.4169 -0.5098
   22MOL   H42712649   3.572   0.200   6.552 -0.7307 -0.4457  0.0386
   22MOL   H42812650   3.429   0.124   6.606 -0.0241 -0.5421  0.0564
   22MOL   H42912651   3.584   7.624   6.684  0.1534 -0.5068 -0.7546
   22MOL   H43012652   3.525   0.063   6.783  1.8874  0.5935  1.1910
   22MOL   H43112653   3.796   0.062   6.606 -0.5240  0.2872 -0.1435
   22MOL   H43212654   3.758   0.177   6.716 -0.7309  0.4660  2.1927
   22MOL   H43312655   3.980   0.084   6.760 -1.2324 -0.0668 -0.5534
   22MOL   H43412656   3.948   7.504   6.723 -1.0155  0.1368 -1.4571
   22MOL   H43512657   3.938   7.580   6.991  2.6404 -0.6889  0.9444
   22MOL   H43612658   4.101   7.597   6.921  1.9187  2.7853 -0.4816
   22MOL   C43712659   3.953   0.129   7.104  0.1509 -0.1738  0.0716
   22MOL   C43812660   3.996   0.267   7.147 -0.4051  0.4305  0.3932
   22MOL   O43912661   3.918   0.352   7.062 -0.2671  0.0263  0.5907
   22MOL   C44012662   4.145   0.281   7.115 -0.5076  0.8054  0.1306
   22MOL   O44112663   4.196   0.393   7.187 -0.0194  0.0617 -0.1996
   22MOL   C44212664   4.339   0.395   7.184 -0.0812 -0.5973  0.7304
   22MOL   C44312665   4.390   0.530   7.235  0.1628  0.0089 -0.5828
   22MOL   C44412666   4.537   0.556   7.227  0.0828 -0.1669  1.1841
   22MOL   O44512667   4.563   0.671   7.306  0.2549  0.4578  0.4475
   22MOL   C44612668   4.595   0.793   7.247 -0.3936  0.1513  0.0291
   22MOL   O44712669   4.720   0.793   7.187 -0.2448  0.0639 -0.6346
   22MOL   C44812670   4.590   0.906   7.346  0.2953 -0.3505 -1.2700
   22MOL   O44912671   4.696   0.880   7.436  0.5513 -0.1538  0.3758
   22MOL   H45012672   3.845   0.127   7.085  0.5286  1.7427 -2.5823
   22MOL   H45112673   3.960   0.065   7.192  3.0552  0.7162  0.5346
   22MOL   H45212674   3.952   0.275   7.247 -1.7035  0.6914 -0.1814
   22MOL   H45312675   3.931   0.342   6.969 -1.3261  0.6819  0.3642
   22MOL   H45412676   4.193   0.191   7.152  0.2973  1.3072  0.3016
   22MOL   H45512677   4.178   0.286   7.011  0.7086  1.7471  0.5578
   22MOL   H45612678   4.379   0.386   7.083 -1.5910 -1.0361  0.1448
   22MOL   H45712679   4.366   0.313   7.250 -0.3414 -0.9775  0.3641
   22MOL   H45812680   4.357   0.551   7.337 -0.2063  3.5135 -1.3692
   22MOL   H45912681   4.342   0.608   7.175  1.1180  0.7360 -0.4120
   22MOL   H46012682   4.587   0.465   7.261  1.7980  0.5062  0.5241
   22MOL   H46112683   4.576   0.570   7.127 -0.5005  4.5415  1.4805
   22MOL   H46212684   4.530   0.801   7.160  0.2979 -0.6655 -0.5692
   22MOL   H46312685   4.774   0.840   7.249  1.8471 -0.6851 -1.8414
   22MOL   H46412686   4.604   0.998   7.288 -2.6571  1.4962  0.7815
   22MOL   H46512687   4.492   0.924   7.391 -0.3191  0.6485 -2.9528
   22MOL   C46612688   4.742   0.985   7.517 -0.7810 -1.0268 -0.2852
   22MOL   C46712689   4.866   0.937   7.600  0.3271 -0.1320  0.2092
   22MOL   O46812690   4.888   1.032   0.010  0.3703 -0.6559 -0.1050
   22MOL   C46912691   4.839   0.809   7.673  0.2584  0.8324  0.1190
   22MOL   O47012692   4.971   0.776   0.035  0.2448  0.8904  0.0891
   22MOL   C47112693   4.981   0.638   0.054  0.0598 -0.6454  0.9835
   22MOL   C47212694   5.109   0.595   0.130  0.4980 -0.1949  0.2948
   22MOL   C47312695   5.117   0.638   0.278  0.2592  0.0767  0.4176
   22MOL   O47412696   5.223   0.566   0.349  0.5190  0.4888 -0.1569
   22MOL   C47512697   5.268   0.616   0.473  0.2897 -0.1225  1.1218
   22MOL   O47612698   5.364   0.704   0.452  0.5590 -0.7804 -0.0849
   22MOL   C47712699   5.332   0.492   0.541  0.3276 -0.3046  0.2853
   22MOL   O47812700   5.418   0.427   0.449  0.2264  0.1847 -0.0866
   22MOL   H47912701   4.660   1.013   7.584  1.0428  1.7073  0.8808
   22MOL   H48012702   4.761   1.077   7.461 -3.4704  1.0327  2.0312
   22MOL   H48112703   4.954   0.927   7.536 -0.4929 -0.4099 -0.8959
   22MOL   H48212704   4.972   1.004   0.042  1.2886 -0.5215 -2.3503
   22MOL   H48312705   4.753   0.821   0.044 -0.2334 -0.0546 -0.3498
   22MOL   H48412706   4.819   0.730   7.600 -0.7992  0.7409  0.4928
   22MOL   H48512707   4.979   0.600   7.646  1.2938  1.0565  0.2971
   22MOL   H48612708   4.891   0.613   0.110 -1.6839  0.9394 -1.0068
   22MOL   H48712709   5.200   0.631   0.082  0.7238 -0.0806  0.8127
   22MOL   H48812710   5.114   0.486   0.119 -3.7434 -0.4030 -0.6584
   22MOL   H48912711   5.136   0.744   0.289 -1.0608  0.4586 -0.9222
   22MOL   H49012712   5.023   0.609   0.325  1.6146 -0.4227  2.9388
   22MOL   H49112713   5.189   0.667   0.527 -1.5238 -0.2668 -1.2789
   22MOL   H49212714   5.433   0.648   0.420  1.3690 -0.5168  1.1801
   22MOL   H49312715   5.396   0.530   0.621  1.4492 -0.8399 -0.3488
   22MOL   H49412716   5.258   0.422   0.581 -2.2971  1.3669 -1.4749
   22MOL   C49512717   5.458   0.300   0.497 -0.1252 -0.5596  0.1358
   22MOL   C49612718   5.576   0.270   0.409  0.6135  0.3427 -0.1666
   22MOL   O49712719   5.681   0.365   0.431 -0.5746  0.0039  0.5938
   22MOL   C49812720   5.638   0.128   0.419  0.6134  0.7437 -0.9228
   22MOL   O49912721   5.635   0.085   0.562 -0.6937 -0.3810 -0.0165
   22MOL   C50012722   5.682   7.642   0.584  0.0384 -0.7321 -0.7163
   22MOL   C50112723   5.569   7.535   0.600 -0.0941  0.1018 -0.4641
   22MOL   C50212724   5.609   7.392   0.646 -0.2854  0.1657 -0.2420
   22MOL   O50312725   5.687   7.329   0.545 -0.1445 -0.2082  1.2672
   22MOL   C50412726   5.727   7.199   0.573 -0.1097 -0.2071  0.5236
   22MOL   O50512727   5.810   7.194   0.689 -1.1450 -0.0422 -0.4286
   22MOL   C50612728   5.814   7.152   0.456 -0.0500 -0.3392 -0.2137
   22MOL   O50712729   5.754   7.034   0.400 -0.3945  0.4717 -0.3408
   22MOL   H50812730   5.374   0.232   0.488 -0.6111 -0.2230  1.9330
   22MOL   H50912731   5.480   0.304   0.604 -1.1595 -0.6040  0.3476
   22MOL   H51012732   5.536   0.273   0.308 -4.6028 -0.4562  1.7292
   22MOL   H51112733   5.640   0.449   0.414  0.6932  0.3214 -1.0386
   22MOL   H51212734   5.589   0.060   0.350 -0.9567  1.0940 -0.1711
   22MOL   H51312735   5.743   0.125   0.390  0.5760 -2.3621 -0.9330
   22MOL   H51412736   5.757   7.625   0.662 -2.0400  1.2935  1.8010
   22MOL   H51512737   5.748   7.615   0.501  1.9835  0.2949  0.4507
   22MOL   H51612738   5.503   7.536   0.513  1.6135  1.8708 -1.7610
   22MOL   H51712739   5.498   7.559   0.680  0.3548  0.8727 -0.2984
   22MOL   H51812740   5.655   7.384   0.745  0.6808 -1.9989 -0.8344
   22MOL   H51912741   5.515   7.339   0.664 -0.7211  1.1022  0.3079
   22MOL   H52012742   5.641   7.135   0.590 -0.2396  0.1093  1.0598
   22MOL   H52112743   5.755   7.197   0.765 -2.5059  0.8568 -1.4326
   22MOL   H52212744   5.832   7.233   0.385 -1.5026  1.5141  1.5031
   22MOL   H52312745   5.913   7.123   0.491 -0.1420  0.1287  0.4410
   22MOL   C52412746   5.803   7.014   0.270  0.7302  0.0740 -0.6018
   22MOL   C52512747   5.711   6.909   0.206 -0.6071 -0.2451 -0.6794
   22MOL   O52612748   5.766   6.885   0.076  0.2617 -0.0596 -0.2608
   22MOL   C52712749   5.564   6.954   0.188 -0.2936 -0.4066 -0.4578
   22MOL   O52812750   5.474   6.845   0.154  0.3040 -0.4305 -0.5954
   22MOL   C52912751   5.352   6.886   0.098 -0.0129  0.3414 -0.0317
   22MOL   C53012752   5.274   6.772   0.036 -0.2113 -0.1089  0.5133
   22MOL   C53112753   5.145   6.824   7.676  0.1316  1.4621 -0.1433
   22MOL   O53212754   5.158   6.943   7.602  0.1223  0.1233 -0.1328
   22MOL   C53312755   5.041   6.996   7.555  0.9510 -0.1842 -0.2422
   22MOL   O53412756   4.991   7.084   7.651 -0.4274 -0.3115  0.2139
   22MOL   C53512757   5.055   7.057   7.419 -0.2580  0.0380 -0.3912
   22MOL   O53612758   4.931   7.062   7.344  0.5908  0.4036 -0.2078
   22MOL   H53712759   5.903   6.972   0.258  0.5574 -0.3791 -0.4697
   22MOL   H53812760   5.800   7.103   0.207 -0.7277  0.2379 -0.3129
   22MOL   H53912761   5.702   6.816   0.262  0.2847 -0.1647 -0.3924
   22MOL   H54012762   5.767   6.793   0.053 -1.8310 -0.4441  1.0259
   22MOL   H54112763   5.523   7.014   0.270  2.3397 -0.2184  0.7471
   22MOL   H54212764   5.558   7.023   0.104 -1.3880 -0.1488 -0.1831
   22MOL   H54312765   5.381   6.956   0.020  0.1020 -1.6105 -1.7945
   22MOL   H54412766   5.290   6.940   0.169  0.8564 -0.4352  1.3237
   22MOL   H54512767   5.267   6.690   0.108  0.1648 -0.9969 -0.4609
   22MOL   H54612768   5.325   6.730   7.644  0.9763 -2.0866  2.1206
   22MOL   H54712769   5.117   6.744   7.608 -1.3635  1.6696  0.1979
   22MOL   H54812770   5.070   6.838   0.060  0.5943  0.0847  0.5680
   22MOL   H54912771   4.971   6.914   7.541 -0.4623  1.1763 -1.3075
   22MOL   H55012772   5.038   7.166   7.642  0.4910 -1.0301 -1.7734
   22MOL   H55112773   5.111   7.150   7.423 -0.0729 -0.0569 -0.7294
   22MOL   H55212774   5.121   6.992   7.360  0.2094  0.1886 -0.0349
   22MOL   C55312775   4.847   7.173   7.379  0.6368 -0.5739  0.8282
   22MOL   C55412776   4.782   7.228   7.254 -0.0537 -0.3819 -0.1220
   22MOL   O55512777   4.723   7.347   7.293  1.0276 -0.0243  0.0308
   22MOL   C55612778   4.677   7.131   7.193  0.3102  0.8207  0.1545
   22MOL   O55712779   4.657   7.148   7.054  0.6288 -0.0178  0.2968
   22MOL   C55812780   4.595   7.271   7.008  0.4137  0.0956  0.2610
   22MOL   C55912781   4.594   7.271   6.851  0.1919  0.2641 -0.2418
   22MOL   C56012782   4.534   7.405   6.797 -0.3421  0.4028  0.1077
   22MOL   O56112783   4.508   7.409   6.658  0.0992 -0.1140  0.2126
   22MOL   C56212784   4.621   7.412   6.575  0.3465 -0.2636 -0.6859
   22MOL   O56312785   4.692   7.288   6.561  0.4415 -0.2909 -0.0359
   22MOL   C56412786   4.581   7.455   6.435 -0.0479 -0.6852  0.3600
   22MOL   O56512787   4.690   7.449   6.342 -0.3772  0.2775 -0.0092
   22MOL   H56612788   4.908   7.248   7.430 -0.0571 -0.9729  2.2591
   22MOL   H56712789   4.764   7.141   7.442 -0.2896 -3.9279 -1.9912
   22MOL   H56812790   4.860   7.249   7.180  1.8144  1.3244  2.2435
   22MOL   H56912791   4.629   7.338   7.302  1.0117 -1.5454 -1.4852
   22MOL   H57012792   4.699   7.025   7.205 -0.0232  0.7448  0.0941
   22MOL   H57112793   4.587   7.140   7.254  0.0190 -1.5538  0.1430
   22MOL   H57212794   4.496   7.269   7.052 -0.4225  0.1990 -1.5719
   22MOL   H57312795   4.647   7.360   7.042 -2.0300  1.2888  0.9038
   22MOL   H57412796   4.539   7.192   6.800 -0.0665 -0.9443  1.8786
   22MOL   H57512797   4.700   7.271   6.825  0.1512 -3.3891 -0.6296
   22MOL   H57612798   4.447   7.422   6.860 -0.9208 -2.8818  0.2823
   22MOL   H57712799   4.596   7.492   6.820  2.5268 -1.4976 -0.1050
   22MOL   H57812800   4.696   7.481   6.616 -0.3320  0.2936 -0.3786
   22MOL   H57912801   4.642   7.241   6.496  0.4735  1.2774 -1.2133
   22MOL   H58012802   4.498   7.395   6.398  0.6125 -1.7457  0.5843
   22MOL   H58112803   4.545   7.557   6.449  2.2241 -0.0069  1.6687
   22MOL   H58212804   4.732   7.365   6.354 -0.7622  0.0459 -0.2733
   23MOL     C112805   3.875   0.976   4.630 -0.0296 -0.7283  0.3660
   23MOL     C212806   3.993   0.901   4.686  0.9572  0.0274  0.7167
   23MOL     O312807   4.096   0.989   4.711 -0.6573  0.1849 -0.3046
   23MOL     C412808   3.959   0.842   4.828  0.2001 -0.3006 -0.1206
   23MOL     O512809   3.881   0.933   4.900 -0.4786 -0.3462  0.0986
   23MOL     C612810   3.860   0.897   5.037 -0.2195 -0.1509 -0.3711
   23MOL     C712811   3.706   0.895   5.066 -0.7804  0.1498 -0.6475
   23MOL     C812812   3.679   0.856   5.218 -0.2737  0.5506 -0.5645
   23MOL     O912813   3.684   0.712   5.244  0.1343 -0.1828 -0.2258
   23MOL    C1012814   3.670   0.687   5.374 -0.1757  0.0004  0.2783
   23MOL    O1112815   3.785   0.716   5.448 -0.4790  0.0333 -0.3587
   23MOL    C1212816   3.620   0.538   5.389 -0.0413 -0.5849  0.7633
   23MOL    O1312817   3.492   0.522   5.325 -0.2250 -0.4693 -0.1285
   23MOL    H1412818   3.779   0.925   4.636 -1.5550  1.9834 -0.1952
   23MOL    H1512819   3.881   1.015   4.528  1.0461 -0.2841  0.5912
   23MOL    H1612820   4.021   0.814   4.627  0.8955  0.0644  0.6323
   23MOL    H1712821   4.161   0.934   4.751 -0.2936 -0.1852 -1.3851
   23MOL    H1812822   3.903   0.751   4.806 -0.9225 -0.0175  1.4632
   23MOL    H1912823   4.050   0.810   4.879 -0.1859 -1.3198 -0.0669
   23MOL    H2012824   3.921   0.962   5.100 -1.8549  0.6812  0.4081
   23MOL    H2112825   3.891   0.795   5.059  1.4368  0.6704  1.2337
   23MOL    H2212826   3.661   0.813   5.011 -1.8529 -2.4443  3.8950
   23MOL    H2312827   3.659   0.983   5.022  2.8536  1.6477 -1.7449
   23MOL    H2412828   3.750   0.913   5.278  0.7101 -0.3602 -0.8427
   23MOL    H2512829   3.582   0.898   5.246  0.4143  2.4913 -1.0166
   23MOL    H2612830   3.586   0.740   5.419  0.2810 -0.1985  1.3772
   23MOL    H2712831   3.862   0.692   5.398 -0.4215  4.0011 -2.3543
   23MOL    H2812832   3.695   0.470   5.348 -0.8803 -1.7564  1.1679
   23MOL    H2912833   3.618   0.503   5.492  1.6078 -3.1225 -0.0006
   23MOL    H3012834   3.865   1.067   4.689  2.5478 -0.1933  0.0517
   23MOL    C3112835   3.438   0.393   5.340  0.7785 -0.2896 -0.2768
   23MOL    C3212836   3.292   0.391   5.297 -0.0114 -0.2595 -0.0575
   23MOL    O3312837   3.227   0.297   5.380 -0.2452  0.6394  0.6565
   23MOL    C3412838   3.276   0.361   5.148 -0.3862  1.0719 -0.6497
   23MOL    O3512839   3.147   0.406   5.108 -0.2607  0.5688  0.3270
   23MOL    C3612840   3.133   0.433   4.967  0.0737  0.0830 -0.3400
   23MOL    C3712841   3.015   0.526   4.936 -0.3893 -0.3788 -0.3218
   23MOL    C3812842   2.869   0.472   4.958 -0.1903  0.2787  1.5842
   23MOL    O3912843   2.786   0.587   4.975  0.1516  0.2174  0.1319
   23MOL    C4012844   2.654   0.548   4.986 -0.1486 -0.7889 -0.2800
   23MOL    O4112845   2.581   0.571   4.869 -0.7204 -0.1391 -0.3920
   23MOL    C4212846   2.584   0.645   5.093 -0.1368  0.1027  0.0252
   23MOL    O4312847   2.630   0.617   5.228 -0.2862  0.4661  0.2888
   23MOL    H4412848   3.492   0.318   5.282 -0.0884 -0.7979 -0.4302
   23MOL    H4512849   3.452   0.376   5.446 -0.5841 -2.6531 -0.4604
   23MOL    H4612850   3.253   0.489   5.323  0.5851 -0.0071 -0.1079
   23MOL    H4712851   3.167   0.240   5.334  0.3928  0.9823 -0.6121
   23MOL    H4812852   3.350   0.415   5.089  1.0612  1.9507  1.8843
   23MOL    H4912853   3.280   0.255   5.123  0.2253  0.6547  1.1138
   23MOL    H5012854   3.114   0.342   4.910  0.4650  0.8871 -1.7838
   23MOL    H5112855   3.227   0.477   4.932 -1.0713  2.2369 -0.8426
   23MOL    H5212856   3.035   0.567   4.837 -0.0314  1.5206  0.5244
   23MOL    H5312857   3.035   0.615   4.995  2.2012 -1.2631  0.2064
   23MOL    H5412858   2.829   0.402   4.884 -0.5075 -0.0435  2.0547
   23MOL    H5512859   2.865   0.412   5.049  0.3321  0.6509  1.8542
   23MOL    H5612860   2.642   0.441   4.999  1.7999 -1.0583 -0.5824
   23MOL    H5712861   2.578   0.485   4.829  0.4230 -0.9507  1.2032
   23MOL    H5812862   2.627   0.743   5.072  1.8983 -0.3172  2.0423
   23MOL    H5912863   2.477   0.633   5.073  0.1715 -0.4228 -1.3447
   23MOL    C6012864   2.585   0.492   5.279  0.4823 -0.7067  0.9653
   23MOL    C6112865   2.461   0.510   5.366  0.7590  0.5684 -0.4257
   23MOL    O6212866   2.489   0.563   5.497  0.2804 -0.0556  0.3412
   23MOL    C6312867   2.401   0.372   5.404 -0.2484 -0.4267  0.0323
   23MOL    O6412868   2.263   0.382   5.441  0.7241  0.2882  0.0797
   23MOL    C6512869   2.220   0.262   5.497 -0.9862  0.7185 -0.1827
   23MOL    C6612870   2.074   0.271   5.536  0.6901 -0.9962 -0.7717
   23MOL    C6712871   2.054   0.338   5.676 -0.7628  0.2532  0.1978
   23MOL    O6812872   1.913   0.359   5.684 -0.0075  0.0162 -0.1901
   23MOL    C6912873   1.852   0.371   5.808 -0.0417 -0.5596 -0.1489
   23MOL    O7012874   1.903   0.484   5.876 -0.3242 -0.5046  0.1203
   23MOL    C7112875   1.700   0.387   5.787 -0.2696  0.8154 -0.0919
   23MOL    O7212876   1.622   0.290   5.852  0.1837  0.3407  0.0196
   23MOL    H7312877   2.666   0.436   5.326  1.3011 -0.2882  0.0741
   23MOL    H7412878   2.562   0.426   5.195 -0.7844  0.2787  0.5213
   23MOL    H7512879   2.389   0.584   5.333 -1.4726  0.0652  3.0487
   23MOL    H7612880   2.551   0.634   5.483 -1.2113  1.7946  2.7514
   23MOL    H7712881   2.402   0.317   5.310  2.0321 -1.2585  0.5221
   23MOL    H7812882   2.467   0.321   5.474 -0.5276  0.8950  1.2857
   23MOL    H7912883   2.284   0.231   5.579  1.5830 -0.5115 -2.5582
   23MOL    H8012884   2.215   0.185   5.419 -2.1703 -0.6485  1.2021
   23MOL    H8112885   2.030   0.171   5.533 -2.0464  0.1605 -0.4799
   23MOL    H8212886   2.038   0.337   5.457  2.7184  0.3279 -0.6209
   23MOL    H8312887   2.119   0.424   5.686  0.3124 -0.5989  0.6504
   23MOL    H8412888   2.084   0.270   5.755  0.5273  1.3720  0.6768
   23MOL    H8512889   1.875   0.285   5.872  0.8162 -1.3278 -1.4529
   23MOL    H8612890   1.919   0.547   5.806  2.1938 -3.4231 -2.0611
   23MOL    H8712891   1.664   0.486   5.814 -0.0015  0.7063  0.6787
   23MOL    H8812892   1.680   0.383   5.680 -1.4772 -0.9429  0.1658
   23MOL    C8912893   1.614   0.309   6.000  0.1585  0.6884  0.2003
   23MOL    C9012894   1.503   0.213   6.049 -0.1410 -0.0967  0.3300
   23MOL    O9112895   1.561   0.104   6.101 -0.2091 -0.0559 -0.2757
   23MOL    C9212896   1.405   0.266   6.152 -0.9679 -0.4672  0.2308
   23MOL    O9312897   1.317   0.155   6.188  0.1218 -0.0604 -0.4480
   23MOL    C9412898   1.189   0.179   6.234  0.1008  0.4194  0.3201
   23MOL    C9512899   1.125   0.041   6.257 -0.2083  0.5619 -0.3190
   23MOL    C9612900   0.985   0.034   6.303  0.0280 -0.5859 -0.1079
   23MOL    O9712901   0.923   7.606   6.335 -0.1444  0.0824 -0.8856
   23MOL    C9812902   0.794   7.601   6.380  0.3682 -0.1852 -0.3339
   23MOL    O9912903   0.760   7.468   6.405  0.8006  0.1127  0.2012
   23MOL   C10012904   0.785   7.685   6.513  0.6950 -1.2377 -0.2878
   23MOL   O10112905   0.727   0.124   6.485 -1.1786 -0.5720  0.4575
   23MOL   H10212906   1.589   0.414   6.019 -0.5094 -0.0259  3.5012
   23MOL   H10312907   1.714   0.296   6.041  1.3781  1.4789 -2.4088
   23MOL   H10412908   1.448   0.180   5.961 -0.9643 -1.7562  1.4476
   23MOL   H10512909   1.496   0.037   6.118  0.1740 -0.5733 -0.8366
   23MOL   H10612910   1.444   0.285   6.252 -3.4845 -2.0013  1.5504
   23MOL   H10712911   1.353   0.352   6.111  0.1052  0.1513  0.1531
   23MOL   H10812912   1.129   0.246   6.172 -0.2409 -0.7175 -0.5844
   23MOL   H10912913   1.206   0.237   6.325 -0.4177  1.1095 -0.0163
   23MOL   H11012914   1.181   7.682   6.334 -1.4506 -1.5766 -0.8521
   23MOL   H11112915   1.137   7.681   6.164  0.0934 -0.9705  0.6060
   23MOL   H11212916   0.973   0.100   6.389 -1.4985 -2.1553  0.9302
   23MOL   H11312917   0.918   0.063   6.222  0.0578 -1.2943 -0.3942
   23MOL   H11412918   0.722   7.622   6.300 -1.9855 -1.8996  1.2591
   23MOL   H11512919   0.791   7.419   6.331 -0.6720  0.9515 -0.9796
   23MOL   H11612920   0.699   7.650   6.570  1.9878 -1.9577  1.2711
   23MOL   H11712921   0.861   7.655   6.585 -0.4026  2.8367  2.7857
   23MOL   C11812922   0.726   0.206   6.604  0.1891  0.7502  0.1412
   23MOL   C11912923   0.706   0.351   6.555  0.2958  0.3316 -0.2488
   23MOL   O12012924   0.582   0.362   6.493 -0.1656 -0.0020  1.0785
   23MOL   C12112925   0.820   0.409   6.472 -0.1796  0.4809 -0.4331
   23MOL   O12212926   0.924   0.441   6.559  0.1911 -0.2229 -0.2294
   23MOL   C12312927   1.030   0.500   6.482 -0.4764 -0.1696  0.4300
   23MOL   C12412928   1.153   0.511   6.567 -0.7543  0.2351  0.0485
   23MOL   C12512929   1.261   0.579   6.491  0.0095 -0.0959  0.2403
   23MOL   O12612930   1.386   0.574   6.560 -0.5513 -0.5223 -0.6972
   23MOL   C12712931   1.490   0.585   6.466  0.0516 -0.5911  0.3910
   23MOL   O12812932   1.512   0.464   6.393  0.4674  0.3625  0.1303
   23MOL   C12912933   1.617   0.625   6.545  0.2416 -0.3180  0.2150
   23MOL   O13012934   1.657   0.517   6.617  0.4600 -0.3694  0.2392
   23MOL   H13112935   0.647   0.165   6.668 -2.1027  4.2415 -0.3182
   23MOL   H13212936   0.818   0.195   6.661  0.4244 -1.6855 -0.6302
   23MOL   H13312937   0.704   0.409   6.647 -1.0471 -2.2735  1.4248
   23MOL   H13412938   0.570   0.277   6.456  2.6630 -1.2049  2.7806
   23MOL   H13512939   0.855   0.339   6.397  1.8341 -1.9815  2.6577
   23MOL   H13612940   0.791   0.503   6.427 -3.8568  0.1641  1.0697
   23MOL   H13712941   1.005   0.598   6.442 -1.5904 -1.4777 -2.2471
   23MOL   H13812942   1.057   0.446   6.391 -0.0040  0.7828 -0.0005
   23MOL   H13912943   1.197   0.420   6.606 -0.2710  0.2590 -0.4303
   23MOL   H14012944   1.133   0.567   6.659 -1.3139 -2.2854  1.4883
   23MOL   H14112945   1.271   0.542   6.388  3.4105  1.9625 -0.2203
   23MOL   H14212946   1.233   0.684   6.485  0.0018 -0.0768  0.6320
   23MOL   H14312947   1.467   0.658   6.388 -4.1555 -1.2855  0.8572
   23MOL   H14412948   1.545   0.413   6.465 -0.5096  0.7636  0.8782
   23MOL   H14512949   1.700   0.654   6.480 -0.0566 -1.5266 -0.7134
   23MOL   H14612950   1.592   0.710   6.609  1.2951 -0.6197  1.0585
   23MOL   C14712951   1.775   0.537   6.690 -0.1760 -0.1449 -0.7212
   23MOL   C14812952   1.845   0.409   6.745  0.8516  0.3460 -0.0274
   23MOL   O14912953   1.760   0.351   6.842  0.0388  0.2751 -0.2238
   23MOL   C15012954   1.989   0.434   6.812 -0.3498 -0.0670  0.2784
   23MOL   O15112955   1.999   0.557   6.888  0.2359 -0.3541  0.1587
   23MOL   C15212956   2.127   0.576   6.943 -0.6658  0.1773 -0.2525
   23MOL   C15312957   2.142   0.722   6.989 -0.2453  0.0878 -0.2671
   23MOL   C15412958   2.273   0.741   7.061 -0.4618  0.5657  0.2365
   23MOL   O15512959   2.277   0.883   7.091  0.0303  0.3123 -0.0011
   23MOL   C15612960   2.393   0.926   7.141  0.3625  0.3108 -0.0183
   23MOL   O15712961   2.408   0.874   7.269  0.5011 -0.5477  0.5713
   23MOL   C15812962   2.386   1.082   7.161 -0.1522  0.0989 -0.1085
   23MOL   O15912963   2.263   1.124   7.217 -0.0972 -0.2927 -0.2478
   23MOL   H16012964   1.747   0.608   6.768 -0.4287 -0.3100 -0.6628
   23MOL   H16112965   1.846   0.597   6.633  0.4748 -0.7086 -0.5094
   23MOL   H16212966   1.861   0.334   6.667 -0.7827  0.6425 -0.6697
   23MOL   H16312967   1.763   0.414   6.913  1.1355 -0.7567  0.6598
   23MOL   H16412968   2.002   0.353   6.884 -1.2200 -4.3034 -4.0254
   23MOL   H16512969   2.064   0.432   6.732 -1.1590 -2.3823 -0.4730
   23MOL   H16612970   2.200   0.551   6.867  1.1914 -0.0634  1.5505
   23MOL   H16712971   2.151   0.505   7.023  3.0362  1.7484  0.1330
   23MOL   H16812972   2.056   0.732   7.055  1.0033  1.1248  1.2401
   23MOL   H16912973   2.127   0.791   6.906 -0.0887 -0.5123 -0.7996
   23MOL   H17012974   2.285   0.681   7.151  0.3078  0.1117 -0.1624
   23MOL   H17112975   2.353   0.706   6.995 -1.6419 -0.0985 -0.8661
   23MOL   H17212976   2.477   0.900   7.078 -0.1323  1.2214 -1.0762
   23MOL   H17312977   2.368   0.929   7.334  1.5415 -0.5003  1.1902
   23MOL   H17412978   2.463   1.099   7.235 -0.1214  0.0197 -0.1216
   23MOL   H17512979   2.422   1.137   7.074 -1.7649 -0.3805 -1.1126
   23MOL   C17612980   2.175   1.160   7.114 -0.1533 -0.2792  0.1664
   23MOL   C17712981   2.037   1.148   7.183 -0.2641  0.2713  0.0474
   23MOL   O17812982   1.924   1.112   7.107 -0.2172  0.4167 -0.1682
   23MOL   C17912983   1.990   1.264   7.268 -0.5354  0.2307  0.6131
   23MOL   O18012984   1.986   1.372   7.180 -0.6062 -0.8775 -0.0450
   23MOL   C18112985   1.933   1.493   7.237 -0.0397  0.1239  0.2713
   23MOL   C18212986   1.943   1.608   7.134 -0.1253  0.3251  0.1744
   23MOL   C18312987   2.090   1.619   7.078 -0.6442 -0.3536  0.1064
   23MOL   O18412988   2.094   1.546   6.955  0.2319 -0.1980  0.0543
   23MOL   C18512989   2.227   1.543   6.906 -0.6381  0.3283  0.0726
   23MOL   O18612990   2.257   1.663   6.842 -0.7431 -0.0463  0.1811
   23MOL   C18712991   2.240   1.429   6.800  0.3850  0.1856 -0.3672
   23MOL   O18812992   2.157   1.465   6.687 -0.2168  0.1784  0.4953
   23MOL   H18912993   2.177   1.100   7.024  1.7990  0.2690 -0.1768
   23MOL   H19012994   2.191   1.267   7.100  0.6028 -0.0667  2.4114
   23MOL   H19112995   2.048   1.057   7.242  2.6459  0.3993 -0.2019
   23MOL   H19212996   1.905   1.181   7.045 -0.6027  0.6265  0.1814
   23MOL   H19312997   1.893   1.249   7.314 -1.1920  1.7979 -0.2322
   23MOL   H19412998   2.049   1.291   7.356  0.0779 -0.8279  0.5318
   23MOL   H19512999   1.995   1.514   7.324  0.7805 -0.7350 -0.0957
   23MOL   H19613000   1.832   1.469   7.270  1.0213 -0.2267  3.4626
   23MOL   H19713001   1.912   1.704   7.178 -2.6897 -1.6119  2.8080
   23MOL   H19813002   1.871   1.594   7.053  0.8027 -2.6705 -0.1910
   23MOL   H19913003   2.105   1.726   7.064 -0.1226 -0.2594  1.3244
   23MOL   H20013004   2.157   1.592   7.160  0.4501 -1.0351 -1.0020
   23MOL   H20113005   2.296   1.522   6.987  3.0715  2.2660 -2.4669
   23MOL   H20213006   2.205   1.665   6.763 -0.9648  0.8332  0.3483
   23MOL   H20313007   2.344   1.419   6.772  0.7618 -0.1897  1.0970
   23MOL   H20413008   2.220   1.327   6.834  1.2709 -0.8773 -2.9307
   23MOL   C20513009   2.177   1.380   6.577  0.1678 -0.7621  0.5029
   23MOL   C20613010   2.078   1.414   6.463  0.2500 -0.4799 -0.2160
   23MOL   O20713011   2.117   1.547   6.422 -0.1582  0.6090 -0.3148
   23MOL   C20813012   2.077   1.309   6.355  0.0782 -1.3820  0.1220
   23MOL   O20913013   2.026   1.190   6.405 -0.1488  0.2971  0.0115
   23MOL   C21013014   2.051   1.069   6.338 -0.3064 -0.2578  0.0940
   23MOL   C21113015   1.990   0.954   6.421  0.3250  0.4312 -0.4144
   23MOL   C21213016   1.976   0.818   6.352 -0.0650  0.2945  0.6398
   23MOL   O21313017   1.859   0.814   6.273 -0.0078  0.1641  0.3924
   23MOL   C21413018   1.840   0.711   6.178 -0.5574  0.0830 -0.7080
   23MOL   O21513019   1.912   0.722   6.061 -0.2108  0.0909 -0.1575
   23MOL   C21613020   1.692   0.700   6.142  0.4470  0.4855  0.0667
   23MOL   O21713021   1.650   0.822   6.081 -0.8450  0.2168 -0.3492
   23MOL   H21813022   2.153   1.281   6.615 -0.1238 -0.9906 -0.2798
   23MOL   H21913023   2.280   1.387   6.542 -0.0248  0.8623  0.2195
   23MOL   H22013024   1.980   1.433   6.505 -0.2033  1.2782 -1.9809
   23MOL   H22113025   2.114   1.596   6.502 -1.9720  1.4412 -0.8641
   23MOL   H22213026   2.014   1.332   6.269  2.9504  0.9299 -1.4968
   23MOL   H22313027   2.177   1.299   6.311  0.3691 -1.4582  0.8039
   23MOL   H22413028   2.155   1.054   6.309  0.2222  1.4696  1.0429
   23MOL   H22513029   2.002   1.090   6.243  1.4369 -1.4098 -1.1037
   23MOL   H22613030   1.887   0.980   6.448 -0.6576 -3.3554 -0.2342
   23MOL   H22713031   2.055   0.943   6.508 -0.4515  1.0145  0.2567
   23MOL   H22813032   2.064   0.813   6.288  0.1648 -2.3491  1.1148
   23MOL   H22913033   1.979   0.743   6.431  1.3508  3.0164  3.2798
   23MOL   H23013034   1.881   0.618   6.218  1.4284  0.8116 -1.0410
   23MOL   H23113035   1.889   0.648   6.006 -1.9568  0.4068  0.1403
   23MOL   H23213036   1.690   0.617   6.072 -2.7219  1.7247 -1.3846
   23MOL   H23313037   1.630   0.676   6.229  1.1102 -2.7745 -0.2681
   23MOL   C23413038   1.543   0.889   6.142  0.5372  0.4239 -0.5837
   23MOL   C23513039   1.548   1.036   6.112  0.1718 -0.0196  0.2813
   23MOL   O23613040   1.503   1.056   5.984  0.1731 -0.7310 -0.1516
   23MOL   C23713041   1.685   1.099   6.129 -0.1525  0.1295 -0.4109
   23MOL   O23813042   1.681   1.224   6.200  0.3179 -0.6277 -0.5583
   23MOL   C23913043   1.685   1.213   6.343  0.2367  0.1376  0.6746
   23MOL   C24013044   1.686   1.361   6.393 -0.1611 -0.7512  0.6710
   23MOL   C24113045   1.640   1.367   6.545 -0.2855  0.2212 -0.0633
   23MOL   O24213046   1.755   1.357   6.626 -0.5863 -0.2308  0.5199
   23MOL   C24313047   1.731   1.341   6.760  0.0589  0.5269 -0.2576
   23MOL   O24413048   1.679   1.459   6.815  0.7038  0.0000 -0.1543
   23MOL   C24513049   1.867   1.303   6.829 -0.1042  0.2080  0.1746
   23MOL   O24613050   1.861   1.164   6.868  0.3641 -0.2327 -0.0872
   23MOL   H24713051   1.446   0.847   6.115  0.1631  0.2855  0.9548
   23MOL   H24813052   1.549   0.873   6.249  1.0483 -3.8803 -1.1609
   23MOL   H24913053   1.474   1.093   6.168  1.4607  1.9882 -0.0045
   23MOL   H25013054   1.560   1.005   5.928  1.9683  0.8354  0.2014
   23MOL   H25113055   1.754   1.024   6.168 -1.0445  0.4894  1.9847
   23MOL   H25213056   1.727   1.124   6.032  0.4646 -1.7443 -0.6442
   23MOL   H25313057   1.769   1.159   6.386  0.3800  0.5180  0.8807
   23MOL   H25413058   1.596   1.156   6.367  0.3099 -0.4078 -0.3269
   23MOL   H25513059   1.606   1.402   6.330 -1.1280 -0.6414  1.9605
   23MOL   H25613060   1.783   1.405   6.373  0.1133 -1.5147  0.2844
   23MOL   H25713061   1.582   1.457   6.566 -0.2495  0.7692 -2.2101
   23MOL   H25813062   1.554   1.305   6.570 -0.3782  0.9429  1.5045
   23MOL   H25913063   1.661   1.258   6.769 -1.4758  1.8022 -0.0392
   23MOL   H26013064   1.743   1.526   6.798  0.6918 -0.0230 -0.2902
   23MOL   H26113065   1.958   1.323   6.773  0.3140 -2.8578 -0.3519
   23MOL   H26213066   1.880   1.360   6.920 -2.8061  1.3753 -0.1029
   23MOL   C26313067   1.883   1.069   6.760  0.4336 -0.6729  0.0661
   23MOL   C26413068   1.819   0.940   6.814 -0.3893 -0.9422 -0.1860
   23MOL   O26513069   1.896   0.891   6.926 -0.6109  0.1809 -0.1274
   23MOL   C26613070   1.665   0.952   6.846 -0.1052  0.3213  0.1814
   23MOL   O26713071   1.604   0.961   6.716 -0.6134 -0.1821 -1.1066
   23MOL   C26813072   1.465   0.950   6.714  0.4942  0.0759 -0.0098
   23MOL   C26913073   1.422   0.962   6.564  0.3250 -0.1624 -0.0229
   23MOL   C27013074   1.271   0.970   6.541 -0.0046  0.2652 -0.0301
   23MOL   O27113075   1.247   0.983   6.402 -0.1899 -0.0265  0.5038
   23MOL   C27213076   1.109   0.984   6.366 -0.3715 -0.4856 -0.0403
   23MOL   O27313077   1.053   1.109   6.394  0.2733  0.0753 -0.0886
   23MOL   C27413078   1.106   0.944   6.220  0.3690  0.1969  0.5431
   23MOL   O27513079   1.146   0.809   6.210 -0.2339 -0.6451 -0.2765
   23MOL   H27613080   1.988   1.061   6.733  0.7758 -0.1505  1.1934
   23MOL   H27713081   1.844   1.092   6.661 -0.3463  1.8856  0.9221
   23MOL   H27813082   1.829   0.859   6.741  1.5279 -1.1705  0.2907
   23MOL   H27913083   1.878   0.962   6.985 -2.2842 -1.2073  1.0754
   23MOL   H28013084   1.624   0.860   6.888 -0.1694  0.1356 -0.2865
   23MOL   H28113085   1.638   1.036   6.910  3.1869  1.1533  0.5809
   23MOL   H28213086   1.427   1.039   6.765 -0.7313 -0.6841  0.4276
   23MOL   H28313087   1.427   0.858   6.757 -2.8440  1.6129  0.5277
   23MOL   H28413088   1.462   0.876   6.511 -0.1347 -0.6903  0.4734
   23MOL   H28513089   1.453   1.058   6.523  0.1319 -0.1187 -0.0692
   23MOL   H28613090   1.233   0.878   6.585  0.6698  1.1102  2.3791
   23MOL   H28713091   1.225   1.047   6.603 -0.9082 -1.6584  1.7440
   23MOL   H28813092   1.057   0.911   6.429  1.2913 -0.2858  1.6206
   23MOL   H28913093   1.071   1.132   6.484  0.3303  2.5720 -0.6900
   23MOL   H29013094   1.012   0.960   6.168  0.1917  2.6466  1.5570
   23MOL   H29113095   1.178   1.002   6.162 -0.6765 -1.4314 -2.4898
   23MOL   C29213096   1.136   0.761   6.078  0.4073 -0.1588  0.4733
   23MOL   C29313097   1.196   0.625   6.077  0.1317  0.2534 -0.1195
   23MOL   O29413098   1.102   0.540   6.149 -0.4215 -0.2055 -0.1815
   23MOL   C29513099   1.216   0.561   5.932  0.2446  1.0137  0.5043
   23MOL   O29613100   1.337   0.609   5.881 -0.5340  0.2000  0.4950
   23MOL   C29713101   1.369   0.578   5.754  0.6520 -0.7272 -0.0378
   23MOL   C29813102   1.464   0.680   5.701 -0.5373 -0.4819  0.4447
   23MOL   C29913103   1.414   0.825   5.714 -0.7006  0.6354 -0.1230
   23MOL   O30013104   1.468   0.919   5.622 -0.0667  0.2364 -0.0336
   23MOL   C30113105   1.380   0.942   5.519  0.3026 -0.5529  0.0864
   23MOL   O30213106   1.266   1.015   5.567 -0.3075 -0.5392 -0.5660
   23MOL   C30313107   1.454   1.026   5.422 -0.0792 -0.3809  0.2905
   23MOL   O30413108   1.548   0.945   5.349 -0.2647  0.2590 -0.2800
   23MOL   H30513109   1.034   0.773   6.040  0.5999 -1.3735 -0.4488
   23MOL   H30613110   1.196   0.825   6.013  0.0084  0.2946  0.5496
   23MOL   H30713111   1.290   0.626   6.133 -0.5360 -0.2358  1.0115
   23MOL   H30813112   1.014   0.574   6.142  0.4837  2.4704  1.0616
   23MOL   H30913113   1.218   0.452   5.942 -0.3508  1.0246  0.7531
   23MOL   H31013114   1.135   0.594   5.868  1.5496 -0.0323 -1.7514
   23MOL   H31113115   1.279   0.592   5.695  0.5643  0.5245  0.3933
   23MOL   H31213116   1.401   0.473   5.751  0.4358 -0.8391  1.3267
   23MOL   H31313117   1.468   0.668   5.593  0.3649  2.8044  0.0578
   23MOL   H31413118   1.570   0.666   5.725 -0.8317 -0.6508  1.7087
   23MOL   H31513119   1.306   0.827   5.703 -0.6211  0.8056 -0.8992
   23MOL   H31613120   1.438   0.862   5.814  0.3784  0.9328 -0.4773
   23MOL   H31713121   1.346   0.854   5.464 -0.7791 -0.3475  0.4109
   23MOL   H31813122   1.298   1.095   5.608 -1.1012 -0.7613  0.4843
   23MOL   H31913123   1.504   1.101   5.484  3.5709 -0.5282 -2.3145
   23MOL   H32013124   1.382   1.083   5.362 -0.5917  1.4021  2.4968
   23MOL   C32113125   1.612   1.013   5.239 -0.2755  0.4091  0.6186
   23MOL   C32213126   1.694   0.912   5.150  0.3977 -0.0516  0.1367
   23MOL   O32313127   1.622   0.878   5.039  0.2236  0.3871 -0.4188
   23MOL   C32413128   1.830   0.958   5.094  0.4231 -0.1719  0.0975
   23MOL   O32513129   1.881   0.846   5.016 -0.1659 -0.0714  0.1326
   23MOL   C32613130   2.017   0.871   4.992  0.5182  0.0676 -0.3264
   23MOL   C32713131   2.055   0.796   4.862  0.0532 -0.2397 -0.5528
   23MOL   C32813132   2.205   0.824   4.844 -0.3845 -0.2966  0.6215
   23MOL   O32913133   2.265   0.734   4.755  0.1840  0.0124  0.4388
   23MOL   C33013134   2.357   0.793   4.668 -0.0948 -0.3045 -0.6510
   23MOL   O33113135   2.482   0.813   4.732 -0.0794 -0.5579  0.1257
   23MOL   C33213136   2.382   0.698   4.550 -0.4382  0.1931 -0.2082
   23MOL   O33313137   2.396   0.566   4.593  0.1743 -0.5363  0.4250
   23MOL   H33413138   1.687   1.081   5.280 -0.2355 -0.7659  2.5045
   23MOL   H33513139   1.543   1.067   5.174 -1.3544  0.5982  1.8954
   23MOL   H33613140   1.710   0.825   5.214  0.5671 -0.9905 -1.1717
   23MOL   H33713141   1.676   0.826   4.981 -2.0550 -2.4077 -0.1296
   23MOL   H33813142   1.899   0.985   5.174 -0.4505  1.1367  0.4068
   23MOL   H33913143   1.809   1.039   5.024 -1.6203  0.1815  1.0933
   23MOL   H34013144   2.064   0.834   5.083 -1.6909 -2.8135 -0.2731
   23MOL   H34113145   2.046   0.976   4.989  1.8788 -0.2499  1.0446
   23MOL   H34213146   2.035   0.689   4.860  2.1628 -0.6636 -1.3494
   23MOL   H34313147   2.001   0.836   4.776 -0.8373 -1.1473 -0.4222
   23MOL   H34413148   2.215   0.930   4.820  1.0344 -0.6367 -0.3527
   23MOL   H34513149   2.252   0.820   4.942 -0.4002 -1.1786  0.5965
   23MOL   H34613150   2.315   0.885   4.628  0.4969 -0.3552 -1.3956
   23MOL   H34713151   2.508   0.736   4.780 -1.7980 -0.4585  1.2297
   23MOL   H34813152   2.301   0.689   4.477 -1.1014 -0.7799  0.6392
   23MOL   H34913153   2.469   0.734   4.496  1.0467 -1.2044  1.2240
   23MOL   C35013154   2.432   0.478   4.477  0.5464  0.4685 -0.0675
   23MOL   C35113155   2.584   0.479   4.455  0.1726 -0.5333  0.2688
   23MOL   O35213156   2.632   0.352   4.480 -0.2132  0.5701 -0.0659
   23MOL   C35313157   2.612   0.508   4.307  0.0917 -0.5337  0.1470
   23MOL   O35413158   2.541   0.422   4.220 -0.5149  0.2987 -0.0477
   23MOL   C35513159   2.605   0.388   4.097 -0.0657  0.6214  0.3974
   23MOL   C35613160   2.729   0.301   4.117  0.2407 -0.3790 -0.4294
   23MOL   C35713161   2.701   0.161   4.166 -0.0488  0.6891  0.1930
   23MOL   O35813162   2.665   0.163   4.303 -0.6113 -0.8264  0.1034
   23MOL   C35913163   2.606   0.044   4.346 -0.0196  0.6049  0.7964
   23MOL   O36013164   2.690   7.629   4.356  0.3128 -0.6330  0.0939
   23MOL   C36113165   2.526   0.061   4.472  0.0055  0.3037 -0.3507
   23MOL   O36213166   2.610   0.095   4.582  0.5235  0.8588 -0.1456
   23MOL   H36313167   2.375   0.499   4.386  1.1157  1.6690 -0.1455
   23MOL   H36413168   2.396   0.379   4.507  1.4297 -0.0333 -0.6218
   23MOL   H36513169   2.638   0.560   4.503 -1.6082 -0.5613  2.4011
   23MOL   H36613170   2.625   0.291   4.408  1.4323  0.2082  0.0595
   23MOL   H36713171   2.565   0.604   4.283  0.7588 -0.6969 -1.8346
   23MOL   H36813172   2.720   0.518   4.296 -0.0949  0.0090 -1.2669
   23MOL   H36913173   2.621   0.479   4.039  1.0544  0.5145  0.5324
   23MOL   H37013174   2.528   0.330   4.046  2.7732 -2.6774 -0.2986
   23MOL   H37113175   2.793   0.341   4.195 -0.7955 -0.0211  0.2411
   23MOL   H37213176   2.793   0.295   4.029 -0.4078 -1.2268 -0.8554
   23MOL   H37313177   2.613   0.119   4.118 -0.1479 -0.0178  0.9904
   23MOL   H37413178   2.790   0.100   4.149 -0.9526 -0.8323  0.8299
   23MOL   H37513179   2.535   0.017   4.269  0.9234  3.7979 -1.2750
   23MOL   H37613180   2.733   7.653   4.436 -1.0429 -0.3648  0.7435
   23MOL   H37713181   2.451   0.138   4.458 -0.3959  0.2594  1.5066
   23MOL   H37813182   2.486   7.655   4.485  0.2141  0.0546 -1.5730
   23MOL   C37913183   2.536   0.101   4.700 -0.0290  0.3169  0.4823
   23MOL   C38013184   2.620   0.181   4.802  0.4031  0.5871  0.3956
   23MOL   O38113185   2.596   0.314   4.749 -0.2807  0.5166  0.3991
   23MOL   C38213186   2.564   0.158   4.945  0.0319  0.4971 -0.4553
   23MOL   O38313187   2.670   0.186   5.040  0.7802  0.5318 -0.1268
   23MOL   C38413188   2.775   0.094   5.053  0.3531 -1.0355 -0.0730
   23MOL   C38513189   2.843   0.128   5.186  0.2530 -0.4465  0.5397
   23MOL   C38613190   2.974   0.055   5.223 -0.1577 -0.4850  0.4027
   23MOL   O38713191   2.992   0.078   5.362 -0.1209 -0.4522  0.0763
   23MOL   C38813192   3.075   7.676   5.418  0.3224  0.0796 -0.7236
   23MOL   O38913193   3.203   7.671   5.356 -0.0811  0.6450 -0.5792
   23MOL   C39013194   3.089   0.023   5.570  0.3338 -0.6365 -0.3606
   23MOL   O39113195   2.962   0.029   5.632 -0.3438  0.2178  0.0495
   23MOL   H39213196   2.530   0.000   4.740 -0.0196  0.0214 -0.2461
   23MOL   H39313197   2.437   0.141   4.679  0.1156 -0.0569 -0.9682
   23MOL   H39413198   2.726   0.160   4.786 -0.3098 -1.9154 -1.5588
   23MOL   H39513199   2.622   0.318   4.659  2.4189  0.6882  1.1166
   23MOL   H39613200   2.489   0.235   4.964  0.5413  0.5630  1.4479
   23MOL   H39713201   2.515   0.063   4.966  1.0507  0.3369  1.2976
   23MOL   H39813202   2.853   0.093   4.977 -0.6134 -1.5214 -1.0709
   23MOL   H39913203   2.729   7.690   5.050  0.0906 -0.8661 -1.7074
   23MOL   H40013204   2.766   0.114   5.261 -0.2819  1.5939  0.3978
   23MOL   H40113205   2.875   0.232   5.175  1.0019 -0.6806  0.4687
   23MOL   H40213206   2.967   7.645   5.194  1.3584 -0.3900 -0.3348
   23MOL   H40313207   3.060   0.091   5.167  0.4117  0.5085  1.8809
   23MOL   H40413208   3.026   7.579   5.408  0.4191  0.0537 -0.9414
   23MOL   H40513209   3.271   7.677   5.420  0.3623  1.7618 -1.1458
   23MOL   H40613210   3.166   7.661   5.624  1.0162  1.7861  1.2678
   23MOL   H40713211   3.138   0.120   5.576 -1.5817  0.3200  0.3937
   23MOL   C40813212   2.903   7.603   5.675 -0.1752  0.3860  0.2699
   23MOL   C40913213   2.755   7.606   5.637  0.1028  0.5429  0.3243
   23MOL   O41013214   2.750   7.594   5.499  0.3408  0.1037 -0.3549
   23MOL   C41113215   2.671   0.033   5.693 -0.3387 -0.4044  0.3023
   23MOL   O41213216   2.535   0.004   5.689  0.6736  1.0716 -0.1313
   23MOL   C41313217   2.453   0.090   5.769  0.3043  0.4102 -0.3230
   23MOL   C41413218   2.319   0.020   5.793 -0.5703 -0.8107 -0.0159
   23MOL   C41513219   2.233   0.066   5.908 -0.8240 -0.0927  0.0781
   23MOL   O41613220   2.100   0.003   5.915 -0.0087 -0.0060  0.0097
   23MOL   C41713221   2.038   0.042   6.034  0.8262 -0.7977 -0.1304
   23MOL   O41813222   2.101   7.681   6.148  0.7260  0.3305 -0.0071
   23MOL   C41913223   1.889   0.005   6.031  0.0872 -1.0182  0.5510
   23MOL   O42013224   1.875   7.564   6.015 -0.0567 -0.6871  0.6515
   23MOL   H42113225   2.914   7.599   5.783  0.5868  2.9574  0.3028
   23MOL   H42213226   2.960   7.516   5.643 -1.2925 -0.5192  0.6926
   23MOL   H42313227   2.709   7.519   5.683  2.2030 -0.3612  0.7626
   23MOL   H42413228   2.792   7.667   5.456 -2.1304  1.5111 -0.5055
   23MOL   H42513229   2.703   0.043   5.797 -2.4714  1.1241  0.8585
   23MOL   H42613230   2.693   0.130   5.648 -1.7340  0.1072  0.6895
   23MOL   H42713231   2.508   0.107   5.862  0.8371 -0.2413 -0.5190
   23MOL   H42813232   2.425   0.190   5.735 -0.0422 -0.2308 -1.9601
   23MOL   H42913233   2.343   7.609   5.810  1.0187 -0.4246  0.2161
   23MOL   H43013234   2.264   0.027   5.699 -1.3636 -2.3632  0.3085
   23MOL   H43113235   2.293   0.064   5.999  0.5104 -1.4989 -0.8131
   23MOL   H43213236   2.213   0.173   5.895 -0.5785  0.0597  0.9023
   23MOL   H43313237   2.043   0.150   6.046 -2.0513 -0.7339  0.8971
   23MOL   H43413238   2.108   7.588   6.134 -1.6554  0.3803 -1.9619
   23MOL   H43513239   1.856   0.037   6.130 -1.2955 -0.1820 -0.1588
   23MOL   H43613240   1.841   0.057   5.948  0.0056 -1.4882  0.3030
   23MOL   C43713241   1.744   7.518   6.043 -0.4732  0.1567  0.8403
   23MOL   C43813242   1.755   7.369   6.015  0.4900  0.1794  0.8915
   23MOL   O43913243   1.743   7.347   5.870 -0.1796 -0.9383 -0.0624
   23MOL   C44013244   1.640   7.291   6.087  0.4670  0.3330  0.1864
   23MOL   O44113245   1.664   7.312   6.226 -0.3310 -0.1220 -0.6732
   23MOL   C44213246   1.556   7.295   6.314 -0.1785 -0.8897 -0.1695
   23MOL   C44313247   1.613   7.295   6.458  0.7005 -0.0229 -0.6312
   23MOL   C44413248   1.507   7.259   6.562 -0.5501 -0.7197  0.1697
   23MOL   O44513249   1.562   7.238   6.692 -0.5043 -0.0963 -0.1750
   23MOL   C44613250   1.480   7.206   6.798  0.0916 -0.3015 -0.3350
   23MOL   O44713251   1.412   7.326   6.840 -0.0477 -0.0378 -0.6866
   23MOL   C44813252   1.563   7.148   6.925  0.9523  0.2347  0.2147
   23MOL   O44913253   1.622   7.023   6.891  0.0610 -0.2384 -0.4856
   23MOL   H45013254   1.721   7.537   6.148 -1.0751 -0.0293  0.7442
   23MOL   H45113255   1.663   7.565   5.987 -1.1990  0.2218  1.9327
   23MOL   H45213256   1.851   7.330   6.050 -0.3293 -1.7266  1.1049
   23MOL   H45313257   1.720   7.430   5.831 -0.2583  0.0250  1.9262
   23MOL   H45413258   1.544   7.327   6.050  0.6392  1.0589  0.4299
   23MOL   H45513259   1.655   7.185   6.067 -1.4114 -0.1397  1.1758
   23MOL   H45613260   1.505   7.198   6.306 -0.0955 -1.1177  1.7682
   23MOL   H45713261   1.494   7.375   6.274  0.6568  0.3348  0.9438
   23MOL   H45813262   1.645   7.399   6.464 -1.8978  0.7781 -0.1394
   23MOL   H45913263   1.700   7.229   6.460  1.4307  0.9036 -1.3452
   23MOL   H46013264   1.437   7.343   6.569  0.0424 -0.0971 -1.2707
   23MOL   H46113265   1.457   7.166   6.536 -0.2380 -1.0303  0.6580
   23MOL   H46213266   1.416   7.127   6.761 -1.9856  0.3739  1.7061
   23MOL   H46313267   1.475   7.392   6.863 -1.6837  1.3291 -0.0663
   23MOL   H46413268   1.635   7.221   6.962  0.4523 -0.1369  1.9671
   23MOL   H46513269   1.498   7.124   7.009 -0.1789 -0.8354 -0.9232
   23MOL   C46613270   1.729   7.029   6.801  0.4422 -0.3986  0.0878
   23MOL   C46713271   1.784   6.892   6.770 -0.1129  0.5008  0.1221
   23MOL   O46813272   1.681   6.817   6.699  0.3303  0.5031 -0.3299
   23MOL   C46913273   1.906   6.908   6.679 -0.0889 -0.1276  0.0208
   23MOL   O47013274   1.853   6.946   6.552 -0.3554  0.4930  0.3121
   23MOL   C47113275   1.942   6.949   6.442  0.2912 -0.3175  0.5478
   23MOL   C47213276   1.873   7.000   6.313  0.1310  0.0366  0.6524
   23MOL   C47313277   1.951   6.970   6.185 -0.0148  0.8429 -0.1392
   23MOL   O47413278   1.854   6.982   6.087  0.4693 -0.1872  0.2155
   23MOL   C47513279   1.913   6.972   5.954 -0.0802 -0.0692 -1.7800
   23MOL   O47613280   1.974   7.092   5.927 -0.2712  0.2133  0.2006
   23MOL   C47713281   1.805   6.945   5.854 -0.5946 -0.2048 -0.6149
   23MOL   O47813282   1.762   6.810   5.872 -0.9458  0.3321  0.2070
   23MOL   H47913283   1.794   7.108   6.838 -0.3848 -0.0258  0.7487
   23MOL   H48013284   1.693   7.076   6.710 -0.3394 -1.2535 -0.0594
   23MOL   H48113285   1.810   6.833   6.858 -3.6725 -1.9087 -0.3143
   23MOL   H48213286   1.702   6.823   6.607 -0.6491  0.1088 -0.5754
   23MOL   H48313287   1.964   6.991   6.718 -0.4232  0.1366 -0.0391
   23MOL   H48413288   1.976   6.824   6.675 -3.0689 -2.6465 -0.9872
   23MOL   H48513289   1.987   6.851   6.428  0.4735 -0.2113  0.3722
   23MOL   H48613290   2.023   7.020   6.458 -0.2367  0.9425 -2.0316
   23MOL   H48713291   1.859   7.108   6.313  1.3524  0.2021 -0.3389
   23MOL   H48813292   1.776   6.950   6.307  0.2879 -0.1179 -0.6349
   23MOL   H48913293   2.033   7.040   6.168  0.8322  0.2166  1.3104
   23MOL   H49013294   1.984   6.866   6.182  1.4738  1.2385  1.5671
   23MOL   H49113295   1.985   6.891   5.959  1.3236  1.1592 -1.3945
   23MOL   H49213296   1.907   7.154   5.903  1.9920  1.8249 -2.3470
   23MOL   H49313297   1.720   7.011   5.864  1.3607  2.7082 -2.4612
   23MOL   H49413298   1.847   6.963   5.755  0.5174 -0.0935 -0.1310
   23MOL   C49513299   1.676   6.758   5.772  0.2095  0.2509  0.4172
   23MOL   C49613300   1.540   6.735   5.840 -0.0292  0.3476 -0.4104
   23MOL   O49713301   1.562   6.629   5.931 -0.5517  0.1230 -0.1487
   23MOL   C49813302   1.477   6.862   5.906  0.3705  0.2259  0.1321
   23MOL   O49913303   1.466   6.969   5.814  0.3715  0.2917 -0.0224
   23MOL   C50013304   1.370   7.070   5.847  0.1534  0.5507  0.2721
   23MOL   C50113305   1.413   7.204   5.797  0.5948  0.6217  0.0570
   23MOL   C50213306   1.308   7.315   5.814  0.2250 -1.2589  0.2845
   23MOL   O50313307   1.358   7.433   5.754  0.3987  0.3161 -0.3118
   23MOL   C50413308   1.255   7.530   5.725  0.1520  0.3712 -0.0994
   23MOL   O50513309   1.180   7.485   5.621  0.4108  0.3528 -0.4998
   23MOL   C50613310   1.317   7.669   5.685  0.0091  1.0410  0.6200
   23MOL   O50713311   1.431   7.644   5.612  0.5127  0.2740  0.3532
   23MOL   H50813312   1.723   6.671   5.725  1.2279  0.8668  0.2762
   23MOL   H50913313   1.662   6.833   5.694 -1.3978  1.1365  1.5376
   23MOL   H51013314   1.467   6.689   5.772  1.7397 -3.2732 -0.0097
   23MOL   H51113315   1.649   6.642   5.964 -0.4902 -2.2217  0.7118
   23MOL   H51213316   1.378   6.847   5.947  0.7301  0.5517  1.1333
   23MOL   H51313317   1.532   6.898   5.993 -0.3978  0.2237  0.6168
   23MOL   H51413318   1.362   7.062   5.956 -1.1698 -1.3253  0.0624
   23MOL   H51513319   1.272   7.044   5.808  0.9057 -1.4893 -0.3037
   23MOL   H51613320   1.426   7.192   5.690  1.3827  1.4287  0.0583
   23MOL   H51713321   1.511   7.229   5.836  0.8874 -0.9463  0.3224
   23MOL   H51813322   1.208   7.281   5.785  1.1379 -3.4274 -0.4617
   23MOL   H51913323   1.300   7.324   5.922 -4.0012  0.0530 -0.0214
   23MOL   H52013324   1.193   7.536   5.814 -2.4603  0.7186 -1.8745
   23MOL   H52113325   1.231   7.476   5.542 -0.2419 -2.1859 -0.6491
   23MOL   H52213326   1.241   0.026   5.626  0.5694  0.8792 -0.2487
   23MOL   H52313327   1.330   0.026   5.780 -0.4697 -0.5245  1.5454
   23MOL   C52413328   1.546   0.004   5.664  0.4548 -0.0242 -0.5324
   23MOL   C52513329   1.656   7.613   5.597 -0.4916 -0.3633 -0.2721
   23MOL   O52613330   1.642   7.483   5.656 -0.3161 -0.0903 -0.1468
   23MOL   C52713331   1.795   7.669   5.637  0.3645 -1.2299 -0.0003
   23MOL   O52813332   1.891   7.626   5.543 -0.5641  0.4889  0.9813
   23MOL   C52913333   1.971   7.526   5.596  0.2742  0.7953  0.1830
   23MOL   C53013334   2.072   7.463   5.491  0.2298  0.3105 -0.8272
   23MOL   C53113335   2.167   7.563   5.439 -0.5568  0.2461 -0.5716
   23MOL   O53213336   2.290   7.505   5.410  0.4963 -0.1292  0.2015
   23MOL   C53313337   2.380   7.593   5.354 -0.2364  0.6261 -0.4110
   23MOL   O53413338   2.423   0.000   5.444  0.1348 -0.0998 -0.2908
   23MOL   C53513339   2.511   7.522   5.311  0.5047  0.3950  0.2310
   23MOL   O53613340   2.480   7.447   5.196  0.5322 -0.6341 -0.4681
   23MOL   H53713341   1.561   7.684   5.771  0.2731  0.3362 -0.4557
   23MOL   H53813342   1.548   0.107   5.627  0.7734 -0.3469 -1.4198
   23MOL   H53913343   1.658   7.622   5.488  0.9226 -2.4371 -0.4446
   23MOL   H54013344   1.553   7.471   5.686  0.3940 -1.5231  1.4069
   23MOL   H54113345   1.790   0.084   5.630  0.4446 -1.2647 -0.6739
   23MOL   H54213346   1.814   7.645   5.741  1.6950 -1.4762 -0.2891
   23MOL   H54313347   1.907   7.439   5.611 -0.2427  0.8449 -1.6623
   23MOL   H54413348   2.032   7.567   5.677  0.8236  2.0912 -0.8747
   23MOL   H54513349   2.021   7.414   5.408 -0.5381  0.8339 -0.6628
   23MOL   H54613350   2.132   7.390   5.546 -1.8993  1.2275  2.8861
   23MOL   H54713351   2.126   7.614   5.351 -1.3840 -1.5408 -1.2492
   23MOL   H54813352   2.177   7.642   5.513 -1.0439  1.7089 -2.0140
   23MOL   H54913353   2.333   7.644   5.271 -0.5158  0.9364 -0.0662
   23MOL   H55013354   2.494   7.656   5.493 -0.8449 -1.3686  0.1723
   23MOL   H55113355   2.575   7.599   5.269 -2.2486  1.6119 -1.9168
   23MOL   H55213356   2.553   7.459   5.390  2.3168  1.0505 -0.1821
   23MOL   C55313357   2.453   7.312   5.230 -0.0565 -0.3666 -0.0867
   23MOL   C55413358   2.341   7.263   5.133 -0.2503 -0.3751  0.0423
   23MOL   O55513359   2.220   7.309   5.178  0.2599  0.2413  0.2598
   23MOL   C55613360   2.343   7.109   5.134 -0.2877 -0.2565 -0.7400
   23MOL   O55713361   2.440   7.054   5.043 -0.4775  0.5495 -0.0654
   23MOL   C55813362   2.400   6.936   4.969 -0.2628  0.3937  0.4841
   23MOL   C55913363   2.517   6.888   4.887 -0.6216 -1.2471  0.1984
   23MOL   C56013364   2.615   6.814   4.980 -0.1187 -0.0282  0.3852
   23MOL   O56113365   2.689   6.715   4.905  0.0539 -0.1152 -0.1186
   23MOL   C56213366   2.799   6.672   4.979  0.2688 -0.0754 -0.0624
   23MOL   O56313367   2.767   6.597   5.096 -0.4161  0.2327 -0.5468
   23MOL   C56413368   2.874   6.577   4.886 -0.1566 -0.1461 -0.3734
   23MOL   O56513369   2.818   6.446   4.895 -0.0891  0.4270 -0.1640
   23MOL   H56613370   2.415   7.303   5.332 -0.4272 -1.5201 -0.3138
   23MOL   H56713371   2.540   7.249   5.214  2.2442  2.6711  0.0917
   23MOL   H56813372   2.360   7.294   5.030  1.5521 -1.3427  0.0768
   23MOL   H56913373   2.246   7.387   5.224  1.9196  0.6812 -1.3592
   23MOL   H57013374   2.337   7.066   5.234 -2.8190  0.1022 -0.7067
   23MOL   H57113375   2.250   7.065   5.097 -0.3824 -0.6150 -0.0877
   23MOL   H57213376   2.357   6.858   5.032 -0.4455  1.2050  1.3640
   23MOL   H57313377   2.319   6.954   4.899 -0.1381 -0.1801  0.1881
   23MOL   H57413378   2.571   6.973   4.845 -1.5586  0.0049  1.4608
   23MOL   H57513379   2.485   6.814   4.814  2.4910  0.0635 -2.6321
   23MOL   H57613380   2.679   6.894   5.019  0.4251 -0.0508 -0.4469
   23MOL   H57713381   2.568   6.776   5.071  0.5553  0.6963  1.0566
   23MOL   H57813382   2.852   6.765   4.998  2.4753 -1.2170 -0.4942
   23MOL   H57913383   2.780   6.506   5.072 -1.7519 -0.3077  0.7627
   23MOL   H58013384   2.867   6.618   4.785 -1.3691  1.2096  0.2421
   23MOL   H58113385   2.976   6.578   4.924  0.3747  4.2178 -1.5972
   23MOL   H58213386   2.726   6.461   4.875 -0.0866 -0.0756 -0.5430
   24MOL     C113387   4.749   2.947   4.493 -0.5873 -0.7937 -0.5203
   24MOL     C213388   4.838   3.046   4.560  0.3580  0.2177  0.7428
   24MOL     O313389   4.846   3.166   4.487 -0.0763  0.4894  0.3285
   24MOL     C413390   4.806   3.079   4.707  0.4675 -0.1484  0.4206
   24MOL     O513391   4.802   2.961   4.787 -0.0194  0.6344 -0.1286
   24MOL     C613392   4.926   2.923   4.839  0.9436 -0.1869  0.2422
   24MOL     C713393   4.899   2.786   4.910  0.3005 -0.0617 -0.0102
   24MOL     C813394   4.784   2.790   5.019 -0.1333  0.4432 -0.0994
   24MOL     O913395   4.782   2.666   5.096  0.3089 -0.3706 -0.2855
   24MOL    C1013396   4.709   2.678   5.210  0.1206 -0.3003 -0.3971
   24MOL    O1113397   4.784   2.750   5.305  0.3082  0.0987 -0.2379
   24MOL    C1213398   4.689   2.533   5.257  0.1884 -0.7179  0.0431
   24MOL    O1313399   4.558   2.518   5.301 -0.0349  0.3430 -0.3626
   24MOL    H1413400   4.642   2.964   4.498 -0.5393  0.2555 -2.4982
   24MOL    H1513401   4.755   2.861   4.559  1.3372  1.1790  1.9830
   24MOL    H1613402   4.939   3.006   4.556 -0.9447 -3.1274 -0.4565
   24MOL    H1713403   4.913   3.214   4.533  1.5375 -1.4854  0.1152
   24MOL    H1813404   4.874   3.149   4.755  1.0537 -1.1096  1.0040
   24MOL    H1913405   4.709   3.129   4.704  1.3286  1.4571 -1.0600
   24MOL    H2013406   4.949   2.997   4.916 -0.1858 -1.4457  1.8192
   24MOL    H2113407   5.007   2.915   4.767  0.0538 -0.9943 -0.6929
   24MOL    H2213408   4.994   2.760   4.957  0.9995  1.4447 -0.5471
   24MOL    H2313409   4.866   2.705   4.845 -0.4963 -0.5692  1.0071
   24MOL    H2413410   4.799   2.877   5.083  1.0754 -0.1951  0.5263
   24MOL    H2513411   4.689   2.792   4.967 -1.1237 -0.4495  1.6167
   24MOL    H2613412   4.616   2.732   5.194  0.8855  1.6742  1.5507
   24MOL    H2713413   4.864   2.702   5.321 -0.4407 -0.7753  0.8836
   24MOL    H2813414   4.718   2.452   5.191  0.4001 -0.0259 -0.7269
   24MOL    H2913415   4.755   2.513   5.341  1.7839 -0.4511 -1.1112
   24MOL    H3013416   4.773   2.930   4.387  0.6290 -0.6578 -0.2786
   24MOL    C3113417   4.465   2.488   5.200  0.7727 -0.1703  0.0247
   24MOL    C3213418   4.316   2.486   5.241 -0.7034 -0.6103 -0.2345
   24MOL    O3313419   4.256   2.617   5.237 -0.4156  0.1235  0.2535
   24MOL    C3413420   4.283   2.437   5.383 -0.6561  0.1847 -0.1775
   24MOL    O3513421   4.145   2.441   5.398  0.3625  0.1489  0.4581
   24MOL    C3613422   4.106   2.454   5.537 -0.9768 -0.5629 -0.0534
   24MOL    C3713423   3.955   2.427   5.545 -0.1761 -0.1102 -0.6000
   24MOL    C3813424   3.861   2.553   5.545  0.1439  0.0778  0.2992
   24MOL    O3913425   3.882   2.629   5.428  0.5600 -0.0235  0.1914
   24MOL    C4013426   3.807   2.741   5.407  0.1627 -0.5452 -0.4175
   24MOL    O4113427   3.670   2.714   5.385 -0.7090 -0.2708  0.6336
   24MOL    C4213428   3.873   2.822   5.293  0.2091  0.2559 -0.3225
   24MOL    O4313429   3.870   2.955   5.321 -0.2094 -0.1966 -0.3404
   24MOL    H4413430   4.486   2.557   5.118 -0.7810  0.3862  0.0639
   24MOL    H4513431   4.490   2.390   5.160  2.4277 -0.8439  2.5992
   24MOL    H4613432   4.247   2.431   5.177 -0.3307  1.0549 -2.0968
   24MOL    H4713433   4.174   2.614   5.284  0.4249 -2.2947  1.6336
   24MOL    H4813434   4.314   2.334   5.397 -2.1143 -0.5107 -1.8199
   24MOL    H4913435   4.337   2.495   5.458 -1.8228  2.3268 -0.9431
   24MOL    H5013436   4.132   2.553   5.575  0.2849 -0.0315 -2.2010
   24MOL    H5113437   4.157   2.385   5.605  0.7580  0.1722 -0.5828
   24MOL    H5213438   3.928   2.373   5.636 -0.2716  0.8126 -0.0742
   24MOL    H5313439   3.934   2.354   5.467  3.1475 -2.6628  0.7657
   24MOL    H5413440   3.756   2.525   5.554  0.2917  0.0355  1.9365
   24MOL    H5513441   3.888   2.607   5.635 -1.2505 -1.2298  1.5090
   24MOL    H5613442   3.806   2.798   5.499  0.1093 -0.2772 -0.5819
   24MOL    H5713443   3.665   2.685   5.295 -0.9762  2.6174 -0.3713
   24MOL    H5813444   3.972   2.781   5.272  0.3914  1.1907 -1.3562
   24MOL    H5913445   3.814   2.803   5.204  1.7233  0.5659 -1.4251
   24MOL    C6013446   3.907   3.043   5.213  0.3084 -0.1332 -0.5375
   24MOL    C6113447   3.937   3.179   5.277 -0.3590  0.5643  0.1950
   24MOL    O6213448   3.821   3.247   5.327  0.1516 -0.2838  0.3319
   24MOL    C6313449   3.996   3.277   5.173 -0.3114 -0.3203 -0.1510
   24MOL    O6413450   3.919   3.298   5.059 -0.4487  0.5140  0.5240
   24MOL    C6513451   3.982   3.374   4.953  0.2627 -0.1091 -0.2368
   24MOL    C6613452   3.872   3.401   4.855 -0.4886  0.1597  0.4379
   24MOL    C6713453   3.813   3.274   4.799 -0.8169 -0.1527 -0.1069
   24MOL    O6813454   3.769   3.288   4.664  0.8807 -0.7638 -0.3358
   24MOL    C6913455   3.634   3.258   4.650  0.4322  0.7348 -0.0867
   24MOL    O7013456   3.555   3.371   4.692 -0.1384  0.2509 -0.4077
   24MOL    C7113457   3.600   3.245   4.496  0.7371 -1.2320 -0.2879
   24MOL    O7213458   3.599   3.109   4.472 -0.1788  0.2709 -0.2098
   24MOL    H7313459   3.823   3.045   5.144 -0.6119  2.9478  0.5839
   24MOL    H7413460   4.000   3.003   5.173 -0.0667 -1.5071 -0.0719
   24MOL    H7513461   3.999   3.155   5.363  2.4413  1.9060 -1.3707
   24MOL    H7613462   3.763   3.235   5.253  0.1463 -0.1478  0.3145
   24MOL    H7713463   4.000   3.379   5.212 -0.4499 -0.3215 -0.1320
   24MOL    H7813464   4.095   3.247   5.140 -0.2121 -0.7187  0.5136
   24MOL    H7913465   4.060   3.310   4.912 -0.5813 -0.4630 -1.3288
   24MOL    H8013466   4.023   3.470   4.985  0.6010 -0.7818  1.3989
   24MOL    H8113467   3.910   3.450   4.765 -0.6592 -1.8851 -0.7695
   24MOL    H8213468   3.795   3.470   4.891 -1.4665 -1.0477  0.6855
   24MOL    H8313469   3.731   3.236   4.859  0.0406 -0.9808  0.5423
   24MOL    H8413470   3.890   3.198   4.798 -0.4221  0.2128  1.2861
   24MOL    H8513471   3.610   3.164   4.700 -0.0516  0.8893 -0.0273
   24MOL    H8613472   3.556   3.439   4.626 -0.0278 -0.6290 -1.3263
   24MOL    H8713473   3.508   3.300   4.477  1.8211  1.5346  2.1256
   24MOL    H8813474   3.680   3.282   4.433  1.2596 -0.5442  0.7724
   24MOL    C8913475   3.577   3.069   4.345  0.0794 -0.5346  0.7209
   24MOL    C9013476   3.425   3.072   4.303 -0.4971  0.1847  0.8323
   24MOL    O9113477   3.418   3.201   4.244  0.6931  0.1157 -0.5165
   24MOL    C9213478   3.391   2.973   4.191  0.1653 -0.2693  0.9347
   24MOL    O9313479   3.250   2.970   4.167 -0.3321  0.3519 -0.8865
   24MOL    C9413480   3.195   3.070   4.081  0.2603 -0.2857  0.6040
   24MOL    C9513481   3.046   3.044   4.079  0.3362  0.8236 -0.1313
   24MOL    C9613482   2.960   3.135   3.989 -0.1729 -0.6616  0.4002
   24MOL    O9713483   2.829   3.086   3.977 -0.1414  0.4210 -0.2290
   24MOL    C9813484   2.745   3.168   3.905  0.2185  0.2011  0.3226
   24MOL    O9913485   2.772   3.161   3.762 -0.0241  0.1819  0.1700
   24MOL   C10013486   2.600   3.126   3.933 -0.1927 -0.3574 -0.3449
   24MOL   O10113487   2.550   3.177   4.055 -0.6444 -0.7003  0.1588
   24MOL   H10213488   3.612   2.966   4.354 -1.2026 -1.2708 -2.3281
   24MOL   H10313489   3.639   3.117   4.270 -1.7057 -2.3074 -1.9766
   24MOL   H10413490   3.356   3.045   4.382  0.1828 -3.6478  0.2366
   24MOL   H10513491   3.344   3.240   4.289 -0.4204 -1.5273 -0.8776
   24MOL   H10613492   3.458   2.998   4.108  0.5818  0.6185  1.5272
   24MOL   H10713493   3.422   2.873   4.219 -0.2293 -1.4402 -2.5620
   24MOL   H10813494   3.233   3.049   3.981  0.0366  1.2143  0.1929
   24MOL   H10913495   3.208   3.174   4.108 -0.5794 -0.2197  0.7773
   24MOL   H11013496   3.013   3.050   4.183  0.4996  1.8541 -0.1381
   24MOL   H11113497   3.034   2.938   4.055  2.1834  0.0046  2.3748
   24MOL   H11213498   2.963   3.241   4.014  0.4739 -0.7412  0.6813
   24MOL   H11313499   3.005   3.128   3.890 -1.7173  1.9345 -0.5341
   24MOL   H11413500   2.750   3.272   3.938 -2.5353  0.6021 -0.4041
   24MOL   H11513501   2.719   3.086   3.741 -0.6825  0.4494  0.8600
   24MOL   H11613502   2.540   3.170   3.853  1.1098  1.8669 -0.1504
   24MOL   H11713503   2.592   3.017   3.939 -1.6820 -0.2639 -0.3466
   24MOL   C11813504   2.438   3.116   4.100 -0.4435 -0.4700  0.5493
   24MOL   C11913505   2.398   3.194   4.226 -0.0804 -0.4697 -0.0434
   24MOL   O12013506   2.300   3.122   4.291  0.2870 -0.1268 -0.1509
   24MOL   C12113507   2.346   3.338   4.210 -0.0756 -0.2852 -0.6475
   24MOL   O12213508   2.240   3.345   4.111 -0.2204 -0.7957 -0.0196
   24MOL   C12313509   2.190   3.476   4.099 -0.1236  0.0006 -0.2525
   24MOL   C12413510   2.115   3.528   4.223 -0.3591  0.1835 -0.2653
   24MOL   C12513511   2.042   3.660   4.200 -0.3215  0.7031 -0.6785
   24MOL   O12613512   2.129   3.770   4.200  0.4029  0.0838 -0.0690
   24MOL   C12713513   2.144   3.844   4.320  0.1625  0.2343 -0.4374
   24MOL   O12813514   2.028   3.911   4.354 -0.1019  0.2602 -0.4134
   24MOL   C12913515   2.264   3.942   4.296  0.6064  0.6830  0.7339
   24MOL   O13013516   2.322   3.967   4.426 -0.1380  0.1019 -0.0364
   24MOL   H13113517   2.352   3.112   4.033 -0.4865  0.2684  0.5601
   24MOL   H13213518   2.448   3.012   4.133  0.4765 -0.6725 -0.3515
   24MOL   H13313519   2.482   3.203   4.295  1.0985  1.7617 -1.7054
   24MOL   H13413520   2.221   3.129   4.240  0.4027  0.3171 -0.2753
   24MOL   H13513521   2.314   3.358   4.312 -0.1553  0.3791 -0.7990
   24MOL   H13613522   2.425   3.410   4.190 -0.3362  1.4048  3.8331
   24MOL   H13713523   2.128   3.476   4.009  1.8061 -2.0208 -1.6361
   24MOL   H13813524   2.270   3.549   4.086 -0.7760  0.5602 -1.2342
   24MOL   H13913525   2.182   3.544   4.307 -1.2250  0.2028  0.4284
   24MOL   H14013526   2.051   3.446   4.255 -0.7189 -0.0440 -1.5196
   24MOL   H14113527   1.993   3.646   4.104 -1.4111 -0.7533  0.0637
   24MOL   H14213528   1.961   3.668   4.273  2.3087 -0.3460  2.4886
   24MOL   H14313529   2.169   3.778   4.403  1.6504 -0.2625 -1.2572
   24MOL   H14413530   2.056   3.970   4.421  0.3406 -1.6913  1.1800
   24MOL   H14513531   2.337   3.899   4.228  0.1805  1.1914 -0.0400
   24MOL   H14613532   2.231   4.035   4.252  0.4691 -0.3882 -1.4843
   24MOL   C14713533   2.451   4.028   4.429 -0.3349 -0.1218  0.4920
   24MOL   C14813534   2.521   4.008   4.568  0.7478  0.2061 -0.0526
   24MOL   O14913535   2.447   4.092   4.657  0.4761 -0.0129  0.5229
   24MOL   C15013536   2.662   4.063   4.563  0.3692 -0.4100  0.5401
   24MOL   O15113537   2.760   3.981   4.497 -0.0951  0.2844  0.2868
   24MOL   C15213538   2.850   3.915   4.590  0.4714 -0.0113  0.1175
   24MOL   C15313539   2.956   3.833   4.522 -0.4108 -0.4648 -0.5995
   24MOL   C15413540   3.073   3.792   4.603  0.7581  0.6592  0.5135
   24MOL   O15513541   3.018   3.730   4.719  0.5569 -0.2204 -0.0822
   24MOL   C15613542   3.106   3.723   4.828 -0.0033 -0.1624  0.5603
   24MOL   O15713543   3.196   3.613   4.823  0.4739 -0.2101  0.0933
   24MOL   C15813544   3.021   3.711   4.950  0.5520  0.6107 -0.1853
   24MOL   O15913545   3.077   3.758   5.075  0.5359  0.1075  0.1830
   24MOL   H16013546   2.441   4.134   4.405  0.7473 -0.3330 -0.9052
   24MOL   H16113547   2.507   3.983   4.348 -0.2882  1.6951 -0.5074
   24MOL   H16213548   2.510   3.901   4.583 -0.6395  0.3370 -0.0551
   24MOL   H16313549   2.451   4.181   4.627  2.2203 -0.3048 -0.1387
   24MOL   H16413550   2.670   4.159   4.512 -0.0217 -1.3410 -1.3331
   24MOL   H16513551   2.695   4.083   4.664 -1.4181 -0.7213  1.2118
   24MOL   H16613552   2.789   3.859   4.661 -2.5919  0.9160 -1.7011
   24MOL   H16713553   2.887   4.006   4.636  0.8321  0.2911 -0.7672
   24MOL   H16813554   2.981   3.892   4.433 -0.7891  0.9039  0.1915
   24MOL   H16913555   2.923   3.741   4.473 -0.5973 -0.2320 -0.9168
   24MOL   H17013556   3.135   3.719   4.551  0.2299 -0.7992  1.8821
   24MOL   H17113557   3.129   3.881   4.631  1.0693  0.7560 -0.4048
   24MOL   H17213558   3.161   3.816   4.840  1.2282 -0.6358 -1.2018
   24MOL   H17313559   3.170   3.550   4.888  0.0924  3.1638  3.4149
   24MOL   H17413560   2.935   3.773   4.924  1.5210  1.0605 -2.3898
   24MOL   H17513561   2.971   3.614   4.954  0.9168  0.2996 -2.5120
   24MOL   C17613562   3.000   3.727   5.185 -0.4400  0.3127  0.4612
   24MOL   C17713563   3.074   3.754   5.318 -0.2631 -0.1879  0.3739
   24MOL   O17813564   3.178   3.655   5.341  0.2553  0.6716  0.4927
   24MOL   C17913565   2.967   3.754   5.438 -0.4293  0.0193 -0.3803
   24MOL   O18013566   3.001   3.852   5.538  0.2457 -0.4395 -0.4140
   24MOL   C18113567   3.119   3.829   5.617 -0.6110  0.0541  0.6627
   24MOL   C18213568   3.131   3.941   5.720 -0.2526 -0.8085 -0.3753
   24MOL   C18313569   3.117   4.083   5.665  0.0460  0.6253  0.1182
   24MOL   O18413570   3.242   4.129   5.604  0.9002 -0.4912 -0.0210
   24MOL   C18513571   3.223   4.208   5.499  0.0772 -0.3731  0.5475
   24MOL   O18613572   3.158   4.152   5.389 -0.0724 -0.2235  0.1121
   24MOL   C18713573   3.364   4.269   5.465  0.1477  0.9970  1.0148
   24MOL   O18813574   3.363   4.406   5.516  0.8540  0.5073 -0.3874
   24MOL   H18913575   2.978   3.620   5.187 -1.8113  0.5702 -0.2422
   24MOL   H19013576   2.908   3.783   5.168 -0.3222  1.4540  3.3663
   24MOL   H19113577   3.110   3.857   5.321 -2.0482  0.5853 -2.6739
   24MOL   H19213578   3.219   3.642   5.258  1.2677 -2.0154  1.3666
   24MOL   H19313579   2.882   3.800   5.386 -0.8953 -0.3748  0.0299
   24MOL   H19413580   2.944   3.665   5.495 -1.4475  0.9112  0.6253
   24MOL   H19513581   3.204   3.841   5.550 -1.4023 -1.0374 -0.5731
   24MOL   H19613582   3.123   3.732   5.667 -0.5917  0.0663  0.6846
   24MOL   H19713583   3.212   3.931   5.792 -1.2176 -0.1157  0.8255
   24MOL   H19813584   3.043   3.931   5.785  1.4971  1.6024  2.4681
   24MOL   H19913585   3.033   4.092   5.596  0.8889  0.9663 -0.8655
   24MOL   H20013586   3.105   4.134   5.761  1.3223  2.9830 -0.9365
   24MOL   H20113587   3.160   4.295   5.521  1.1849  0.5393  0.1719
   24MOL   H20213588   3.067   4.139   5.408 -0.1427 -0.9438 -0.6797
   24MOL   H20313589   3.440   4.201   5.504 -0.9430 -0.0251  1.3767
   24MOL   H20413590   3.376   4.278   5.357 -0.2309  0.0568  0.8892
   24MOL   C20513591   3.428   4.415   5.639 -0.3896 -0.1030 -0.6787
   24MOL   C20613592   3.321   4.429   5.750 -0.4025  0.2568  0.5030
   24MOL   O20713593   3.378   4.440   5.879 -0.0062 -0.3076 -0.7162
   24MOL   C20813594   3.231   4.555   5.735  0.2650 -0.2680 -0.5763
   24MOL   O20913595   3.194   4.596   5.863  0.0174 -0.3556 -0.3212
   24MOL   C21013596   3.140   4.722   5.865 -0.2754 -0.2794 -0.1469
   24MOL   C21113597   3.139   4.781   6.007  0.2198  0.6313 -0.1236
   24MOL   C21213598   3.281   4.804   6.055  0.8071  0.2625  0.0262
   24MOL   O21313599   3.348   4.696   6.108 -0.0906  0.0968  0.1851
   24MOL   C21413600   3.319   4.660   6.241 -0.5178  0.3437 -1.0710
   24MOL   O21513601   3.367   4.758   6.339 -0.9677 -0.1256  0.4210
   24MOL   C21613602   3.380   4.516   6.277  0.0304 -0.2043  0.1765
   24MOL   O21713603   3.287   4.420   6.253 -0.2046 -0.1081  0.2360
   24MOL   H21813604   3.491   4.502   5.655  0.6708 -1.3140  1.9454
   24MOL   H21913605   3.492   4.331   5.665 -1.6750 -0.6607  0.7258
   24MOL   H22013606   3.254   4.344   5.746  0.1762 -0.2364  1.0734
   24MOL   H22113607   3.309   4.493   5.915 -0.6283 -0.1702 -2.1096
   24MOL   H22213608   3.289   4.633   5.685  1.1839  1.3164  2.8052
   24MOL   H22313609   3.142   4.539   5.674 -2.3680  1.5706  2.6110
   24MOL   H22413610   3.036   4.726   5.831 -0.3888  1.7391  0.3858
   24MOL   H22513611   3.199   4.793   5.808 -2.0066  0.9819 -0.3989
   24MOL   H22613612   3.071   4.729   6.074  1.4943 -0.0380  0.6699
   24MOL   H22713613   3.101   4.881   5.987  0.8156  0.9343  0.2194
   24MOL   H22813614   3.340   4.832   5.968  0.7097 -0.6622 -0.3429
   24MOL   H22913615   3.284   4.889   6.123  0.5504  0.7476 -0.5611
   24MOL   H23013616   3.210   4.659   6.242 -0.5391 -1.4312  1.2248
   24MOL   H23113617   3.450   4.792   6.310 -0.6391 -0.9503  0.3735
   24MOL   H23213618   3.477   4.504   6.229 -0.1636  0.5470 -0.4182
   24MOL   H23313619   3.395   4.512   6.385 -0.3157 -1.4928  0.1876
   24MOL   C23413620   3.343   4.290   6.290 -0.1363  0.6344 -0.6192
   24MOL   C23513621   3.255   4.177   6.252 -0.0141  0.5466 -0.2936
   24MOL   O23613622   3.290   4.051   6.308 -0.7157 -0.5709  0.1391
   24MOL   C23713623   3.267   4.152   6.101 -0.0196  0.4312  0.1502
   24MOL   O23813624   3.403   4.109   6.082  0.1270 -0.0404  0.0929
   24MOL   C23913625   3.427   4.097   5.941  0.7877  0.4320 -0.3060
   24MOL   C24013626   3.546   3.997   5.916  0.9152 -0.2475 -0.5915
   24MOL   C24113627   3.526   3.851   5.983  0.2516 -0.2609 -0.2299
   24MOL   O24213628   3.399   3.784   5.955  0.6599 -0.6337  0.0412
   24MOL   C24313629   3.375   3.661   6.012 -0.5698 -0.1889  0.2213
   24MOL   O24413630   3.450   3.570   5.945 -0.1034  0.3917 -0.7548
   24MOL   C24513631   3.230   3.621   5.994  0.0049  0.3808 -0.1798
   24MOL   O24613632   3.154   3.657   6.115  0.3860 -0.1691 -0.1554
   24MOL   H24713633   3.443   4.284   6.246  0.4744  1.3138  0.6655
   24MOL   H24813634   3.358   4.297   6.397 -0.4269  1.7226 -0.6471
   24MOL   H24913635   3.152   4.194   6.284 -0.3947  0.0027 -1.2281
   24MOL   H25013636   3.370   4.027   6.264  1.5740  4.5313  1.1484
   24MOL   H25113637   3.193   4.078   6.070  1.1271 -1.5778  2.0448
   24MOL   H25213638   3.251   4.248   6.052  3.8372  2.2116  2.1388
   24MOL   H25313639   3.458   4.196   5.907  2.4128  0.3344  0.8240
   24MOL   H25413640   3.345   4.073   5.874  2.5018 -2.6260 -1.4350
   24MOL   H25513641   3.631   4.046   5.964  1.7421 -2.4853  0.3116
   24MOL   H25613642   3.571   3.997   5.810 -2.2312  0.3865 -1.3591
   24MOL   H25713643   3.603   3.783   5.946 -0.4635 -1.5739  0.6596
   24MOL   H25813644   3.546   3.852   6.090 -0.3482  0.1996 -0.1227
   24MOL   H25913645   3.403   3.659   6.117  2.5020  0.8262 -0.5237
   24MOL   H26013646   3.420   3.568   5.855 -1.1462  1.2101 -0.4326
   24MOL   H26113647   3.196   3.667   5.901  1.4766  2.6712  0.3881
   24MOL   H26213648   3.230   3.512   5.989 -0.3367  0.3805 -0.2124
   24MOL   C26313649   3.127   3.800   6.134  0.1568  0.3047  0.0383
   24MOL   C26413650   3.017   3.824   6.243  0.1388 -0.8292 -0.1798
   24MOL   O26513651   3.076   3.838   6.369 -0.0239  0.1033 -0.2684
   24MOL   C26613652   2.917   3.941   6.232 -0.0466  0.0359  0.1181
   24MOL   O26713653   2.964   4.048   6.147 -0.3001  0.3322 -0.1475
   24MOL   C26813654   2.890   4.171   6.159  0.0643  0.7261  0.1332
   24MOL   C26913655   2.929   4.267   6.047  0.3074  0.2760 -1.0095
   24MOL   C27013656   2.863   4.224   5.912  0.3475 -0.5522 -0.2137
   24MOL   O27113657   2.912   4.306   5.803 -0.1532 -0.5842 -0.2596
   24MOL   C27213658   2.830   4.408   5.748  0.1161  0.4481 -0.2865
   24MOL   O27313659   2.712   4.353   5.691 -0.5199 -0.4120 -0.0724
   24MOL   C27413660   2.788   4.521   5.847  0.1789  0.7392 -0.4744
   24MOL   O27513661   2.717   4.619   5.767 -0.6231  1.0836 -0.2130
   24MOL   H27613662   3.109   3.851   6.040  0.9104  0.4358 -0.0344
   24MOL   H27713663   3.213   3.854   6.171  0.3747  0.7469 -1.1031
   24MOL   H27813664   2.950   3.739   6.257 -0.2401 -0.4269  0.5287
   24MOL   H27913665   3.125   3.918   6.364 -0.4071  0.4188  0.9534
   24MOL   H28013666   2.832   3.902   6.176  1.0418  0.0688 -1.5902
   24MOL   H28113667   2.884   3.965   6.333  3.3700 -0.8354  1.5181
   24MOL   H28213668   2.897   4.210   6.260  0.8293 -0.0746  0.4020
   24MOL   H28313669   2.783   4.156   6.149  0.1028  0.4153  0.1958
   24MOL   H28413670   3.036   4.281   6.034  0.8300 -3.2028 -0.8090
   24MOL   H28513671   2.888   4.364   6.075  0.3844  0.1045 -0.3026
   24MOL   H28613672   2.882   4.119   5.890  1.4392  0.0899 -2.5308
   24MOL   H28713673   2.754   4.234   5.905  0.4567 -0.0711 -1.3234
   24MOL   H28813674   2.898   4.448   5.673  0.9843 -0.8053 -0.1594
   24MOL   H28913675   2.650   4.423   5.678 -0.4222 -0.4374 -0.7091
   24MOL   H29013676   2.739   4.477   5.934  0.5510 -0.0704 -0.6714
   24MOL   H29113677   2.880   4.563   5.888 -0.1042  0.6805  0.2404
   24MOL   C29213678   2.654   4.717   5.850 -0.0680 -1.2851  0.5004
   24MOL   C29313679   2.749   4.814   5.933 -0.8092  0.3246  0.4012
   24MOL   O29413680   2.795   4.913   5.850 -0.1009 -0.2102  0.3886
   24MOL   C29513681   2.681   4.885   6.054  0.2485 -0.4036 -0.1209
   24MOL   O29613682   2.742   4.854   6.172 -0.0141  0.8999  0.5697
   24MOL   C29713683   2.857   4.937   6.200  0.3280 -0.0070 -0.0315
   24MOL   C29813684   2.904   4.906   6.342  0.0369 -0.2230 -0.2810
   24MOL   C29913685   3.047   4.963   6.366 -0.5240  0.6456 -0.0188
   24MOL   O30013686   3.080   4.988   6.501  0.3233  0.8630 -0.1987
   24MOL   C30113687   3.214   5.040   6.504  0.0890  0.1299 -0.5223
   24MOL   O30213688   3.209   5.173   6.454 -1.0640  0.2614 -0.4490
   24MOL   C30313689   3.289   5.040   6.642  0.4040 -0.0383 -0.6328
   24MOL   O30413690   3.414   4.979   6.620 -1.0984  0.1895  0.4183
   24MOL   H30513691   2.592   4.781   5.787 -0.3402 -1.7543  0.2890
   24MOL   H30613692   2.593   4.674   5.929 -0.3943 -1.4611  0.1488
   24MOL   H30713693   2.829   4.754   5.978 -1.6280 -0.3877  0.9246
   24MOL   H30813694   2.734   4.985   5.849  0.6055  0.4141 -1.4062
   24MOL   H30913695   2.650   4.984   6.018  0.9236  0.0827  0.6311
   24MOL   H31013696   2.585   4.836   6.072  0.7762 -1.5825 -0.4971
   24MOL   H31113697   2.818   5.038   6.209  1.5275  0.3784  0.9572
   24MOL   H31213698   2.934   4.915   6.126  0.3295  0.6514 -0.2274
   24MOL   H31313699   2.916   4.798   6.355 -2.1436 -0.2076  2.5338
   24MOL   H31413700   2.826   4.933   6.414  0.6572  1.9846 -0.4128
   24MOL   H31513701   3.115   4.888   6.325  1.5539  1.6718  1.4945
   24MOL   H31613702   3.052   5.062   6.320 -2.6416  1.1640  0.7942
   24MOL   H31713703   3.278   4.990   6.431 -1.5106  2.0741 -3.3413
   24MOL   H31813704   3.164   5.229   6.515 -0.2768 -0.1046  0.4823
   24MOL   H31913705   3.231   4.982   6.714  3.1883 -1.2558  0.6839
   24MOL   H32013706   3.305   5.142   6.677  1.0563 -0.5460  0.5523
   24MOL   C32113707   3.476   4.976   6.742 -0.6836 -0.6521 -0.2704
   24MOL   C32213708   3.622   4.957   6.746 -0.3734 -0.0593  0.5146
   24MOL   O32313709   3.683   4.970   6.875  0.4357  0.6515  0.4520
   24MOL   C32413710   3.656   4.819   6.686  0.2643 -0.6826 -0.8847
   24MOL   O32513711   3.601   4.718   6.764  0.1509 -0.2327  0.0456
   24MOL   C32613712   3.604   4.591   6.697 -0.6483  0.2141 -0.8822
   24MOL   C32713713   3.494   4.497   6.755  0.2255  0.1101  0.1539
   24MOL   C32813714   3.513   4.362   6.696 -0.1286  0.2231  0.0495
   24MOL   O32913715   3.390   4.293   6.674  0.1097  0.0001  0.0174
   24MOL   C33013716   3.399   4.155   6.651 -0.3377  0.9539 -0.0705
   24MOL   O33113717   3.462   4.089   6.761  0.6239  0.1565  0.4355
   24MOL   C33213718   3.258   4.098   6.641  0.0781  0.6302 -0.0062
   24MOL   O33313719   3.192   4.092   6.769 -0.4491  0.6327 -0.6522
   24MOL   H33413720   3.434   4.898   6.806 -1.8197  0.8385  0.8253
   24MOL   H33513721   3.447   5.066   6.795  0.1979 -0.8759  0.6011
   24MOL   H33613722   3.666   5.029   6.677 -0.6200 -1.9940 -1.7026
   24MOL   H33713723   3.665   4.897   6.933  0.4946  1.8099  1.9553
   24MOL   H33813724   3.760   4.798   6.663  0.0689 -1.1829 -1.3321
   24MOL   H33913725   3.611   4.817   6.586 -0.7225 -1.2228 -0.4365
   24MOL   H34013726   3.707   4.556   6.706  0.0603  2.5190  0.4352
   24MOL   H34113727   3.591   4.605   6.590 -0.1656  1.4089 -0.7869
   24MOL   H34213728   3.523   4.488   6.860 -0.0801  2.0540  0.4414
   24MOL   H34313729   3.396   4.545   6.743  0.4130  0.0302 -1.7606
   24MOL   H34413730   3.549   4.375   6.594 -0.9505  1.4733 -0.0874
   24MOL   H34513731   3.594   4.316   6.754  0.6753 -0.2129 -1.4095
   24MOL   H34613732   3.457   4.135   6.561 -0.6024 -0.9249  0.1507
   24MOL   H34713733   3.403   4.089   6.835  0.5976 -0.2999  0.4159
   24MOL   H34813734   3.203   4.153   6.565  1.3855  1.5715 -0.2985
   24MOL   H34913735   3.273   4.002   6.590  1.7697  0.5242  0.6319
   24MOL   C35013736   3.059   4.041   6.760 -0.1684 -0.0426 -0.4946
   24MOL   C35113737   2.989   4.023   6.897 -0.5935 -0.1363  0.0155
   24MOL   O35213738   2.885   4.110   6.906  0.8109  0.7704  0.0396
   24MOL   C35313739   2.913   3.894   6.907  0.4171 -0.0432 -0.7633
   24MOL   O35413740   2.859   3.879   7.033 -0.0286 -0.1776  0.2125
   24MOL   C35513741   2.959   3.823   7.115  0.0363  0.4278 -0.3144
   24MOL   C35613742   2.912   3.807   7.258  0.4891 -0.3394 -0.2638
   24MOL   C35713743   3.007   3.751   7.358 -0.0370 -0.3023 -0.1587
   24MOL   O35813744   2.928   3.700   7.470 -1.0548 -0.2543 -0.6043
   24MOL   C35913745   3.003   3.627   7.566 -0.5355  0.1240 -0.3064
   24MOL   O36013746   3.087   3.716   7.637  0.0300  0.2076  0.0932
   24MOL   C36113747   2.905   3.555   7.655 -0.4654 -1.0842 -0.8724
   24MOL   O36213748   2.803   3.649   7.692  0.2160  0.5535 -0.6086
   24MOL   H36313749   3.050   3.946   6.706 -1.8478 -0.2683  0.1744
   24MOL   H36413750   3.000   4.105   6.695  0.5552  1.1753  0.0304
   24MOL   H36513751   3.054   4.052   6.980 -0.7754  0.8436 -0.1701
   24MOL   H36613752   2.849   4.104   6.993 -1.1195  0.2435 -0.7823
   24MOL   H36713753   2.834   3.900   6.832 -0.1615  1.2255 -0.0712
   24MOL   H36813754   2.969   3.805   6.877  2.4366  1.1783 -0.7791
   24MOL   H36913755   3.045   3.889   7.121 -2.6000  4.0200 -0.7050
   24MOL   H37013756   3.000   3.727   7.082 -0.1471  0.0072  0.6555
   24MOL   H37113757   2.834   3.732   7.267  1.5070 -1.2613  1.1438
   24MOL   H37213758   2.875   3.903   7.294 -1.6952 -0.8124 -1.1984
   24MOL   H37313759   3.077   3.676   7.320 -0.9991  0.0016 -2.6062
   24MOL   H37413760   3.065   3.834   7.399  0.3603  0.1961 -1.7005
   24MOL   H37513761   3.071   3.558   7.516 -0.8136  0.8292 -1.6844
   24MOL   H37613762   3.029   3.768   7.691 -1.4842 -0.7040 -0.6414
   24MOL   H37713763   2.868   3.467   7.604  0.0234 -1.5196 -0.4769
   24MOL   H37813764   2.959   3.523   0.050 -2.7166 -0.8364  0.6382
   24MOL   C37913765   2.715   3.608   0.096  0.3094  0.4295  0.5295
   24MOL   C38013766   2.629   3.482   0.052  0.8128 -0.1007 -0.3117
   24MOL   O38113767   2.667   3.361   0.098 -0.0425  1.5288 -0.1484
   24MOL   C38213768   2.482   3.495   0.090  0.4134 -0.0431 -0.2235
   24MOL   O38313769   2.470   3.497   0.234 -0.0182  0.1335 -0.2015
   24MOL   C38413770   2.351   3.550   0.287  0.6453 -0.0054 -0.1336
   24MOL   C38513771   2.336   3.532   0.439  0.2164 -0.2105 -0.1218
   24MOL   C38613772   2.444   3.616   0.499  0.5410 -0.0462  0.1436
   24MOL   O38713773   2.411   3.614   0.635  0.1470 -0.4718 -0.2996
   24MOL   C38813774   2.519   3.647   0.728  0.6067 -0.9971 -0.4086
   24MOL   O38913775   2.578   3.772   0.703 -0.2902 -0.1422 -0.0056
   24MOL   C39013776   2.467   3.646   0.874 -0.0003  0.0989  0.2426
   24MOL   O39113777   2.583   3.618   0.952  0.8280 -0.1164 -0.6473
   24MOL   H39213778   2.651   3.695   0.113 -1.7290 -0.9512  0.2203
   24MOL   H39313779   2.764   3.586   0.191 -0.3757 -0.5468  0.6699
   24MOL   H39413780   2.624   3.460   7.640  1.0477 -1.6255 -0.0252
   24MOL   H39513781   2.675   3.368   0.192  0.9037 -2.0471  0.1041
   24MOL   H39613782   2.458   3.596   0.059  0.0461  0.1552  0.6816
   24MOL   H39713783   2.424   3.416   0.041  2.0578 -2.8651  2.1641
   24MOL   H39813784   2.265   3.502   0.238  1.3205 -0.5791 -0.7803
   24MOL   H39913785   2.336   3.656   0.268 -0.5449 -0.2139 -0.3961
   24MOL   H40013786   2.349   3.427   0.464 -0.5514 -0.6715 -1.6260
   24MOL   H40113787   2.237   3.553   0.478 -0.5492 -3.9589  0.0768
   24MOL   H40213788   2.538   3.568   0.474  1.3670  1.7683 -0.3459
   24MOL   H40313789   2.438   3.717   0.458  2.3908 -0.0472 -0.1681
   24MOL   H40413790   2.596   3.570   0.722  0.8456 -0.8072  0.2538
   24MOL   H40513791   2.650   3.775   0.764  1.5268 -1.5043 -2.0044
   24MOL   H40613792   2.419   3.736   0.911 -2.9959 -0.9789 -0.8256
   24MOL   H40713793   2.398   3.561   0.874 -0.8470  0.7744 -0.5761
   24MOL   C40813794   2.545   3.604   1.087  0.8515  0.6910  0.9033
   24MOL   C40913795   2.671   3.581   1.173  0.4789  0.6139  0.3940
   24MOL   O41013796   2.774   3.670   1.125 -0.5508  0.4121 -0.1784
   24MOL   C41113797   2.734   3.444   1.161 -0.0239  0.0271  0.1354
   24MOL   O41213798   2.752   3.396   1.022 -0.4512 -0.1786  0.2281
   24MOL   C41313799   2.774   3.254   1.022 -0.3213 -0.0604  0.1945
   24MOL   C41413800   2.800   3.216   0.876 -0.0100  0.4119  0.5431
   24MOL   C41513801   2.673   3.217   0.794  0.1180 -0.3439  0.8279
   24MOL   O41613802   2.712   3.204   0.656  0.0719  0.7043  0.2336
   24MOL   C41713803   2.609   3.225   0.561 -0.3871 -0.4811 -0.2895
   24MOL   O41813804   2.537   3.107   0.538  0.1460 -0.4255  0.1558
   24MOL   C41913805   2.666   3.274   0.426  0.0738  0.1007 -0.6959
   24MOL   O42013806   2.716   3.407   0.427 -0.1603  0.1343 -0.9451
   24MOL   H42113807   2.481   3.517   1.099  0.3802  0.8058 -0.7369
   24MOL   H42213808   2.504   3.699   1.122 -2.0613 -0.6144  1.1677
   24MOL   H42313809   2.642   3.602   1.276 -0.2426  0.8709  0.1432
   24MOL   H42413810   2.803   3.660   1.035  0.9624  1.5049  0.1574
   24MOL   H42513811   2.835   3.436   1.203 -0.2362 -1.3939  0.4072
   24MOL   H42613812   2.672   3.376   1.220  0.1309 -0.0303  0.2332
   24MOL   H42713813   2.866   3.242   1.080 -1.1754  2.1673  2.0899
   24MOL   H42813814   2.692   3.201   1.070 -1.3927  0.3724 -1.1288
   24MOL   H42913815   2.845   3.117   0.872  1.4613  1.1486 -1.9559
   24MOL   H43013816   2.869   3.285   0.828 -0.5419 -0.2873 -1.2521
   24MOL   H43113817   2.608   3.131   0.806 -0.9156 -0.1840 -2.8781
   24MOL   H43213818   2.610   3.304   0.814  1.6383  0.5908  1.6531
   24MOL   H43313819   2.535   3.295   0.601  0.2561 -0.6895  1.3261
   24MOL   H43413820   2.469   3.094   0.602 -0.2697  0.0263 -0.1847
   24MOL   H43513821   2.742   3.200   0.401  0.4431 -0.5180  2.0711
   24MOL   H43613822   2.581   3.278   0.357 -0.3822 -4.7601 -0.5354
   24MOL   C43713823   2.799   3.443   0.539 -0.1544  0.6385 -0.5473
   24MOL   C43813824   2.833   3.589   0.527  0.2496 -0.1547 -0.3160
   24MOL   O43913825   2.943   3.603   0.439  0.4660  0.0318 -0.4699
   24MOL   C44013826   2.889   3.638   0.663  0.3499 -0.0615 -0.1372
   24MOL   O44113827   2.905   3.782   0.657  0.4641  0.1997  0.3626
   24MOL   C44213828   2.983   3.829   0.758 -0.6728 -0.5144 -0.2984
   24MOL   C44313829   3.043   3.971   0.739  0.1881  0.5969 -0.2589
   24MOL   C44413830   3.148   3.999   0.843  0.2644 -0.6266 -0.4316
   24MOL   O44513831   3.207   4.130   0.841  0.5892  0.3019 -0.1413
   24MOL   C44613832   3.303   4.148   0.942 -0.6985 -0.3643 -0.0743
   24MOL   O44713833   3.237   4.158   1.070  0.2142 -0.3181 -0.4352
   24MOL   C44813834   3.392   4.269   0.901 -0.0212  0.9021  0.1832
   24MOL   O44913835   3.492   4.235   0.800  0.4235  0.0623  0.1168
   24MOL   H45013836   2.730   3.434   0.623  0.4914  1.0386  0.0268
   24MOL   H45113837   2.887   3.380   0.556 -1.3204 -0.5454  1.2395
   24MOL   H45213838   2.745   3.650   0.504 -0.9229 -1.0756  1.6176
   24MOL   H45313839   2.973   3.692   0.433  0.6149 -0.1005 -1.9213
   24MOL   H45413840   2.829   3.617   0.752 -0.2649  3.9665  0.4862
   24MOL   H45513841   2.983   3.588   0.687 -0.1781 -1.0038 -0.0092
   24MOL   H45613842   3.062   3.755   0.767  0.1556  0.1464 -2.0223
   24MOL   H45713843   2.939   3.814   0.857 -2.3230 -1.8642 -1.2068
   24MOL   H45813844   2.971   4.052   0.748 -1.3233 -0.5223 -1.8622
   24MOL   H45913845   3.091   3.976   0.642  1.0966  1.4535  0.2292
   24MOL   H46013846   3.100   3.981   0.939  2.0734 -1.3114  0.3797
   24MOL   H46113847   3.225   3.922   0.845  1.3586  0.4512  0.1456
   24MOL   H46213848   3.377   4.068   0.949  1.2278  1.4941  1.2737
   24MOL   H46313849   3.197   4.244   1.071 -1.5295 -1.0439 -2.2946
   24MOL   H46413850   3.331   4.356   0.875 -0.9045  0.2223 -0.0354
   24MOL   H46513851   3.456   4.297   0.984  0.8705 -1.2670  0.2627
   24MOL   C46613852   3.529   4.358   0.736 -0.4303 -0.2473  0.1883
   24MOL   C46713853   3.659   4.333   0.657 -0.1870 -0.1232  0.4793
   24MOL   O46813854   3.621   4.240   0.560 -0.5844 -0.8730  0.6322
   24MOL   C46913855   3.722   4.461   0.600  0.2580  0.3535 -0.2406
   24MOL   O47013856   3.855   4.416   0.560 -0.4828  0.5905  1.0800
   24MOL   C47113857   3.903   4.502   0.454  0.5464 -0.0349 -0.6519
   24MOL   C47213858   4.052   4.517   0.469  0.7679  0.8078 -0.1213
   24MOL   C47313859   4.112   4.633   0.388 -0.6897 -0.3096 -0.3738
   24MOL   O47413860   4.238   4.689   0.435  0.2220  0.2490 -0.2983
   24MOL   C47513861   4.343   4.590   0.434 -0.7894 -0.3130  0.5960
   24MOL   O47613862   4.356   4.512   0.552  0.2420  0.2797  0.0508
   24MOL   C47713863   4.468   4.671   0.410 -0.1119  0.1170  0.1030
   24MOL   O47813864   4.460   4.734   0.283  0.2504 -0.0843 -0.3832
   24MOL   H47913865   3.536   4.441   0.806 -0.8778 -0.8457  0.9424
   24MOL   H48013866   3.458   4.386   0.658 -1.0755 -0.1293  0.8150
   24MOL   H48113867   3.735   4.287   0.722 -0.2848 -0.4196  0.3848
   24MOL   H48213868   3.552   4.188   0.597  0.0551  0.2582  3.5980
   24MOL   H48313869   3.660   4.498   0.518  0.5473  2.4130  0.4486
   24MOL   H48413870   3.724   4.531   0.683 -2.3164  1.1802 -0.8344
   24MOL   H48513871   3.856   4.600   0.460  1.3265  0.3020  0.0081
   24MOL   H48613872   3.877   4.457   0.358 -1.0486  0.1918 -0.3519
   24MOL   H48713873   4.100   4.427   0.432  0.6893  0.0267  1.6205
   24MOL   H48813874   4.081   4.521   0.574  1.8630 -2.8737 -0.2315
   24MOL   H48913875   4.129   4.605   0.284  1.0776  4.1637 -1.4111
   24MOL   H49013876   4.039   4.714   0.382  0.5558  0.8580  0.0381
   24MOL   H49113877   4.314   4.520   0.355 -1.9855  0.1352  0.6312
   24MOL   H49213878   4.401   4.431   0.536  0.2054  0.6468 -2.1745
   24MOL   H49313879   4.481   4.738   0.495  0.6022  1.2498 -0.8726
   24MOL   H49413880   4.552   4.602   0.416 -0.5331 -0.3075  1.2849
   24MOL   C49513881   4.591   4.783   0.253  0.0993  0.3500  0.5109
   24MOL   C49613882   4.603   4.846   0.120  0.0193  0.5185 -0.0915
   24MOL   O49713883   4.587   4.983   0.122  0.0478  0.7480  0.0884
   24MOL   C49813884   4.741   4.816   0.052  0.7734  0.6623  0.2311
   24MOL   O49913885   4.719   4.814   7.603 -0.0729  0.7693  0.1963
   24MOL   C50013886   4.840   4.822   7.532 -0.3905  0.1518  0.7678
   24MOL   C50113887   4.810   4.791   7.384  0.3902 -0.0040 -0.4146
   24MOL   C50213888   4.915   4.821   7.285 -0.2692  0.0598 -0.1070
   24MOL   O50313889   5.040   4.764   7.326 -0.0082 -0.4313  0.1560
   24MOL   C50413890   5.145   4.797   7.242  0.5061  0.1718  0.0569
   24MOL   O50513891   5.131   4.758   7.109  0.4580 -0.4897  0.5316
   24MOL   C50613892   5.268   4.720   7.297 -0.1313 -0.5117  0.3300
   24MOL   O50713893   5.330   4.779   7.411 -0.3242 -0.4868  0.3817
   24MOL   H50813894   4.647   4.689   0.258 -1.3642 -0.4435  3.2223
   24MOL   H50913895   4.640   4.850   0.323  1.6706 -1.3560  1.0648
   24MOL   H51013896   4.526   4.795   0.062  1.4707  0.2915 -1.8554
   24MOL   H51113897   4.493   4.992   0.128  0.1375  1.2745  0.8470
   24MOL   H51213898   4.808   4.898   0.078  0.1381  0.9858  0.8725
   24MOL   H51313899   4.791   4.726   0.087 -0.7352  0.2336  1.3246
   24MOL   H51413900   4.914   4.749   7.566 -0.7725 -0.8141 -0.4268
   24MOL   H51513901   4.877   4.924   7.539  0.2101  0.0850 -1.0361
   24MOL   H51613902   4.722   4.846   7.350  0.9940  1.1914 -0.0724
   24MOL   H51713903   4.792   4.685   7.372 -1.6906  0.3067 -0.3240
   24MOL   H51813904   4.887   4.783   7.186  1.3794 -0.7058 -0.2921
   24MOL   H51913905   4.932   4.928   7.282  2.5525 -0.2964  1.5335
   24MOL   H52013906   5.153   4.905   7.249 -1.5391  0.2281  2.2671
   24MOL   H52113907   5.083   4.677   7.099  1.4664 -1.2660  1.7590
   24MOL   H52213908   5.240   4.616   7.317 -2.1246  0.6338  4.0299
   24MOL   H52313909   5.350   4.715   7.225  1.0742 -0.2936  1.6846
   24MOL   C52413910   5.271   4.750   7.535  0.0632  0.1466 -0.1998
   24MOL   C52513911   5.364   4.799   7.654 -0.3924 -0.2653 -0.5728
   24MOL   O52613912   5.317   4.737   0.078 -0.1170 -0.0493 -0.0768
   24MOL   C52713913   5.352   4.951   7.682 -0.6885 -0.2566 -0.2574
   24MOL   O52813914   5.216   4.989   0.029 -0.3736 -0.4792  0.3033
   24MOL   C52913915   5.210   5.122   0.073  0.2749 -0.4540 -0.1295
   24MOL   C53013916   5.062   5.138   0.131 -0.0742  0.3570  0.3436
   24MOL   C53113917   5.035   5.263   0.215 -0.4150 -0.3144 -1.2403
   24MOL   O53213918   4.923   5.245   0.306  0.1475  0.6132 -0.0282
   24MOL   C53313919   4.807   5.296   0.249  0.2735 -0.8132  0.1308
   24MOL   O53413920   4.761   5.229   0.136  0.1480  0.5569 -0.1579
   24MOL   C53513921   4.696   5.317   0.346 -0.4381  0.2891 -0.7562
   24MOL   O53613922   4.638   5.189   0.380 -0.1218 -0.1071  0.0266
   24MOL   H53713923   5.253   4.642   7.538 -0.1583  0.0804 -2.4120
   24MOL   H53813924   5.179   4.809   7.532  1.3953  2.3309  1.2528
   24MOL   H53913925   5.463   4.758   7.637 -0.3948  0.0528 -1.3503
   24MOL   H54013926   5.245   4.784   0.117 -0.9735 -1.0050 -0.4870
   24MOL   H54113927   5.423   4.976   0.066 -0.8443 -0.0401 -0.1859
   24MOL   H54213928   5.383   5.007   7.593  2.7390 -0.1424  0.9112
   24MOL   H54313929   5.230   5.185   7.682  0.2783  1.2890  1.1349
   24MOL   H54413930   5.288   5.130   0.149 -0.0481  0.6375  0.0912
   24MOL   H54513931   5.034   5.050   0.189  1.8399  1.1989  2.6774
   24MOL   H54613932   4.985   5.130   0.055  0.7346  0.4886 -0.4961
   24MOL   H54713933   5.122   5.274   0.280 -0.5090  0.7356 -1.2807
   24MOL   H54813934   5.043   5.342   0.140  2.6941  2.5061  1.8614
   24MOL   H54913935   4.836   5.394   0.212 -0.8639 -0.5060  0.0489
   24MOL   H55013936   4.710   5.157   0.170  0.7213 -0.3150 -1.1310
   24MOL   H55113937   4.736   5.366   0.435  1.5050  0.5221 -1.7241
   24MOL   H55213938   4.608   5.377   0.321 -0.8597  0.5131  1.1761
   24MOL   C55313939   4.716   5.104   0.464 -0.6849  0.3600  0.0484
   24MOL   C55413940   4.622   5.045   0.565 -0.3617 -0.1292 -0.2677
   24MOL   O55513941   4.599   5.149   0.655  0.3846 -0.2490 -0.1529
   24MOL   C55613942   4.685   4.931   0.643  0.6941 -0.1429 -0.4492
   24MOL   O55713943   4.587   4.839   0.685 -0.6453 -0.3867  0.4151
   24MOL   C55813944   4.637   4.712   0.744 -0.8861  0.2772  0.1397
   24MOL   C55913945   4.696   4.741   0.878 -0.1007 -0.9312 -0.2182
   24MOL   C56013946   4.710   4.609   0.961 -0.3495 -0.2452  0.1587
   24MOL   O56113947   4.755   4.651   1.090 -0.8582 -0.3813 -0.0298
   24MOL   C56213948   4.778   4.560   1.192  0.1871 -0.4157 -0.2677
   24MOL   O56313949   4.894   4.481   1.169 -0.4123  0.3613  0.3146
   24MOL   C56413950   4.802   4.638   1.317  0.1866 -1.0946 -0.0643
   24MOL   O56513951   4.855   4.547   1.412  0.1241 -0.7243  0.4025
   24MOL   H56613952   4.796   5.165   0.506 -0.3237  0.0103 -0.1328
   24MOL   H56713953   4.761   5.024   0.405  2.0515  1.2599  0.8128
   24MOL   H56813954   4.527   5.008   0.525 -0.1898 -0.9963  0.1068
   24MOL   H56913955   4.558   5.222   0.613 -1.5080  0.6264  3.0415
   24MOL   H57013956   4.751   4.876   0.577  0.0684  0.2001 -1.3818
   24MOL   H57113957   4.744   4.963   0.729  0.1509 -1.6033  0.4835
   24MOL   H57213958   4.551   4.646   0.747  0.4040 -1.5234 -1.5856
   24MOL   H57313959   4.712   4.670   0.678  0.1256  0.4853  1.1299
   24MOL   H57413960   4.635   4.809   0.938  0.0456 -0.3667 -0.7062
   24MOL   H57513961   4.800   4.772   0.873  1.2633 -5.1635 -0.7142
   24MOL   H57613962   4.610   4.570   0.979 -0.2951  0.2323  1.5380
   24MOL   H57713963   4.782   4.535   0.924 -1.1774 -1.4369  0.8985
   24MOL   H57813964   4.696   4.489   1.195  0.0729 -0.2910 -0.4265
   24MOL   H57913965   4.927   4.461   1.256  0.4851  0.6777  0.0557
   24MOL   H58013966   4.867   4.723   1.296  2.2871 -2.2879  1.3741
   24MOL   H58113967   4.708   4.684   1.347  0.7137 -0.7098  0.9884
   24MOL   H58213968   4.791   4.543   1.481  1.0359 -0.8719  1.2469
   25MOL     C113969   4.338   5.874   1.869 -0.3589  0.4191  0.5186
   25MOL     C213970   4.246   5.789   1.784 -0.0572  0.3362  0.3643
   25MOL     O313971   4.127   5.763   1.860 -0.1910  0.0241  0.8420
   25MOL     C413972   4.219   5.865   1.652 -0.0611  0.2688  0.0472
   25MOL     O513973   4.162   5.771   1.567  1.0506  0.2293  0.4094
   25MOL     C613974   4.111   5.836   1.451  0.4265  0.8018 -0.0445
   25MOL     C713975   4.028   5.740   1.367  0.2788  0.1851  0.4156
   25MOL     C813976   3.988   5.808   1.231  0.0334 -0.1672 -0.3170
   25MOL     O913977   3.877   5.742   1.184  0.8091  0.2347  0.2027
   25MOL    C1013978   3.842   5.782   1.055  0.3009  0.4145  0.0321
   25MOL    O1113979   3.808   5.918   1.046 -0.0341 -0.1728 -0.4347
   25MOL    C1213980   3.720   5.698   1.021  0.5305 -0.4232  0.4830
   25MOL    O1313981   3.757   5.560   1.018 -0.3662  0.0819 -0.4564
   25MOL    H1413982   4.429   5.895   1.812 -0.5067  2.1987  0.9207
   25MOL    H1513983   4.350   5.821   1.964 -1.5746  1.8393  1.4844
   25MOL    H1613984   4.294   5.692   1.772  0.8698  0.9089 -0.6544
   25MOL    H1713985   4.057   5.739   1.801 -0.9790  1.6365  1.0986
   25MOL    H1813986   4.151   5.948   1.668  0.5388  0.9312 -0.8014
   25MOL    H1913987   4.317   5.895   1.613 -0.4435 -1.5074 -2.4079
   25MOL    H2013988   4.191   5.874   1.386  1.5243 -0.6737  0.4073
   25MOL    H2113989   4.056   5.927   1.475 -0.3250  1.5577 -4.1978
   25MOL    H2213990   3.945   5.701   1.425  0.9262  0.5605  1.6032
   25MOL    H2313991   4.087   5.651   1.343  0.3653 -0.0407  1.4743
   25MOL    H2413992   3.964   5.912   1.253 -0.6537 -0.2841 -0.5018
   25MOL    H2513993   4.075   5.812   1.166 -0.4921 -3.3141 -1.3058
   25MOL    H2613994   3.924   5.756   0.988 -1.0336 -2.9417 -0.4188
   25MOL    H2713995   3.887   5.969   1.043  0.3819 -0.6805  1.4144
   25MOL    H2813996   3.636   5.724   1.086 -0.9901  2.4761 -2.4508
   25MOL    H2913997   3.690   5.732   0.922  0.8848 -0.7894  0.2512
   25MOL    H3013998   4.288   5.965   1.901  2.0927  1.3545  1.8881
   25MOL    C3113999   3.653   5.466   1.050  0.4716  0.1298  0.1150
   25MOL    C3214000   3.642   5.463   1.201 -0.4516  0.0761 -0.8566
   25MOL    O3314001   3.769   5.457   1.254 -0.0488 -0.9082 -0.2466
   25MOL    C3414002   3.563   5.335   1.248  0.9398  0.5640 -0.4408
   25MOL    O3514003   3.426   5.341   1.210 -0.0684 -0.1607 -0.4661
   25MOL    C3614004   3.336   5.271   1.291  0.1708 -0.0641  0.6055
   25MOL    C3714005   3.209   5.247   1.208 -0.9462  0.1479 -0.4357
   25MOL    C3814006   3.133   5.381   1.170 -0.3116 -0.0941 -1.0828
   25MOL    O3914007   3.010   5.335   1.114  0.7629  0.0756  0.2520
   25MOL    C4014008   2.933   5.422   1.044  0.2172 -0.1573  0.7041
   25MOL    O4114009   2.890   5.532   1.120  0.6958  0.2651 -0.5225
   25MOL    C4214010   2.816   5.336   0.994 -0.3446 -0.5074  0.0110
   25MOL    O4314011   2.845   5.282   0.862 -0.7145 -0.0405 -0.1361
   25MOL    H4414012   3.566   5.482   0.986 -0.2971 -1.3668  0.7783
   25MOL    H4514013   3.689   5.367   1.021 -1.1030 -0.4837  0.2340
   25MOL    H4614014   3.586   5.543   1.249  1.5140 -0.1747  2.0171
   25MOL    H4714015   3.818   5.525   1.210 -0.0167 -0.8938 -0.1877
   25MOL    H4814016   3.611   5.244   1.211  0.2850 -0.6746  1.7070
   25MOL    H4914017   3.565   5.326   1.356 -1.2569  1.4225 -0.3155
   25MOL    H5014018   3.304   5.332   1.376  0.0208 -1.5637  1.6581
   25MOL    H5114019   3.379   5.174   1.316  0.6576 -0.8375 -3.0251
   25MOL    H5214020   3.145   5.181   1.267  2.3056 -1.2024  1.7171
   25MOL    H5314021   3.218   5.193   1.114 -1.5638  1.7495 -1.4365
   25MOL    H5414022   3.120   5.448   1.255  1.1061 -0.3657 -0.6551
   25MOL    H5514023   3.197   5.440   1.105 -0.5293 -1.1182 -2.2519
   25MOL    H5614024   2.991   5.474   0.968  1.2018 -2.2672 -0.0032
   25MOL    H5714025   2.824   5.505   1.182 -0.4272  0.6787 -1.5418
   25MOL    H5814026   2.808   5.248   1.059 -2.8716  0.4204  1.0291
   25MOL    H5914027   2.727   5.399   0.989  0.2347  0.2333 -1.1141
   25MOL    C6014028   2.794   5.377   0.763 -0.3027  0.0668  0.2738
   25MOL    C6114029   2.834   5.320   0.624  0.0655 -0.2351 -0.3557
   25MOL    O6214030   2.976   5.332   0.628 -0.3332 -0.3694 -0.0096
   25MOL    C6314031   2.779   5.396   0.500  0.4648 -0.1709  0.3369
   25MOL    O6414032   2.643   5.364   0.470  0.0926 -0.3636 -0.4490
   25MOL    C6514033   2.629   5.231   0.413 -0.2177  0.1245 -0.1633
   25MOL    C6614034   2.490   5.238   0.359  0.4417  0.0147  0.0583
   25MOL    C6714035   2.451   5.104   0.293  0.0001  0.3588 -0.5697
   25MOL    O6814036   2.436   4.996   0.390 -0.0840 -0.1242 -0.4836
   25MOL    C6914037   2.470   4.872   0.346  0.2564 -0.1549  0.4717
   25MOL    O7014038   2.600   4.832   0.391  0.4284 -0.5037  0.3614
   25MOL    C7114039   2.362   4.770   0.394  0.6137  0.9394 -0.0572
   25MOL    O7214040   2.231   4.816   0.383 -0.4559  1.0017 -0.1580
   25MOL    H7314041   2.823   5.482   0.773  0.2476  0.0121 -0.7872
   25MOL    H7414042   2.685   5.378   0.760 -0.3003  1.4541  0.2166
   25MOL    H7514043   2.806   5.215   0.622  0.1676 -0.2768  0.4264
   25MOL    H7614044   3.006   5.293   0.709 -0.7199  0.0619  0.3433
   25MOL    H7714045   2.791   5.503   0.518  0.5728 -0.0713 -0.3174
   25MOL    H7814046   2.854   5.371   0.424 -1.8016 -2.2907 -1.2967
   25MOL    H7914047   2.640   5.150   0.485 -0.5175  0.2815  0.0628
   25MOL    H8014048   2.700   5.209   0.333 -1.6245 -0.9050 -1.1493
   25MOL    H8114049   2.495   5.321   0.288  0.0039 -1.0815 -1.2839
   25MOL    H8214050   2.416   5.271   0.432  1.0941 -0.9485  1.1694
   25MOL    H8314051   2.523   5.086   0.212  0.6062 -2.5315  0.5616
   25MOL    H8414052   2.355   5.120   0.243 -0.1061  2.2930  0.1794
   25MOL    H8514053   2.468   4.865   0.237 -1.4389  0.4371  0.4527
   25MOL    H8614054   2.659   4.895   0.353  0.1173 -1.0394 -1.0501
   25MOL    H8714055   2.361   4.688   0.322 -1.8662  1.3367 -0.5029
   25MOL    H8814056   2.393   4.744   0.495 -0.3934  3.1467  0.8435
   25MOL    C8914057   2.176   4.865   0.502 -0.2948  0.5330  0.4910
   25MOL    C9014058   2.027   4.894   0.504 -0.2751  0.3486 -0.7263
   25MOL    O9114059   1.950   4.779   0.520  0.2183  0.1236  0.1239
   25MOL    C9214060   1.985   4.978   0.622  0.1606  0.2672  0.2208
   25MOL    O9314061   2.012   4.908   0.745  0.0150 -0.1132  0.0893
   25MOL    C9414062   1.976   4.972   0.862  1.0166  0.0087  0.5002
   25MOL    C9514063   2.039   4.908   0.981  0.0989  0.4192  0.2424
   25MOL    C9614064   2.048   5.010   1.103  0.2914  0.5388 -0.1066
   25MOL    O9714065   2.138   4.966   1.206 -0.1287 -0.0966  0.1673
   25MOL    C9814066   2.108   4.877   1.306 -0.0664  1.0176  0.0517
   25MOL    O9914067   2.100   4.747   1.260  0.1591 -0.1900 -0.3333
   25MOL   C10014068   2.217   4.884   1.418  0.4505 -0.5454  0.8215
   25MOL   O10114069   2.351   4.874   1.356  0.0566 -0.4963  0.4674
   25MOL   H10214070   2.226   4.960   0.524  0.4465  0.3621 -0.4286
   25MOL   H10314071   2.207   4.816   0.594  2.8220  1.9780  0.2676
   25MOL   H10414072   1.999   4.943   0.411 -0.8839 -2.6667 -2.1603
   25MOL   H10514073   1.943   4.763   0.613  0.1161  1.5382  0.3623
   25MOL   H10614074   2.030   5.078   0.624  0.2283  0.2863 -1.5271
   25MOL   H10714075   1.876   4.972   0.613  0.1548  0.1574  0.3763
   25MOL   H10814076   1.868   4.970   0.869  0.9320  2.4966  0.5147
   25MOL   H10914077   2.007   5.077   0.854  1.0207  0.0445  1.0104
   25MOL   H11014078   2.144   4.888   0.961  0.4329  1.6065  0.8010
   25MOL   H11114079   1.991   4.812   1.001 -0.1762  0.1494 -1.5999
   25MOL   H11214080   2.089   5.108   1.078  2.3192 -0.6254 -1.4219
   25MOL   H11314081   1.948   5.017   1.146 -0.1977 -2.0014 -0.7798
   25MOL   H11414082   2.012   4.913   1.344 -0.3317 -0.0903  0.4403
   25MOL   H11514083   2.189   4.720   1.246  0.6542  1.8924 -1.3283
   25MOL   H11614084   2.197   4.981   1.464  0.6835  1.1243 -2.4753
   25MOL   H11714085   2.202   4.821   1.506  2.0769 -1.0865  0.7166
   25MOL   C11814086   2.461   4.878   1.435 -0.6044  0.0639  0.6185
   25MOL   C11914087   2.511   4.745   1.487  0.3096  0.0426 -0.4609
   25MOL   O12014088   2.429   4.705   1.597 -0.6276  0.1403 -0.3498
   25MOL   C12114089   2.660   4.742   1.530 -0.2433  0.6780  0.2171
   25MOL   O12214090   2.712   4.607   1.543 -0.2843  0.1105 -0.0339
   25MOL   C12314091   2.846   4.594   1.560 -0.3285  0.1467 -0.6051
   25MOL   C12414092   2.901   4.444   1.559 -0.5450  0.5100 -0.1892
   25MOL   C12514093   3.047   4.435   1.611 -0.2595 -0.1810  0.1248
   25MOL   O12614094   3.072   4.298   1.629  0.0882  0.1339 -0.0283
   25MOL   C12714095   3.207   4.264   1.628  0.7958  0.0875  0.5569
   25MOL   O12814096   3.253   4.263   1.497 -0.4154 -0.5006  0.1442
   25MOL   C12914097   3.223   4.122   1.681 -0.1031 -0.8976  0.0114
   25MOL   O13014098   3.365   4.102   1.713  0.2005 -0.0362  0.3685
   25MOL   H13114099   2.545   4.927   1.385 -0.0590 -1.5283 -0.0615
   25MOL   H13214100   2.438   4.945   1.518  2.6651  0.8202  0.9896
   25MOL   H13314101   2.498   4.676   1.403 -0.5689  0.1003 -0.3849
   25MOL   H13414102   2.445   4.617   1.627 -0.6827  0.6753  1.3044
   25MOL   H13514103   2.709   4.800   1.451  0.8901  1.4705  1.4867
   25MOL   H13614104   2.669   4.794   1.625  1.8469  0.6121  0.0789
   25MOL   H13714105   2.867   4.642   1.656  0.4096  0.2142 -0.7934
   25MOL   H13814106   2.893   4.654   1.482 -0.4619 -0.5727 -1.2444
   25MOL   H13914107   2.886   4.404   1.459 -0.9609 -0.9809  0.4548
   25MOL   H14014108   2.845   4.386   1.632  0.4902 -1.6087 -1.0419
   25MOL   H14114109   3.122   4.488   1.553  1.2578 -1.9990  0.3789
   25MOL   H14214110   3.046   4.479   1.711  0.0691 -1.6680  0.7983
   25MOL   H14314111   3.266   4.335   1.685 -2.7292  1.5085  2.5962
   25MOL   H14414112   3.223   4.184   1.454 -1.8308  0.0063  0.1840
   25MOL   H14514113   3.176   4.120   1.780  1.3906 -3.5493  0.7036
   25MOL   H14614114   3.185   4.043   1.616 -1.6019  1.1880 -1.7526
   25MOL   C14714115   3.383   3.979   1.784  0.3402 -0.3165  0.1178
   25MOL   C14814116   3.534   3.953   1.809 -0.0275 -0.0832 -0.4426
   25MOL   O14914117   3.550   3.822   1.851 -0.3043 -0.1826  0.5432
   25MOL   C15014118   3.590   4.045   1.920  0.3659 -0.6574  0.2819
   25MOL   O15114119   3.599   4.178   1.872 -0.0962 -0.4987 -0.2079
   25MOL   C15214120   3.720   4.227   1.815  0.6193  0.6158  0.2501
   25MOL   C15314121   3.718   4.375   1.772  0.1487  1.0076 -0.2788
   25MOL   C15414122   3.606   4.388   1.671 -0.2839 -0.5757  0.5427
   25MOL   O15514123   3.607   4.526   1.634  0.4260  0.2872 -0.0802
   25MOL   C15614124   3.540   4.547   1.515 -0.5832  0.3261 -0.9521
   25MOL   O15714125   3.607   4.485   1.407 -0.3457 -0.2644 -0.3897
   25MOL   C15814126   3.537   4.698   1.489 -0.3603  0.2727  0.1684
   25MOL   O15914127   3.426   4.725   1.402  0.8127  0.2707  0.1971
   25MOL   H16014128   3.343   3.900   1.721  0.4460 -0.1203 -0.1966
   25MOL   H16114129   3.333   3.984   1.881  1.8739 -0.7780  0.9418
   25MOL   H16214130   3.589   3.969   1.717 -0.6207  0.6045 -0.6830
   25MOL   H16314131   3.640   3.821   1.880 -1.1981 -0.3179  3.4206
   25MOL   H16414132   3.533   4.050   2.013 -1.8653  1.5149 -1.1419
   25MOL   H16514133   3.692   4.020   1.946  0.7019 -0.5869 -0.9401
   25MOL   H16614134   3.745   4.164   1.730 -0.1484  0.4179  0.1699
   25MOL   H16714135   3.799   4.225   1.891  0.8057 -3.3029  0.0175
   25MOL   H16814136   3.817   4.403   1.739 -0.0536  0.3928 -1.4305
   25MOL   H16914137   3.698   4.444   1.854 -2.3704  0.5598 -0.4777
   25MOL   H17014138   3.633   4.319   1.590 -3.0929 -0.3626 -0.6269
   25MOL   H17114139   3.509   4.366   1.716  0.3211 -0.7226  1.8046
   25MOL   H17214140   3.439   4.512   1.534 -0.0679  0.1354  1.7533
   25MOL   H17314141   3.683   4.538   1.392  0.0674 -0.2974  1.5419
   25MOL   H17414142   3.543   4.755   1.582  0.5511  1.2732 -0.4814
   25MOL   H17514143   3.633   4.721   1.442  0.2522 -0.0667  1.2484
   25MOL   C17614144   3.303   4.749   1.473  0.5024 -0.7150  0.1904
   25MOL   C17714145   3.187   4.774   1.371  0.4645  0.9420  0.0298
   25MOL   O17814146   3.169   4.652   1.294  0.0036  0.1458  0.1283
   25MOL   C17914147   3.222   4.892   1.274 -0.2915 -0.2018  0.1148
   25MOL   O18014148   3.123   4.934   1.178 -0.7523 -0.8252 -0.5240
   25MOL   C18114149   3.100   4.838   1.078 -0.5360  0.0986 -0.4031
   25MOL   C18214150   3.159   4.896   0.954 -0.0364 -0.0626  0.2212
   25MOL   C18314151   3.083   5.016   0.901 -0.4645 -0.1352  0.1193
   25MOL   O18414152   3.151   5.069   0.786  0.0618 -0.2095 -0.6084
   25MOL   C18514153   3.224   5.187   0.802 -0.6775 -0.1810  0.1161
   25MOL   O18614154   3.137   5.297   0.841  0.5145 -0.3099  0.5805
   25MOL   C18714155   3.301   5.227   0.677  0.3227  0.0644  1.5023
   25MOL   O18814156   3.431   5.170   0.677  0.2270  0.1983 -0.2991
   25MOL   H18914157   3.314   4.841   1.531 -1.0751 -0.5733  0.3069
   25MOL   H19014158   3.290   4.671   1.548  1.8645 -1.9359 -0.8204
   25MOL   H19114159   3.101   4.809   1.428  1.6427  1.6999  1.3710
   25MOL   H19214160   3.253   4.610   1.281  0.1562  0.6947 -0.7222
   25MOL   H19314161   3.251   4.973   1.340 -2.9719  2.1491 -1.4967
   25MOL   H19414162   3.317   4.867   1.227  0.6808 -1.0684  2.4576
   25MOL   H19514163   2.992   4.839   1.062 -0.2818  0.3203 -2.1931
   25MOL   H19614164   3.139   4.736   1.073  1.4966  0.9131 -1.9176
   25MOL   H19714165   3.161   4.822   0.874  2.2430 -1.0347  1.1523
   25MOL   H19814166   3.261   4.928   0.974  0.5202 -1.0756 -0.9275
   25MOL   H19914167   2.984   4.987   0.865 -0.9646  1.8379 -0.1229
   25MOL   H20014168   3.064   5.089   0.980 -0.5952 -1.2813  1.1651
   25MOL   H20114169   3.292   5.165   0.884  1.1362 -0.0283 -1.3146
   25MOL   H20214170   3.109   5.276   0.929  1.2565 -1.9229  0.4555
   25MOL   H20314171   3.255   5.189   0.586  0.6710 -1.1014  1.7958
   25MOL   H20414172   3.309   5.335   0.666 -1.5886  0.1451  0.6087
   25MOL   C20514173   3.432   5.029   0.635  0.3173 -0.0289 -0.3484
   25MOL   C20614174   3.573   4.976   0.624  0.0630 -0.4507 -0.2882
   25MOL   O20714175   3.639   5.071   0.541 -0.2295 -0.8155 -0.3137
   25MOL   C20814176   3.648   4.947   0.759 -0.4858 -0.0825  0.2442
   25MOL   O20914177   3.565   4.842   0.812 -0.6361  0.0767  0.3317
   25MOL   C21014178   3.635   4.796   0.930  0.4254  0.0150 -0.1540
   25MOL   C21114179   3.545   4.684   0.982  0.4107  0.2143 -0.1563
   25MOL   C21214180   3.597   4.586   1.084 -0.1805  0.2734 -0.4264
   25MOL   O21314181   3.691   4.508   1.028  0.7455 -0.0905  0.0383
   25MOL   C21414182   3.780   4.446   1.117  0.4260  1.0835 -0.2415
   25MOL   O21514183   3.876   4.538   1.174  0.5485 -0.0776 -0.3136
   25MOL   C21614184   3.856   4.349   1.033  0.3548  0.0032  0.0922
   25MOL   O21714185   3.776   4.236   1.013 -0.1419  0.0154 -0.2788
   25MOL   H21814186   3.378   5.019   0.541  0.5116  0.9474 -0.5705
   25MOL   H21914187   3.385   4.970   0.714 -0.4451  0.3053 -0.5542
   25MOL   H22014188   3.572   4.881   0.571  2.3378 -0.9305  0.4749
   25MOL   H22114189   3.634   5.156   0.582  0.1364 -0.8260 -0.2493
   25MOL   H22214190   3.749   4.910   0.744 -0.5197 -0.8266  1.7286
   25MOL   H22314191   3.652   5.035   0.824 -0.6986 -0.5000  0.8335
   25MOL   H22414192   3.642   4.867   1.013  4.3179 -0.8293  0.3392
   25MOL   H22514193   3.738   4.761   0.918  0.4418  0.1772 -0.4857
   25MOL   H22614194   3.500   4.626   0.902 -0.9961 -1.5860  1.8994
   25MOL   H22714195   3.459   4.731   1.030  1.4279  0.8270  1.0929
   25MOL   H22814196   3.627   4.657   1.162 -0.3837  0.6635 -0.7003
   25MOL   H22914197   3.524   4.511   1.117  1.1033  0.5969  3.3713
   25MOL   H23014198   3.725   4.396   1.196  1.2940  0.2074 -0.1758
   25MOL   H23114199   3.919   4.584   1.104  0.8948  0.3816  0.1967
   25MOL   H23214200   3.885   4.392   0.937  1.8006 -0.8990  0.0989
   25MOL   H23314201   3.944   4.315   1.088 -0.5872  0.9916  2.2507
   25MOL   C23414202   3.832   4.117   0.955  0.1571 -0.0550 -0.5422
   25MOL   C23514203   3.732   4.003   0.951 -0.6219 -0.3018 -0.0730
   25MOL   O23614204   3.735   3.948   1.084  0.1316  0.0991  0.3191
   25MOL   C23714205   3.759   3.888   0.848 -0.4616 -0.4067  0.5753
   25MOL   O23814206   3.639   3.807   0.839  0.4821 -0.3047  0.2433
   25MOL   C23914207   3.540   3.855   0.751 -0.0571 -0.0122  0.5575
   25MOL   C24014208   3.423   3.756   0.764  0.0261 -0.3919  0.2356
   25MOL   C24114209   3.440   3.617   0.694 -0.1085 -0.1137  0.1510
   25MOL   O24214210   3.311   3.553   0.695  0.8523 -0.1317 -0.2321
   25MOL   C24314211   3.319   3.415   0.671 -0.5389 -0.1870  0.3654
   25MOL   O24414212   3.363   3.400   0.535  0.0706 -0.5291  0.4078
   25MOL   C24514213   3.170   3.363   0.677  1.0189  0.2371 -0.6468
   25MOL   O24614214   3.116   3.407   0.804  0.4828 -0.6696 -0.3672
   25MOL   H24714215   3.861   4.135   0.851  0.6882  0.7348 -0.2540
   25MOL   H24814216   3.924   4.081   1.000 -0.6758 -2.4162 -0.6399
   25MOL   H24914217   3.635   4.052   0.938  0.3924  1.6591 -0.5309
   25MOL   H25014218   3.645   3.925   1.101 -0.1886  1.6915  0.7955
   25MOL   H25114219   3.796   3.914   0.749 -1.1592  1.7369  0.8522
   25MOL   H25214220   3.840   3.831   0.893  1.4595  1.6406 -0.2009
   25MOL   H25314221   3.576   3.862   0.649 -0.2655  0.4220  0.5116
   25MOL   H25414222   3.497   3.952   0.775  1.0854  0.5023  0.5254
   25MOL   H25514223   3.337   3.807   0.719  0.3671  0.6199  0.7172
   25MOL   H25614224   3.396   3.751   0.869  3.2541 -1.6041  1.0450
   25MOL   H25714225   3.488   3.626   0.596  0.0365  0.2977  0.2575
   25MOL   H25814226   3.506   3.552   0.751 -0.2173 -0.7060 -0.3928
   25MOL   H25914227   3.383   3.352   0.732 -1.3596 -2.5660 -1.1826
   25MOL   H26014228   3.296   3.443   0.483  2.4409  3.7259  0.6187
   25MOL   H26114229   3.111   3.404   0.596  0.1133  0.0013 -0.1172
   25MOL   H26214230   3.167   3.254   0.669 -1.1517 -0.0305  2.6687
   25MOL   C26314231   3.152   3.335   0.922  0.2664 -0.4626 -0.2450
   25MOL   C26414232   3.130   3.431   1.037  0.7621  0.3654  1.2463
   25MOL   O26514233   3.161   3.366   1.157  0.3396 -0.1745  0.4533
   25MOL   C26614234   3.234   3.544   1.032 -0.3870  0.5522  0.1159
   25MOL   O26714235   3.361   3.491   1.069 -0.5093  0.6591  0.3613
   25MOL   C26814236   3.448   3.584   1.129  0.1556 -0.4270 -0.1419
   25MOL   C26914237   3.591   3.523   1.137 -0.4933 -0.2617 -1.3297
   25MOL   C27014238   3.679   3.615   1.222  0.7795  0.1238  0.1496
   25MOL   O27114239   3.814   3.566   1.227 -0.1623 -0.7061  0.5995
   25MOL   C27214240   3.910   3.666   1.259  0.2908 -1.0979 -0.2725
   25MOL   O27314241   3.893   3.708   1.392 -0.0213 -0.6056 -0.6346
   25MOL   C27414242   4.049   3.605   1.243 -0.0337  0.1335  0.5880
   25MOL   O27514243   4.079   3.529   1.358  0.5594  0.2033 -0.4725
   25MOL   H27614244   3.256   3.301   0.928 -0.3803 -2.6031 -0.7072
   25MOL   H27714245   3.103   3.238   0.929 -0.9585  0.1089 -0.8425
   25MOL   H27814246   3.032   3.478   1.034 -0.1419 -1.4592  1.3495
   25MOL   H27914247   3.251   3.388   1.178  0.0446  2.7987 -1.1773
   25MOL   H28014248   3.238   3.589   0.933 -0.1381  1.4943  0.5558
   25MOL   H28114249   3.192   3.621   1.096  0.8209  0.7914  0.6297
   25MOL   H28214250   3.406   3.604   1.227 -0.2689  1.3857 -0.6631
   25MOL   H28314251   3.450   3.678   1.073  0.8782 -1.6138 -2.1618
   25MOL   H28414252   3.630   3.496   1.039  1.2716  3.1728 -1.6450
   25MOL   H28514253   3.583   3.432   1.197  0.4070 -0.1237 -0.9942
   25MOL   H28614254   3.677   3.712   1.172  0.1762 -0.8211 -1.6843
   25MOL   H28714255   3.634   3.627   1.321 -1.5602 -0.4921 -0.8082
   25MOL   H28814256   3.899   3.755   1.197 -2.1190 -1.1937 -0.0448
   25MOL   H28914257   3.972   3.698   1.443  0.0554 -1.3133 -0.8806
   25MOL   H29014258   4.065   3.561   1.145  1.3350 -0.2630  0.9647
   25MOL   H29114259   4.108   3.696   1.234 -0.7395  0.4912 -0.4860
   25MOL   C29214260   4.040   3.396   1.350 -0.0146  0.6885  0.0585
   25MOL   C29314261   4.123   3.304   1.442 -0.3324 -0.0130 -0.1692
   25MOL   O29414262   4.075   3.349   1.567 -0.2542  0.3563  0.1072
   25MOL   C29514263   4.093   3.156   1.424 -0.0491 -0.2619  0.2240
   25MOL   O29614264   4.167   3.072   1.507  0.3932 -0.2157  0.0220
   25MOL   C29714265   4.132   2.941   1.489  0.2142 -0.0123 -0.8660
   25MOL   C29814266   4.250   2.870   1.425  0.0910 -0.6271  0.5145
   25MOL   C29914267   4.238   2.716   1.428 -0.0909  0.2239 -0.5541
   25MOL   O30014268   4.121   2.681   1.345 -0.1503  0.2496  0.9447
   25MOL   C30114269   4.102   2.541   1.354 -0.5155 -1.3228 -0.2514
   25MOL   O30214270   4.011   2.502   1.454 -0.0213  0.1197 -0.7836
   25MOL   C30314271   4.044   2.506   1.215 -0.5718  0.0459 -0.5446
   25MOL   O30414272   4.137   2.439   1.133 -0.5309  0.5917 -0.3322
   25MOL   H30514273   3.932   3.392   1.366  0.2825 -0.6791  1.8061
   25MOL   H30614274   4.055   3.357   1.249  0.4196  3.4515 -1.0022
   25MOL   H30714275   4.229   3.316   1.419 -0.4265 -2.2222 -1.8719
   25MOL   H30814276   4.115   3.292   1.631 -0.3261 -1.7359 -1.6410
   25MOL   H30914277   3.985   3.141   1.432 -0.0177 -0.2775  0.6481
   25MOL   H31014278   4.127   3.137   1.322 -0.5795 -2.6262  0.4479
   25MOL   H31114279   4.046   2.929   1.425 -0.2412  1.7382 -0.6024
   25MOL   H31214280   4.097   2.904   1.586 -0.8530  2.3841 -0.3056
   25MOL   H31314281   4.332   2.894   1.494  0.5928  0.9180 -0.5929
   25MOL   H31414282   4.282   2.911   1.330  1.0846  0.0264  1.1183
   25MOL   H31514283   4.335   2.670   1.409 -0.5458 -1.5365  1.2519
   25MOL   H31614284   4.214   2.684   1.529 -2.0717  1.9583 -0.4410
   25MOL   H31714285   4.198   2.491   1.362  0.2296 -0.0017 -0.8435
   25MOL   H31814286   3.928   2.544   1.436 -0.3586 -0.0362  0.4061
   25MOL   H31914287   4.009   2.600   1.173 -0.0037  0.2727 -0.5222
   25MOL   H32014288   3.963   2.435   1.227  0.5052 -1.2644 -0.8181
   25MOL   C32114289   4.191   2.508   1.026  0.1989  0.2686  0.2080
   25MOL   C32214290   4.299   2.608   1.079 -0.8516 -1.3355  0.4079
   25MOL   O32314291   4.392   2.518   1.151 -0.2719 -0.2274  0.4817
   25MOL   C32414292   4.388   2.668   0.973 -0.1350  0.1240 -0.0457
   25MOL   O32514293   4.419   2.570   0.871 -0.1143  0.6403 -0.4344
   25MOL   C32614294   4.502   2.621   0.764 -0.2629 -0.0752 -0.4926
   25MOL   C32714295   4.493   2.531   0.645  0.5956  0.2122 -0.4878
   25MOL   C32814296   4.586   2.410   0.665 -0.1268 -0.3314  0.1430
   25MOL   O32914297   4.562   2.338   0.541  0.0264 -0.0888  0.6573
   25MOL   C33014298   4.636   2.222   0.533  0.1760  0.2960 -0.1362
   25MOL   O33114299   4.611   2.131   0.641 -0.2462  0.1498  0.3210
   25MOL   C33214300   4.598   2.160   0.400 -0.7124  0.0766  0.0148
   25MOL   O33314301   4.703   2.075   0.354  0.0729  0.5277 -0.1837
   25MOL   H33414302   4.123   2.562   0.960  0.5911  2.4594  1.5545
   25MOL   H33514303   4.226   2.431   0.957  0.5567  1.5000 -1.0082
   25MOL   H33614304   4.277   2.688   1.149  0.9559  0.2259 -0.7661
   25MOL   H33714305   4.336   2.455   1.194  0.1527  0.1183  1.5747
   25MOL   H33814306   4.481   2.706   1.016  0.2792  0.0498 -0.8528
   25MOL   H33914307   4.336   2.755   0.933 -1.6319 -0.8567 -0.2761
   25MOL   H34014308   4.604   2.646   0.791 -1.1057 -0.4667  3.3940
   25MOL   H34114309   4.465   2.719   0.733 -0.5812  0.1895  0.6600
   25MOL   H34214310   4.386   2.508   0.637 -0.1428  3.2896 -0.2300
   25MOL   H34314311   4.510   2.582   0.550 -0.9815  1.2968 -0.2167
   25MOL   H34414312   4.685   2.446   0.690 -0.2591  0.2174 -0.1042
   25MOL   H34514313   4.554   2.349   0.749 -0.5501 -0.5388 -0.1655
   25MOL   H34614314   4.741   2.250   0.533  0.5216 -0.9614 -1.3189
   25MOL   H34714315   4.521   2.106   0.635 -0.0732 -0.4562  0.2322
   25MOL   H34814316   4.502   2.109   0.410 -0.8704  0.4757  0.5859
   25MOL   H34914317   4.586   2.243   0.331  2.6160  2.1646  1.8082
   25MOL   C35014318   4.672   2.014   0.228 -0.4262  0.2014  0.2591
   25MOL   C35114319   4.802   1.957   0.163  0.0812  0.4128 -0.0971
   25MOL   O35214320   4.873   2.074   0.138  0.0628  0.3677  0.2120
   25MOL   C35314321   4.873   1.861   0.257  0.3043  0.6924  0.2666
   25MOL   O35414322   4.941   1.757   0.179  0.1643 -0.2382 -0.0895
   25MOL   C35514323   5.039   1.697   0.262 -0.1553  0.1872  0.7819
   25MOL   C35614324   5.106   1.582   0.185  0.0194 -0.1273 -0.4162
   25MOL   C35714325   5.149   1.622   0.048  0.0932  0.3820 -0.4442
   25MOL   O35814326   5.240   1.731   0.063 -0.0126 -0.1344  0.0480
   25MOL   C35914327   5.330   1.745   7.657  0.4901 -0.1559 -0.3575
   25MOL   O36014328   5.256   1.745   7.534  0.0186 -0.5220 -0.1280
   25MOL   C36114329   5.402   1.889   7.672  0.4194 -0.4195  0.0796
   25MOL   O36214330   5.300   1.985   7.664 -0.1657  0.6109  0.5192
   25MOL   H36314331   4.637   2.098   0.169  0.4807  1.6469  1.7454
   25MOL   H36414332   4.590   1.942   0.226  1.0441 -1.5361  0.7194
   25MOL   H36514333   4.781   1.919   0.063 -0.2459 -0.6221  0.3535
   25MOL   H36614334   4.910   2.097   0.221  1.9901 -3.0985  0.3910
   25MOL   H36714335   4.940   1.923   0.318 -0.1748  1.7371 -0.2517
   25MOL   H36814336   4.808   1.811   0.329  1.5817  1.2140  1.8252
   25MOL   H36914337   4.983   1.654   0.344 -1.3692  1.7254  0.7848
   25MOL   H37014338   5.115   1.763   0.304 -0.3454  0.2935  0.9617
   25MOL   H37114339   5.032   1.503   0.171 -0.9789  0.5967  0.6513
   25MOL   H37214340   5.187   1.522   0.225  0.7258 -0.8738 -2.8901
   25MOL   H37314341   5.189   1.535   7.692 -0.5050 -0.0780 -0.1276
   25MOL   H37414342   5.060   1.656   7.690 -1.4240 -2.4318  0.2568
   25MOL   H37514343   5.394   1.657   7.659  2.4308  1.2082 -0.5391
   25MOL   H37614344   5.215   1.830   7.524 -0.1802 -0.2488  2.4716
   25MOL   H37714345   5.460   1.891   0.070  1.1064 -2.5672 -0.2927
   25MOL   H37814346   5.470   1.911   7.590  0.5351 -0.3941  0.1823
   25MOL   C37914347   5.215   2.015   0.086  0.4048  0.0590 -0.3072
   25MOL   C38014348   5.185   2.166   0.071 -0.3674 -0.1381 -0.5178
   25MOL   O38114349   5.066   2.199   7.690  0.3093 -0.0276  0.1582
   25MOL   C38214350   5.159   2.232   0.210 -0.1098  0.3507  0.1544
   25MOL   O38314351   5.081   2.149   0.293  0.2752 -0.1029 -1.0369
   25MOL   C38414352   5.091   2.195   0.426 -0.1088  0.3715  0.0019
   25MOL   C38514353   5.039   2.091   0.528 -0.3389  0.6487  0.1101
   25MOL   C38614354   5.126   1.964   0.548  0.3676  0.3940 -0.6948
   25MOL   O38714355   5.047   1.866   0.613 -0.4107  0.5671 -0.2184
   25MOL   C38814356   5.098   1.738   0.628  0.2081 -0.1122 -0.0541
   25MOL   O38914357   5.213   1.735   0.708  0.6706  1.0264  0.7151
   25MOL   C39014358   4.983   1.653   0.696 -0.3605 -0.5760 -0.3167
   25MOL   O39114359   5.011   1.516   0.668 -0.2198 -0.1172  0.2999
   25MOL   H39214360   5.272   1.991   0.176 -2.7083  0.3713  1.8442
   25MOL   H39314361   5.123   1.957   0.085  0.4496 -0.0164 -0.0527
   25MOL   H39414362   5.277   2.209   0.031 -0.0763 -1.0307 -0.8177
   25MOL   H39514363   4.994   2.144   0.022  0.6056  0.4092  1.8794
   25MOL   H39614364   5.260   2.235   0.250  0.0337  2.0011 -0.2855
   25MOL   H39714365   5.118   2.332   0.190 -0.2284  0.6265  1.7211
   25MOL   H39814366   5.018   2.276   0.431  2.0159  2.5314 -2.2561
   25MOL   H39914367   5.189   2.228   0.461  0.6252 -1.6470 -0.1032
   25MOL   H40014368   4.937   2.070   0.496 -0.3828  2.3378 -0.9692
   25MOL   H40114369   5.026   2.136   0.626  0.1000 -1.9050  1.3774
   25MOL   H40214370   5.161   1.933   0.449 -1.4143 -0.6494 -1.0301
   25MOL   H40314371   5.207   1.991   0.615  0.9067 -1.2672 -0.6711
   25MOL   H40414372   5.126   1.690   0.534 -0.4560  0.7396 -0.6931
   25MOL   H40514373   5.243   1.646   0.711 -0.0115  0.7718 -0.0479
   25MOL   H40614374   4.973   1.676   0.802 -0.3774 -0.6751 -0.2971
   25MOL   H40714375   4.892   1.686   0.647  0.6634  1.3555 -0.9701
   25MOL   C40814376   4.909   1.437   0.603 -0.1824 -0.0971 -0.2120
   25MOL   C40914377   4.978   1.317   0.538  0.7807  0.7307 -0.6079
   25MOL   O41014378   5.076   1.352   0.450  0.2057  0.4192 -0.2306
   25MOL   C41114379   4.871   1.213   0.483  0.7957  0.3067 -0.4373
   25MOL   O41214380   4.900   1.077   0.501 -0.6761 -0.0947 -0.2500
   25MOL   C41314381   4.826   0.995   0.413  0.0214 -0.4523 -0.6611
   25MOL   C41414382   4.851   0.853   0.467 -0.6008  0.6623 -0.6084
   25MOL   C41514383   4.744   0.763   0.410  0.2313 -0.0153  0.3990
   25MOL   O41614384   4.775   0.629   0.437  0.4133  0.4915 -0.4970
   25MOL   C41714385   4.718   0.527   0.358 -0.6307 -0.6041 -0.3604
   25MOL   O41814386   4.580   0.530   0.368  0.1615 -0.0665  0.4490
   25MOL   C41914387   4.772   0.393   0.413  0.9922 -0.1287 -0.1621
   25MOL   O42014388   4.857   0.330   0.314 -0.5174  0.0595  0.0604
   25MOL   H42114389   4.881   1.489   0.511 -0.4905  0.4368  0.1816
   25MOL   H42214390   4.821   1.430   0.667 -0.1216 -1.1213 -0.2406
   25MOL   H42314391   5.014   1.263   0.625  0.1050 -1.9202 -1.9146
   25MOL   H42414392   5.144   1.390   0.503  2.7549 -1.9221 -1.7079
   25MOL   H42514393   4.785   1.225   0.549 -0.7213 -2.0576 -1.9202
   25MOL   H42614394   4.844   1.235   0.379  1.6505 -0.1807 -0.7572
   25MOL   H42714395   4.723   1.027   0.424 -0.3345 -2.0220  0.7262
   25MOL   H42814396   4.866   1.006   0.312 -0.0080 -0.1340 -0.6386
   25MOL   H42914397   4.851   0.854   0.576  1.9091 -3.3981 -0.4928
   25MOL   H43014398   4.952   0.819   0.446 -0.2549  0.9831  0.4782
   25MOL   H43114399   4.648   0.778   0.459  0.7499 -0.8408  1.7005
   25MOL   H43214400   4.731   0.774   0.302  0.4974 -1.1603  0.2451
   25MOL   H43314401   4.737   0.547   0.252  2.1499 -0.2126  0.1707
   25MOL   H43414402   4.547   0.510   0.282 -2.3545  0.5219  1.2404
   25MOL   H43514403   4.822   0.410   0.508 -1.6630  2.6268  0.8472
   25MOL   H43614404   4.681   0.337   0.435 -0.5430  2.1268 -0.5345
   25MOL   C43714405   4.945   0.232   0.374 -0.4799  0.1983 -0.8495
   25MOL   C43814406   5.043   0.177   0.272 -0.6089  0.4768  0.1303
   25MOL   O43914407   4.961   0.131   0.161 -0.0943 -0.0332  0.3173
   25MOL   C44014408   5.146   0.069   0.323 -0.0018 -0.5544  0.4204
   25MOL   O44114409   5.268   0.092   0.254 -0.8663  0.0322  0.0925
   25MOL   C44214410   5.282   0.042   0.126  0.0937  0.1211  0.0199
   25MOL   C44314411   5.397   0.110   0.051  0.6753  0.1415 -0.3389
   25MOL   C44414412   5.400   0.079   7.597 -0.4038  0.3460  0.0326
   25MOL   O44514413   5.480   0.182   7.538  0.1526 -0.3229 -0.3939
   25MOL   C44614414   5.521   0.164   7.409 -0.5699  0.1179  0.2104
   25MOL   O44714415   5.610   0.058   7.396 -0.2419 -0.0853 -0.0960
   25MOL   C44814416   5.573   0.293   7.344 -1.0383  0.2933 -0.1907
   25MOL   O44914417   5.499   0.333   7.238  0.0005  0.3777 -0.3929
   25MOL   H45014418   5.005   0.270   0.455 -0.5314  2.2945 -1.7711
   25MOL   H45114419   4.878   0.151   0.405 -0.4540  0.6928  0.5100
   25MOL   H45214420   5.104   0.259   0.235  2.0720 -2.5933 -2.6320
   25MOL   H45314421   4.896   0.199   0.149  2.3442  2.2799 -0.0893
   25MOL   H45414422   5.144   0.078   0.432 -1.1273  0.5963  0.3174
   25MOL   H45514423   5.105   7.664   0.306  0.2721 -0.9469  1.9207
   25MOL   H45614424   5.188   0.049   0.071  0.6190  0.0223 -0.9080
   25MOL   H45714425   5.298   7.628   0.129  0.1071  0.0765 -1.3150
   25MOL   H45814426   5.490   0.083   0.101  0.9056  0.5429 -0.5497
   25MOL   H45914427   5.384   0.218   0.059 -0.4891 -0.0417  0.4640
   25MOL   H46014428   5.450   7.679   7.581 -0.8115  0.2440 -0.6943
   25MOL   H46114429   5.306   0.077   7.542 -0.1220  0.0315 -0.4303
   25MOL   H46214430   5.436   0.133   7.349  1.2950  0.3043 -2.5799
   25MOL   H46314431   5.649   0.064   7.310 -0.4858 -2.3854 -0.3792
   25MOL   H46414432   5.552   0.376   7.412  0.4208  1.2401 -0.8650
   25MOL   H46514433   5.682   0.288   7.339 -0.9720  0.0904  1.3099
   25MOL   C46614434   5.522   0.462   7.186 -0.3783  0.6491 -0.8286
   25MOL   C46714435   5.412   0.496   7.088  0.7854 -0.0354 -0.1590
   25MOL   O46814436   5.313   0.552   7.177  0.3812  0.0982  0.4500
   25MOL   C46914437   5.437   0.599   6.976 -0.0847  0.7794 -0.4718
   25MOL   O47014438   5.493   0.716   7.039  0.1354  0.2716  0.1455
   25MOL   C47114439   5.483   0.832   6.956  0.0707 -0.3746 -0.0001
   25MOL   C47214440   5.545   0.956   7.022 -0.5005 -0.9244 -0.2307
   25MOL   C47314441   5.467   1.010   7.139  0.5385 -0.2639 -0.1679
   25MOL   O47414442   5.343   1.058   7.089 -0.0176  0.4305 -0.1188
   25MOL   C47514443   5.253   1.080   7.195  0.2017 -0.6600  0.1799
   25MOL   O47614444   5.193   0.961   7.226  0.6873  0.4196 -0.2608
   25MOL   C47714445   5.150   1.195   7.169  0.5715  0.2596  0.0498
   25MOL   O47814446   5.213   1.319   7.171  0.2282 -0.1138 -0.5344
   25MOL   H47914447   5.621   0.473   7.141  0.3536 -2.9381 -0.2787
   25MOL   H48014448   5.521   0.536   7.266  1.3571  0.2907 -0.4384
   25MOL   H48114449   5.358   0.409   7.050  1.3586  1.4240 -4.6208
   25MOL   H48214450   5.348   0.627   7.223  0.0950 -0.9290  2.4063
   25MOL   H48314451   5.508   0.552   6.908  2.4049 -0.1372  2.6291
   25MOL   H48414452   5.350   0.623   6.915 -1.9002 -1.0111  1.3213
   25MOL   H48514453   5.378   0.847   6.930  0.0583  2.8522  1.6418
   25MOL   H48614454   5.525   0.814   6.857 -1.4148  3.2442 -1.3676
   25MOL   H48714455   5.554   1.043   6.957 -2.7266  0.4783  1.2567
   25MOL   H48814456   5.648   0.932   7.051  0.7990  1.0361 -2.9974
   25MOL   H48914457   5.473   0.948   7.228 -0.3370 -0.4095 -0.1992
   25MOL   H49014458   5.511   1.104   7.174  1.4183 -0.9948  0.6964
   25MOL   H49114459   5.310   1.107   7.284  0.4811  0.9769 -0.4669
   25MOL   H49214460   5.133   0.944   7.156 -1.5731 -1.1067  1.9428
   25MOL   H49314461   5.093   1.183   7.078 -0.9031 -0.3753  1.0463
   25MOL   H49414462   5.077   1.190   7.250  0.1082 -0.2162 -0.3980
   25MOL   C49514463   5.268   1.354   7.049  0.4298 -0.1378  0.2461
   25MOL   C49614464   5.281   1.508   7.047  0.0598 -0.1006  0.2432
   25MOL   O49714465   5.337   1.546   6.927  0.3537 -0.2979  0.4126
   25MOL   C49814466   5.152   1.584   7.054  0.1377 -1.0162 -0.2198
   25MOL   O49914467   5.172   1.725   7.053  0.6058  0.3404  0.3120
   25MOL   C50014468   5.233   1.775   7.175 -0.0901 -0.4297  0.3248
   25MOL   C50114469   5.275   1.919   7.156 -0.6897  0.3393  0.6635
   25MOL   C50214470   5.304   1.998   7.289  1.0202  0.0439  0.0231
   25MOL   O50314471   5.192   1.986   7.376  0.3404 -0.4211 -0.4906
   25MOL   C50414472   5.095   2.076   7.359  0.1435  0.8448 -0.0823
   25MOL   O50514473   5.131   2.206   7.407 -0.7508 -0.0073 -0.3996
   25MOL   C50614474   4.981   2.024   7.441  0.0364 -0.2083 -0.1227
   25MOL   O50714475   4.908   1.930   7.367 -0.0962  0.3483 -0.6962
   25MOL   H50814476   5.200   1.326   6.968  0.4560 -0.9443  0.5011
   25MOL   H50914477   5.358   1.295   7.029  0.8628  0.8807 -0.8819
   25MOL   H51014478   5.344   1.535   7.131 -1.0574  0.9019  0.7646
   25MOL   H51114479   5.324   1.638   6.912 -0.3008 -0.6840 -1.6816
   25MOL   H51214480   5.094   1.561   6.965 -0.4154  0.9920 -0.4140
   25MOL   H51314481   5.099   1.547   7.141 -0.0739 -0.2050  0.0046
   25MOL   H51414482   5.327   1.724   7.198 -1.0970 -1.8973  1.2779
   25MOL   H51514483   5.167   1.749   7.258  1.3278 -0.2955  1.5155
   25MOL   H51614484   5.192   1.968   7.105 -1.7984 -2.3660 -0.2508
   25MOL   H51714485   5.359   1.925   7.088 -0.7030 -1.2378  0.4962
   25MOL   H51814486   5.393   1.961   7.341  0.2965 -1.1004  0.4494
   25MOL   H51914487   5.339   2.100   7.276 -0.4235  0.7047  1.1895
   25MOL   H52014488   5.072   2.086   7.253  1.1733  1.3620 -0.2647
   25MOL   H52114489   5.128   2.193   7.501  0.8882  0.7637 -0.2206
   25MOL   H52214490   5.019   1.977   7.532  0.5260  0.1299 -0.1523
   25MOL   H52314491   4.913   2.102   7.473 -0.2504 -0.6873  0.4535
   25MOL   C52414492   4.815   1.865   7.457 -0.5358  0.1003  0.0257
   25MOL   C52514493   4.740   1.770   7.369 -0.1361  0.2055 -0.0778
   25MOL   O52614494   4.665   1.852   7.278 -0.2030  0.2402  0.4599
   25MOL   C52714495   4.641   1.670   7.437  0.0279  0.6988  0.0425
   25MOL   O52814496   4.593   1.720   7.556  0.4522  0.2484  0.0131
   25MOL   C52914497   4.473   1.799   7.542  0.1812 -0.4318 -0.7354
   25MOL   C53014498   4.472   1.912   7.653  0.4241  0.4230  0.2313
   25MOL   C53114499   4.356   2.005   7.631 -1.0498 -0.6907  0.3437
   25MOL   O53214500   4.364   2.100   0.045  0.5653 -0.1275  0.4255
   25MOL   C53314501   4.284   2.217   0.039 -0.2073  0.0229  0.3035
   25MOL   O53414502   4.146   2.192   0.006  0.2607  0.3425  0.2763
   25MOL   C53514503   4.295   2.288   0.171 -0.4827  0.5474 -0.0560
   25MOL   O53614504   4.299   2.424   0.158 -0.2024 -0.0318  0.0037
   25MOL   H53714505   4.745   1.941   7.494 -3.0619 -1.7170 -0.8707
   25MOL   H53814506   4.863   1.804   7.533 -1.1286 -1.9308 -1.1920
   25MOL   H53914507   4.810   1.710   7.310  1.5331  0.8204  1.2295
   25MOL   H54014508   4.716   1.899   7.214 -0.2513  1.1006  1.0398
   25MOL   H54114509   4.566   1.639   7.363  2.5986 -2.5601 -1.3415
   25MOL   H54214510   4.698   1.580   7.461 -1.6546 -0.2836  0.4476
   25MOL   H54314511   4.383   1.738   7.546  0.4480 -0.8776 -1.4653
   25MOL   H54414512   4.481   1.857   7.450  2.0959 -0.5600 -0.6731
   25MOL   H54514513   4.566   1.967   7.644 -0.7128  2.3678  0.0626
   25MOL   H54614514   4.474   1.869   0.059  0.3372 -1.1344 -0.4180
   25MOL   H54714515   4.375   2.052   7.534 -0.6242 -0.4726  0.5291
   25MOL   H54814516   4.256   1.963   7.626 -1.7768  0.9486  0.8627
   25MOL   H54914517   4.310   2.283   7.650  2.0367 -1.6390 -0.3744
   25MOL   H55014518   4.103   2.276   0.015  0.8551  0.8436 -1.3908
   25MOL   H55114519   4.211   2.249   0.229 -0.0860 -1.5819 -0.8701
   25MOL   H55214520   4.387   2.262   0.224 -0.8037 -1.6723 -0.5303
   25MOL   C55314521   4.331   2.489   0.281  0.0074  0.6075  0.3833
   25MOL   C55414522   4.342   2.642   0.240  0.3750 -0.8972  0.0600
   25MOL   O55514523   4.428   2.713   0.330 -0.4304 -0.2399  0.3024
   25MOL   C55614524   4.203   2.714   0.224 -0.1263 -0.5918  0.2697
   25MOL   O55714525   4.202   2.798   0.103  1.0316  0.3844  0.6937
   25MOL   C55814526   4.170   2.932   0.124  0.8490  0.4417  0.1134
   25MOL   C55914527   4.023   2.963   0.097 -0.2798 -0.2775  0.6105
   25MOL   C56014528   3.917   2.903   0.192  0.1183  0.5509 -0.2034
   25MOL   O56114529   3.934   2.984   0.308 -0.1817  0.4839  0.3500
   25MOL   C56214530   3.866   2.935   0.419  0.2814  0.3824 -0.1268
   25MOL   O56314531   3.928   2.829   0.482 -0.4889  0.1448 -0.6899
   25MOL   C56414532   3.857   3.045   0.523 -0.5277 -0.0984 -0.3146
   25MOL   O56514533   3.974   3.043   0.608  0.1047  0.3268  0.2193
   25MOL   H56614534   4.423   2.449   0.324  0.1622 -0.0465 -0.5363
   25MOL   H56714535   4.264   2.476   0.366 -0.9921 -0.3684 -0.5408
   25MOL   H56814536   4.388   2.652   0.141 -1.0500 -1.3267 -0.6639
   25MOL   H56914537   4.382   2.709   0.412 -1.2599  2.3824  0.0066
   25MOL   H57014538   4.135   2.633   0.197  1.4192  0.0475 -6.3824
   25MOL   H57114539   4.163   2.753   0.317 -1.2919  2.7106 -1.5520
   25MOL   H57214540   4.196   2.949   0.229 -0.4490 -0.7888  0.6504
   25MOL   H57314541   4.225   2.999   0.058  0.9745 -1.0303 -1.2912
   25MOL   H57414542   4.004   2.921   7.693 -0.0368  3.1771 -0.9560
   25MOL   H57514543   4.019   3.071   0.093 -1.9093 -0.2774  1.8295
   25MOL   H57614544   3.816   2.911   0.152  0.6116  3.0821 -1.0239
   25MOL   H57714545   3.945   2.801   0.216 -2.1670 -0.1088 -0.2150
   25MOL   H57814546   3.767   2.899   0.390  0.2313  1.1301 -0.8883
   25MOL   H57914547   3.968   2.863   0.560 -0.9871  0.3858 -0.5356
   25MOL   H58014548   3.838   3.146   0.486  0.8919  0.4673  0.4581
   25MOL   H58114549   3.764   3.026   0.577  0.6397 -0.3279  1.6753
   25MOL   H58214550   3.986   3.133   0.631  1.1331  0.3912 -0.5400
   26MOL     C114551   1.450   4.663   7.128 -0.0501 -0.6470 -0.3522
   26MOL     C214552   1.399   4.582   7.250  0.2793  0.3516  0.4633
   26MOL     O314553   1.490   4.607   7.356 -0.0018 -0.5597 -0.1423
   26MOL     C414554   1.255   4.614   7.301  0.1758  0.3939  0.7985
   26MOL     O514555   1.233   4.755   7.293  0.7894  0.1222 -0.2728
   26MOL     C614556   1.277   4.831   7.403 -0.2722 -0.2004  0.1631
   26MOL     C714557   1.224   4.970   7.386  0.4834 -0.9169  0.6518
   26MOL     C814558   1.285   5.075   7.492  0.3962  0.7383  0.8154
   26MOL     O914559   1.429   5.083   7.482 -0.0354  0.0195  0.3363
   26MOL    C1014560   1.471   5.138   7.600  0.6046  0.1654 -0.4782
   26MOL    O1114561   1.420   5.271   7.621 -0.6727  0.5843  1.0652
   26MOL    C1214562   1.622   5.149   7.585  0.1206 -0.0881 -0.4392
   26MOL    O1314563   1.674   5.183   0.019  0.3066  0.2702  0.1846
   26MOL    H1414564   1.466   4.767   7.154  0.2090 -0.8081  0.1200
   26MOL    H1514565   1.369   4.673   7.055 -1.6962 -0.0772  1.5014
   26MOL    H1614566   1.395   4.474   7.239  0.5806  0.2125  1.6931
   26MOL    H1714567   1.557   4.541   7.346 -1.2765 -1.7279 -1.2863
   26MOL    H1814568   1.180   4.569   7.236  0.6402  2.7554 -1.4441
   26MOL    H1914569   1.227   4.569   7.397 -3.5026  0.6443 -0.0643
   26MOL    H2014570   1.385   4.840   7.417 -0.0583 -1.8182 -0.3122
   26MOL    H2114571   1.235   4.791   7.495  0.5274 -0.4030  0.4486
   26MOL    H2214572   1.115   4.970   7.386  0.4629  1.0516  1.1052
   26MOL    H2314573   1.262   4.993   7.286  2.9790  0.6155  1.9062
   26MOL    H2414574   1.224   5.165   7.488 -0.2878  0.2458 -0.1538
   26MOL    H2514575   1.264   5.040   7.593 -1.9056 -1.3017 -0.2862
   26MOL    H2614576   1.455   5.075   7.687  1.3073 -0.4315 -0.7754
   26MOL    H2714577   1.444   5.315   7.541 -1.7027  0.1632  0.5129
   26MOL    H2814578   1.668   5.060   7.543  2.3821 -0.1845  2.1079
   26MOL    H2914579   1.642   5.233   7.519  1.2832 -0.8929 -1.1253
   26MOL    H3014580   1.541   4.613   7.094  2.1630  3.7122 -1.0944
   26MOL    C3114581   1.813   5.180   0.033  0.2886  0.1575 -0.6559
   26MOL    C3214582   1.895   5.276   7.643 -0.1404  0.3827  0.5397
   26MOL    O3314583   2.036   5.264   7.676 -0.1495  0.1999  0.3175
   26MOL    C3414584   1.854   5.425   7.648  0.0078  0.8087 -0.4799
   26MOL    O3514585   1.884   5.482   7.522 -0.4833 -0.4030 -0.4856
   26MOL    C3614586   1.817   5.610   7.510 -0.1200  0.1559  0.0329
   26MOL    C3714587   1.876   5.710   7.398  0.9291 -0.2712 -0.1885
   26MOL    C3814588   1.778   5.812   7.345 -0.4935 -0.0693 -0.1888
   26MOL    O3914589   1.699   5.752   7.242 -0.2942  0.1432 -0.5846
   26MOL    C4014590   1.578   5.823   7.221  0.7503 -0.3641 -0.0802
   26MOL    O4114591   1.472   5.788   7.304  0.6027  0.5205  0.0779
   26MOL    C4214592   1.528   5.788   7.080  0.3108  0.0500  0.1043
   26MOL    O4314593   1.464   5.903   7.013 -0.1355 -0.0246 -0.3977
   26MOL    H4414594   1.838   5.211   0.134 -1.8124 -0.8055  0.1978
   26MOL    H4514595   1.847   5.078   0.014  2.1786  1.2574 -3.4734
   26MOL    H4614596   1.877   5.248   7.539 -3.1241 -0.0296  1.1215
   26MOL    H4714597   2.065   5.194   7.619  0.0587 -0.1126  0.8035
   26MOL    H4814598   1.751   5.427   7.683 -0.3469  0.7708 -1.4998
   26MOL    H4914599   1.910   5.471   0.035 -1.4380 -1.2066  1.7095
   26MOL    H5014600   1.810   5.667   7.603 -3.1888  1.4681 -0.9472
   26MOL    H5114601   1.715   5.590   7.479 -0.3913 -0.3537  1.2100
   26MOL    H5214602   1.904   5.654   7.309  3.6808  2.1001 -0.9158
   26MOL    H5314603   1.969   5.763   7.421 -0.7645  2.4644  0.5920
   26MOL    H5414604   1.723   5.860   7.426 -1.3852  0.5425 -1.1488
   26MOL    H5514605   1.838   5.888   7.294 -2.3778  0.5239 -1.5703
   26MOL    H5614606   1.588   5.932   7.226 -0.0786 -0.1221 -2.6723
   26MOL    H5714607   1.405   5.854   7.297 -0.7202 -0.7614  0.1809
   26MOL    H5814608   1.608   5.749   7.017 -2.1641 -2.0083 -1.8636
   26MOL    H5914609   1.470   5.695   7.087 -1.7841  1.4925  2.6724
   26MOL    C6014610   1.388   5.864   6.893 -0.0895  0.1380 -0.2025
   26MOL    C6114611   1.242   5.885   6.932  0.3814 -0.3850  0.2059
   26MOL    O6214612   1.218   5.816   7.050 -0.2985 -0.5934  0.3572
   26MOL    C6314613   1.129   5.845   6.832  0.2177 -0.2882  0.6470
   26MOL    O6414614   1.176   5.883   6.700 -0.1477 -0.0117 -0.0789
   26MOL    C6514615   1.082   5.845   6.606 -0.0786  0.6035 -0.1943
   26MOL    C6614616   1.121   5.874   6.459  0.1165  0.9020  0.0651
   26MOL    C6714617   1.032   5.809   6.360  1.0709 -0.1758  0.4915
   26MOL    O6814618   1.104   5.824   6.239  0.2817  0.0773 -0.3697
   26MOL    C6914619   1.035   5.767   6.135 -0.8352 -0.6816 -0.1091
   26MOL    O7014620   0.932   5.846   6.089 -0.0171 -0.1281 -0.0083
   26MOL    C7114621   1.135   5.751   6.029 -0.4285 -0.0118 -0.1413
   26MOL    O7214622   1.081   5.671   5.921  0.4109  0.0370  0.3641
   26MOL    H7314623   1.416   5.761   6.869 -0.5764 -0.6225  2.2430
   26MOL    H7414624   1.402   5.931   6.809 -0.0494  0.4606  0.0601
   26MOL    H7514625   1.233   5.989   6.962  0.0148 -0.1344 -0.7362
   26MOL    H7614626   1.264   5.859   7.120  1.9751 -2.5750  0.1230
   26MOL    H7714627   1.119   5.736   6.830  0.0678 -0.2896  1.3749
   26MOL    H7814628   1.037   5.898   6.858 -1.5464 -2.3441 -1.2028
   26MOL    H7914629   0.988   5.896   6.627  0.9518  1.8410  1.4955
   26MOL    H8014630   1.071   5.737   6.621  1.8699  0.5662  1.1435
   26MOL    H8114631   1.222   5.838   6.442  0.4591  1.6118  0.5728
   26MOL    H8214632   1.126   5.982   6.445 -0.6438  0.8134 -1.0376
   26MOL    H8314633   0.937   5.862   6.347 -0.4072 -3.0623 -1.0991
   26MOL    H8414634   1.008   5.705   6.382  0.4687 -0.3752 -1.0260
   26MOL    H8514635   0.996   5.668   6.160 -0.7814 -0.0139  2.8112
   26MOL    H8614636   0.901   5.800   6.012 -0.2754  2.8585 -1.8184
   26MOL    H8714637   1.170   5.849   5.998 -1.2446  0.9394  1.8928
   26MOL    H8814638   1.222   5.697   6.067 -1.1381 -2.3259 -1.6930
   26MOL    C8914639   1.171   5.661   5.810  0.4652 -0.2120  0.1641
   26MOL    C9014640   1.083   5.606   5.693 -0.2257  0.4728  0.4894
   26MOL    O9114641   1.149   5.632   5.572 -0.1063 -0.3776  0.0397
   26MOL    C9214642   1.062   5.455   5.695  0.2115  0.1663  0.1208
   26MOL    O9314643   0.956   5.419   5.608  1.1779  0.1294 -0.0036
   26MOL    C9414644   0.832   5.400   5.673  0.2307 -0.3623 -0.5494
   26MOL    C9514645   0.717   5.416   5.580 -0.7361 -0.4448 -0.5717
   26MOL    C9614646   0.581   5.386   5.633 -0.2975 -0.1737 -0.0883
   26MOL    O9714647   0.557   5.484   5.743  0.2110  0.6334  0.4017
   26MOL    C9814648   0.431   5.468   5.799 -0.1732 -0.8117  0.5089
   26MOL    O9914649   0.438   5.391   5.910 -0.3352  0.6234  0.4332
   26MOL   C10014650   0.377   5.613   5.836 -0.0072 -0.1507 -0.5016
   26MOL   O10114651   0.456   5.651   5.942  0.3358  0.5687 -0.6019
   26MOL   H10214652   1.253   5.599   5.845  0.5138  0.3865  1.1475
   26MOL   H10314653   1.201   5.762   5.782  0.9764 -0.7699 -1.3836
   26MOL   H10414654   0.983   5.648   5.693  0.0473  1.1444 -0.6010
   26MOL   H10514655   1.110   5.563   5.521  1.9821 -1.8673  0.4352
   26MOL   H10614656   1.157   5.412   5.666  0.6238  1.5283 -0.6060
   26MOL   H10714657   1.040   5.429   5.798 -2.8471  0.2290 -0.4638
   26MOL   H10814658   0.828   5.484   5.743  2.0912 -1.0595  0.4168
   26MOL   H10914659   0.827   5.309   5.733 -1.0688 -0.2117 -0.4250
   26MOL   H11014660   0.737   5.359   5.489 -0.6352  0.0471 -0.8606
   26MOL   H11114661   0.722   5.519   5.545  0.2861 -1.0953 -2.4129
   26MOL   H11214662   0.505   5.380   5.555  1.4922 -0.4361 -1.8498
   26MOL   H11314663   0.582   5.294   5.691 -0.4114  0.3609  0.7740
   26MOL   H11414664   0.358   5.426   5.730  0.9093  1.5408 -2.2029
   26MOL   H11514665   0.470   5.442   5.984  0.5313 -0.2982  0.7114
   26MOL   H11614666   0.391   5.675   5.747 -1.4257 -0.4533 -0.9525
   26MOL   H11714667   0.270   5.602   5.855  0.0495 -0.2156 -0.2252
   26MOL   C11814668   0.494   5.788   5.935 -0.5029 -0.3638 -0.7725
   26MOL   C11914669   0.623   5.810   5.841 -0.0653 -0.1074 -0.1050
   26MOL   O12014670   0.734   5.737   5.887  0.2670  0.0367 -0.4976
   26MOL   C12114671   0.667   5.960   5.840  0.2793 -0.3094  0.4740
   26MOL   O12214672   0.714   5.980   5.708 -0.1175 -0.0091 -0.0404
   26MOL   C12314673   0.853   5.990   5.706  0.3769 -0.6190  0.2060
   26MOL   C12414674   0.891   5.983   5.563  0.7877  0.3364  0.0635
   26MOL   C12514675   1.037   5.974   5.537 -0.5703 -0.2700  0.1109
   26MOL   O12614676   1.077   5.997   5.399  0.4662 -0.1806 -0.2429
   26MOL   C12714677   1.217   5.981   5.379  0.1956  0.6308  0.7122
   26MOL   O12814678   1.292   6.091   5.427 -0.1667  0.0703  0.0692
   26MOL   C12914679   1.234   5.966   5.229 -0.6883  0.2882  0.0008
   26MOL   O13014680   1.219   6.088   5.165 -0.3529 -0.1051 -0.4642
   26MOL   H13114681   0.402   5.842   5.909 -0.0996 -0.4324 -2.3904
   26MOL   H13214682   0.511   5.821   6.037 -1.8941 -0.3719 -0.5281
   26MOL   H13314683   0.590   5.783   5.741  1.8229 -0.2715 -0.7104
   26MOL   H13414684   0.699   5.649   5.898  3.0322 -0.8818  1.6757
   26MOL   H13514685   0.585   6.032   5.841  0.9685  0.4880 -0.2466
   26MOL   H13614686   0.730   5.997   5.921  0.6860 -0.2535  0.1327
   26MOL   H13714687   0.897   5.905   5.757  4.7719 -0.2793 -2.7365
   26MOL   H13814688   0.888   6.085   5.748  1.7239 -0.9024 -0.2627
   26MOL   H13914689   0.853   6.077   5.521 -1.5703  0.6697  2.7759
   26MOL   H14014690   0.855   5.894   5.511 -0.0174  0.9554 -0.4609
   26MOL   H14114691   1.102   6.042   5.592 -0.2954  0.1211 -0.6927
   26MOL   H14214692   1.077   5.878   5.568 -0.4646 -0.5497 -0.8581
   26MOL   H14314693   1.247   5.887   5.426  0.9719 -0.0539 -1.0954
   26MOL   H14414694   1.259   6.169   5.386 -1.7377 -1.3131 -1.4315
   26MOL   H14514695   1.333   5.923   5.222  0.2230  1.8737  2.4914
   26MOL   H14614696   1.161   5.892   5.197 -0.2785  0.0562 -0.3951
   26MOL   C14714697   1.227   6.061   5.029 -0.3860 -0.0880  0.2862
   26MOL   C14814698   1.227   6.192   4.954 -0.5538  0.2832 -0.0272
   26MOL   O14914699   1.089   6.239   4.929 -0.3630  0.7384  0.1934
   26MOL   C15014700   1.313   6.179   4.830  0.7201  0.6501  0.6630
   26MOL   O15114701   1.435   6.114   4.853 -0.3692 -0.1680  0.0551
   26MOL   C15214702   1.528   6.192   4.929  0.0183 -0.4250 -0.5227
   26MOL   C15314703   1.653   6.104   4.956  1.0379 -0.2427 -0.1094
   26MOL   C15414704   1.759   6.186   5.032 -0.3412 -0.5725 -0.0561
   26MOL   O15514705   1.885   6.115   5.038  0.1961  0.2237  0.0350
   26MOL   C15614706   1.995   6.193   5.069 -0.3967 -0.3791 -0.1043
   26MOL   O15714707   2.036   6.276   4.960  0.5971  0.0931  0.2102
   26MOL   C15814708   2.116   6.110   5.098 -0.1304 -0.3941  0.6765
   26MOL   O15914709   2.159   6.030   4.988 -0.3205 -0.1275  0.6197
   26MOL   H16014710   1.143   5.999   4.999 -0.5256 -0.4418  1.3996
   26MOL   H16114711   1.318   6.004   5.007  0.4684  2.1221 -2.0675
   26MOL   H16214712   1.263   6.269   5.023 -1.0039 -0.1195  0.6603
   26MOL   H16314713   1.054   6.257   5.014  2.1677  0.9626  1.2454
   26MOL   H16414714   1.274   6.116   4.750  0.0533 -0.2813  1.6906
   26MOL   H16514715   1.322   6.275   4.780  0.5726 -0.3924 -1.3897
   26MOL   H16614716   1.491   6.225   5.026 -3.6034 -0.1369 -1.9124
   26MOL   H16714717   1.562   6.276   4.869 -2.4409  0.6658 -0.4535
   26MOL   H16814718   1.688   6.063   4.861  0.9459 -0.7129  0.0586
   26MOL   H16914719   1.625   6.014   5.010 -1.2034 -0.1969 -1.1580
   26MOL   H17014720   1.772   6.279   4.975  1.6688  0.5343  2.0895
   26MOL   H17114721   1.725   6.208   5.133 -1.4594 -0.3614 -0.4735
   26MOL   H17214722   1.964   6.263   5.147 -1.5354  0.2509 -1.0976
   26MOL   H17314723   2.034   6.219   4.884  3.5068  0.1181  0.0600
   26MOL   H17414724   2.191   6.182   5.132 -1.9327  1.6723  0.3170
   26MOL   H17514725   2.096   6.045   5.184 -1.4138 -1.7043 -0.5872
   26MOL   C17614726   2.283   5.958   5.019  0.3129  0.1971 -0.4306
   26MOL   C17714727   2.239   5.820   5.057  0.5545  0.1639  0.4214
   26MOL   O17814728   2.331   5.756   5.147 -0.1213  0.3640 -0.4479
   26MOL   C17914729   2.220   5.727   4.933  0.7331 -0.7443 -0.0397
   26MOL   O18014730   2.346   5.678   4.882  0.3007 -0.5059 -0.5049
   26MOL   C18114731   2.338   5.594   4.772  0.3399 -0.2077 -0.8566
   26MOL   C18214732   2.466   5.607   4.697  0.9555 -0.4715 -0.5216
   26MOL   C18314733   2.505   5.756   4.681 -0.0662  0.1190  0.5687
   26MOL   O18414734   2.611   5.787   4.595 -0.6306  0.3002  0.5703
   26MOL   C18514735   2.638   5.924   4.587  0.6383  0.1696  1.1701
   26MOL   O18614736   2.554   5.989   4.496 -0.3232 -0.3708 -0.2070
   26MOL   C18714737   2.785   5.945   4.547  0.1341  0.0894  0.4858
   26MOL   O18814738   2.873   5.887   4.643 -0.4018  0.0510  0.0642
   26MOL   H18914739   2.336   6.007   5.101 -2.3404  0.0680  1.4274
   26MOL   H19014740   2.336   5.941   4.925  0.1722 -0.3348 -0.4125
   26MOL   H19114741   2.149   5.824   5.118  0.4234 -1.6557  0.3740
   26MOL   H19214742   2.355   5.681   5.096 -4.2536 -1.7235  0.4015
   26MOL   H19314743   2.154   5.645   4.962 -1.1444  0.4379 -0.8361
   26MOL   H19414744   2.160   5.782   4.860  0.1246 -1.0040  0.2617
   26MOL   H19514745   2.251   5.624   4.714 -0.4919 -0.6731  0.1364
   26MOL   H19614746   2.317   5.489   4.794  2.1797 -0.1347  1.4231
   26MOL   H19714747   2.458   5.563   4.598  0.0417 -0.2746 -0.5395
   26MOL   H19814748   2.535   5.544   4.754 -1.1114 -1.2623  1.1761
   26MOL   H19914749   2.418   5.812   4.648  0.1790 -0.7958 -1.7350
   26MOL   H20014750   2.523   5.790   4.783  0.0838 -0.4285  0.7315
   26MOL   H20114751   2.619   5.963   4.687  0.4521  0.8727  0.8675
   26MOL   H20214752   2.527   6.072   4.532  0.0669 -0.2384 -0.2243
   26MOL   H20314753   2.799   5.889   4.455  1.8720  0.2605  0.6340
   26MOL   H20414754   2.813   6.050   4.539  0.2596  0.1355  1.4512
   26MOL   C20514755   2.886   5.936   4.776 -0.7326  0.8829  0.0540
   26MOL   C20614756   2.918   6.089   4.788 -0.0412 -0.3845 -0.4680
   26MOL   O20714757   2.792   6.158   4.804  0.3224 -0.2769  0.2832
   26MOL   C20814758   2.997   6.129   4.917  0.3053 -0.6237 -0.7663
   26MOL   O20914759   3.123   6.066   4.906 -0.8995  0.2543  0.1646
   26MOL   C21014760   3.193   6.079   5.032  0.1478 -0.4825 -0.2992
   26MOL   C21114761   3.258   6.222   5.040 -0.1188 -1.3827 -0.3813
   26MOL   C21214762   3.357   6.228   5.147 -0.3039 -0.0895  0.4715
   26MOL   O21314763   3.422   6.356   5.131  0.1380 -0.5119 -0.5806
   26MOL   C21414764   3.532   6.372   5.211  0.0436 -0.1736 -0.4187
   26MOL   O21514765   3.488   6.373   5.351 -0.0592  0.1986 -0.7541
   26MOL   C21614766   3.598   6.502   5.179  0.1624 -0.6198  0.1385
   26MOL   O21714767   3.692   6.495   5.069 -0.4490 -0.6470  0.2367
   26MOL   H21814768   2.959   5.878   4.833 -0.9580  0.5470  0.0044
   26MOL   H21914769   2.789   5.918   4.821 -0.4780  2.7844  1.4064
   26MOL   H22014770   2.981   6.125   4.706  3.0845 -0.0875  1.9545
   26MOL   H22114771   2.809   6.243   4.843 -1.4233 -0.7562  2.1583
   26MOL   H22214772   3.003   6.237   4.926  0.9178 -0.7025 -0.2045
   26MOL   H22314773   2.948   6.095   5.009  1.6799  0.7864  0.5190
   26MOL   H22414774   3.271   6.004   5.040  1.0581  0.2489 -1.9515
   26MOL   H22514775   3.131   6.063   5.120 -0.8734  0.5993 -0.7943
   26MOL   H22614776   3.170   6.285   5.054  0.2887 -0.8437 -0.2334
   26MOL   H22714777   3.315   6.244   4.949  1.6997  0.3615  1.1200
   26MOL   H22814778   3.310   6.216   5.245 -0.1022 -0.7112  0.4979
   26MOL   H22914779   3.432   6.150   5.163  0.4030  0.6190  0.6357
   26MOL   H23014780   3.605   6.291   5.210 -1.2556 -1.3581 -0.0230
   26MOL   H23114781   3.477   6.465   5.369 -1.1929  0.1142 -0.9970
   26MOL   H23214782   3.524   6.579   5.159  2.8634  1.8799 -0.6810
   26MOL   H23314783   3.643   6.546   5.268 -0.7070 -0.5270  0.5287
   26MOL   C23414784   3.794   6.594   5.072  0.5835  0.0961  0.0374
   26MOL   C23514785   3.920   6.565   4.976  0.0264 -0.1330 -0.6552
   26MOL   O23614786   3.961   6.436   5.024 -0.1498 -0.1799  0.4509
   26MOL   C23714787   4.031   6.677   4.982  0.1581  0.3557  0.0768
   26MOL   O23814788   4.025   6.759   5.105 -0.1195  0.1851 -0.1600
   26MOL   C23914789   4.148   6.826   5.138  0.1065 -0.3055 -0.0376
   26MOL   C24014790   4.168   6.952   5.053 -0.5578 -0.9864 -0.0170
   26MOL   C24114791   4.307   7.006   5.067 -0.5331  0.4159  0.4260
   26MOL   O24214792   4.392   6.905   5.023  0.0464  0.8310 -0.5295
   26MOL   C24314793   4.525   6.941   5.017 -0.0820 -0.4252  0.7530
   26MOL   O24414794   4.560   7.015   4.894 -0.4420 -0.8121  0.1698
   26MOL   C24514795   4.592   6.808   5.013 -0.7534  0.0947  0.3183
   26MOL   O24614796   4.533   6.724   4.911  0.0766  0.3160 -0.6606
   26MOL   H24714797   3.749   6.692   5.061  0.1370 -0.1514 -0.3477
   26MOL   H24814798   3.844   6.602   5.169 -1.2311  1.6727  0.8956
   26MOL   H24914799   3.878   6.555   4.875 -4.4753 -0.5162  1.1275
   26MOL   H25014800   3.933   6.425   5.114 -0.2104 -2.9102  0.1614
   26MOL   H25114801   4.127   6.627   4.974  0.7057  1.3588  0.3482
   26MOL   H25214802   4.026   6.749   4.901 -0.8948  1.3543  1.0140
   26MOL   H25314803   4.225   6.748   5.133 -1.6469 -1.9877 -1.6562
   26MOL   H25414804   4.147   6.853   5.244 -0.0215  2.0599 -0.6106
   26MOL   H25514805   4.088   7.023   5.072 -0.2519 -1.0248  1.5086
   26MOL   H25614806   4.150   6.928   4.948  0.4998 -0.7308 -0.2631
   26MOL   H25714807   4.322   7.091   5.001  0.7618  0.8017  1.2040
   26MOL   H25814808   4.334   7.042   5.167  0.8067 -1.4542  0.7625
   26MOL   H25914809   4.553   6.997   5.106 -0.5054 -0.5679  0.9789
   26MOL   H26014810   4.568   6.955   4.822 -0.9227  0.1087 -0.6743
   26MOL   H26114811   4.699   6.825   5.000 -0.4078  0.6842  3.5343
   26MOL   H26214812   4.580   6.758   5.109 -2.0688  1.0617  0.6814
   26MOL   C26314813   4.561   6.588   4.930  0.1626 -0.1371  0.3278
   26MOL   C26414814   4.515   6.509   4.804 -0.6838  1.0560 -0.1700
   26MOL   O26514815   4.578   6.383   4.807 -0.2035 -0.2258 -0.3633
   26MOL   C26614816   4.364   6.482   4.781 -0.0953 -0.1812 -0.4670
   26MOL   O26714817   4.304   6.586   4.707 -0.4778 -0.2685  0.2330
   26MOL   C26814818   4.188   6.551   4.641  0.4534 -0.4879 -0.3471
   26MOL   C26914819   4.107   6.669   4.581 -0.3639 -0.1616  0.2044
   26MOL   C27014820   3.960   6.644   4.546 -0.7742 -0.1999  0.1883
   26MOL   O27114821   3.966   6.573   4.426  0.2587  0.3771 -0.3325
   26MOL   C27214822   3.844   6.531   4.372  0.5755 -0.6441  0.0079
   26MOL   O27314823   3.780   6.641   4.309  0.3251  0.0100 -0.1311
   26MOL   C27414824   3.875   6.424   4.275  0.2284  0.4412 -0.8388
   26MOL   O27514825   3.919   6.299   4.332 -0.1323 -0.2106  0.5676
   26MOL   H27614826   4.527   6.540   5.022  1.2989 -1.8409 -0.1146
   26MOL   H27714827   4.669   6.575   4.928  0.1193 -0.3818 -0.9289
   26MOL   H27814828   4.565   6.564   4.724 -0.8963 -2.5894 -2.9344
   26MOL   H27914829   4.663   6.384   4.848 -0.7154 -2.1693  0.7973
   26MOL   H28014830   4.351   6.391   4.723 -3.2527  0.3665 -0.6912
   26MOL   H28114831   4.303   6.467   4.871  0.0328  2.5366  0.1183
   26MOL   H28214832   4.127   6.501   4.716  0.7236  0.6984  0.6662
   26MOL   H28314833   4.223   6.489   4.558 -0.8362 -0.5404 -0.8616
   26MOL   H28414834   4.158   6.700   4.490 -0.3639  2.3806  1.0449
   26MOL   H28514835   4.117   6.753   4.649  0.3099  0.4578 -0.6493
   26MOL   H28614836   3.918   6.583   4.626  0.1065 -0.9140  0.1208
   26MOL   H28714837   3.900   6.734   4.534  0.5790  0.6909  0.0502
   26MOL   H28814838   3.774   6.492   4.446 -0.8137 -0.6706 -1.2871
   26MOL   H28914839   3.830   6.667   4.233  0.0932 -0.4440 -0.4363
   26MOL   H29014840   3.784   6.398   4.221  0.1021 -2.1674  0.5412
   26MOL   H29114841   3.948   6.458   4.201  0.3736  0.3945 -0.7182
   26MOL   C29214842   4.046   6.299   4.397 -0.3720  0.3592 -0.1805
   26MOL   C29314843   4.103   6.154   4.395 -0.1839  0.2036 -0.1596
   26MOL   O29414844   4.153   6.126   4.269  0.1282 -0.2389 -0.0161
   26MOL   C29514845   4.221   6.142   4.501  0.4614  0.3795 -0.1855
   26MOL   O29614846   4.328   6.222   4.463  0.0746  0.1613  0.5122
   26MOL   C29714847   4.450   6.184   4.519  0.1384  0.0302 -0.4889
   26MOL   C29814848   4.576   6.248   4.450  0.0857 -0.8713 -0.8314
   26MOL   C29914849   4.701   6.228   4.527 -0.1395  0.8584  0.1418
   26MOL   O30014850   4.757   6.097   4.495  0.2106 -0.0315  0.3212
   26MOL   C30114851   4.878   6.069   4.545  1.0207  0.4193 -0.4628
   26MOL   O30214852   4.885   6.032   4.684  0.9015  0.2315 -0.6470
   26MOL   C30314853   4.942   5.954   4.470  0.5313 -0.7516  0.2468
   26MOL   O30414854   5.076   5.984   4.432 -0.5331  0.4554  0.8334
   26MOL   H30514855   4.104   6.367   4.335  0.4689  0.2293  0.4600
   26MOL   H30614856   4.033   6.334   4.499  0.0303 -3.1615  1.1561
   26MOL   H30714857   4.024   6.081   4.413  0.0847 -0.3628 -1.2577
   26MOL   H30814858   4.078   6.098   4.219 -0.6911  1.2824  0.3517
   26MOL   H30914859   4.184   6.172   4.599  0.9747  1.2023 -0.2338
   26MOL   H31014860   4.246   6.037   4.515 -2.7424 -0.4467 -0.2191
   26MOL   H31114861   4.468   6.077   4.502 -1.3919 -0.2673 -0.2611
   26MOL   H31214862   4.450   6.217   4.623 -0.9672  0.0572 -0.4902
   26MOL   H31314863   4.555   6.355   4.440  0.7405 -0.3084  2.8873
   26MOL   H31414864   4.584   6.210   4.349 -0.3198  1.9932 -1.9913
   26MOL   H31514865   4.768   6.310   4.499 -0.1095  0.7821 -0.0067
   26MOL   H31614866   4.685   6.240   4.634 -1.0001 -1.0712  0.2315
   26MOL   H31714867   4.939   6.159   4.532  0.1834  0.8982 -1.1378
   26MOL   H31814868   4.811   5.979   4.712  2.7852 -2.0762  0.0789
   26MOL   H31914869   4.881   5.937   4.381 -0.5756  1.6637  0.5259
   26MOL   H32014870   4.948   5.864   4.531  0.8952 -1.6854 -1.1294
   26MOL   C32114871   5.082   6.041   4.300  0.6286  0.1314  0.4504
   26MOL   C32214872   5.191   6.146   4.301 -0.4432 -0.0688 -0.1569
   26MOL   O32314873   5.308   6.074   4.332 -0.0815  0.3801  0.6335
   26MOL   C32414874   5.218   6.233   4.177  0.0180 -0.3067  0.4315
   26MOL   O32514875   5.145   6.359   4.191 -0.2420 -0.3333 -0.1744
   26MOL   C32614876   5.018   6.364   4.130 -0.3829  0.0579 -0.3970
   26MOL   C32714877   4.988   6.503   4.103 -0.3227 -0.0297  0.8068
   26MOL   C32814878   4.836   6.519   4.074 -0.3067 -0.3325 -0.1282
   26MOL   O32914879   4.818   6.658   4.051 -0.7878 -0.7136 -0.3148
   26MOL   C33014880   4.692   6.691   4.095  0.9178 -0.5208 -0.8393
   26MOL   O33114881   4.687   6.695   4.235  0.8280  0.2106  0.5113
   26MOL   C33214882   4.668   6.834   4.047 -0.0978 -0.5558 -0.2912
   26MOL   O33314883   4.602   6.830   3.921 -0.1708  0.2482 -0.1195
   26MOL   H33414884   4.987   6.080   4.264  1.3240  1.6494  0.2512
   26MOL   H33514885   5.092   5.963   4.224  0.9548  0.4549  0.1619
   26MOL   H33614886   5.186   6.215   4.385  0.5568 -0.4175  0.1976
   26MOL   H33714887   5.282   6.020   4.405  1.7638 -0.4382  0.7202
   26MOL   H33814888   5.197   6.189   4.079  0.3937  0.8409 -0.1732
   26MOL   H33914889   5.323   6.252   4.200  0.2095 -1.2707  0.3831
   26MOL   H34014890   4.952   6.327   4.209 -0.3488  0.1296 -0.3354
   26MOL   H34114891   5.010   6.294   4.047  0.7258 -2.7342  1.7702
   26MOL   H34214892   5.010   6.564   4.191 -0.9813 -0.1776  1.0729
   26MOL   H34314893   5.048   6.542   4.020  3.3385 -0.9687  2.9099
   26MOL   H34414894   4.795   6.467   3.988 -2.4378  2.5292 -0.8968
   26MOL   H34514895   4.781   6.477   4.159 -0.4717 -0.0340 -0.0860
   26MOL   H34614896   4.614   6.625   4.056 -0.0289  0.4381 -0.5958
   26MOL   H34714897   4.600   6.688   4.269  0.6029 -2.2370 -0.4623
   26MOL   H34814898   4.594   6.888   4.106  0.8217  0.8547 -0.4142
   26MOL   H34914899   4.762   6.888   4.039 -0.7129  0.2504 -2.5430
   26MOL   C35014900   4.696   6.821   3.813 -1.0474 -0.0551 -0.0078
   26MOL   C35114901   4.635   6.809   3.665 -0.4915 -0.2912  0.7039
   26MOL   O35214902   4.733   6.848   3.572 -0.2817  0.3108  0.0768
   26MOL   C35314903   4.613   6.657   3.639  0.7517  0.1774 -0.2467
   26MOL   O35414904   4.543   6.633   3.513 -0.1652  0.3974 -0.1456
   26MOL   C35514905   4.406   6.670   3.506 -0.6987 -0.3077  0.1498
   26MOL   C35614906   4.343   6.628   3.383 -0.0757 -0.0773  0.1731
   26MOL   C35714907   4.195   6.605   3.400  0.3035 -0.2069 -0.6029
   26MOL   O35814908   4.139   6.721   3.462  0.4979 -0.2733 -0.1306
   26MOL   C35914909   4.004   6.738   3.446 -0.7683 -1.7932  0.2372
   26MOL   O36014910   3.936   6.638   3.503 -0.1010  0.2490 -0.2054
   26MOL   C36114911   3.964   6.874   3.498 -0.6143  0.5804 -0.7063
   26MOL   O36214912   3.997   6.970   3.403  0.2171  0.2185  0.0857
   26MOL   H36314913   4.760   6.733   3.824  0.6341  1.0513 -0.7400
   26MOL   H36414914   4.761   6.907   3.799 -2.8943  0.9323 -2.9011
   26MOL   H36514915   4.545   6.870   3.664 -0.2200  0.1128  0.8462
   26MOL   H36614916   4.721   6.941   3.559  1.7133  0.3130 -2.0661
   26MOL   H36714917   4.713   6.613   3.642  0.3333 -0.9020 -1.7318
   26MOL   H36814918   4.564   6.615   3.728 -1.5697  0.0563 -1.5419
   26MOL   H36914919   4.397   6.778   3.519  0.8432  0.1465 -2.1630
   26MOL   H37014920   4.347   6.626   3.587 -1.4153  0.6051  0.1299
   26MOL   H37114921   4.392   6.542   3.338  0.7219  0.4685 -0.0054
   26MOL   H37214922   4.358   6.703   3.306  4.8844  0.0991  1.1627
   26MOL   H37314923   4.150   6.573   3.306  1.3962 -1.2842 -0.7729
   26MOL   H37414924   4.183   6.512   3.456  1.8002 -1.0571 -1.6539
   26MOL   H37514925   3.991   6.731   3.338 -0.5884 -1.2532  0.1756
   26MOL   H37614926   3.957   6.634   3.595 -1.6069  0.5403  0.1607
   26MOL   H37714927   3.858   6.888   3.518 -0.6134  0.7775 -0.8455
   26MOL   H37814928   4.020   6.892   3.590  0.9773 -0.2554 -1.4850
   26MOL   C37914929   4.028   7.101   3.429  0.4418  0.4089  0.1474
   26MOL   C38014930   4.179   7.100   3.467  0.0394  0.3139 -0.4031
   26MOL   O38114931   4.242   7.067   3.349  0.1948  0.2855  0.1333
   26MOL   C38214932   4.216   7.247   3.500 -0.5971 -0.0014  0.1537
   26MOL   O38314933   4.336   7.258   3.578 -0.2687 -0.1055  0.2006
   26MOL   C38414934   4.369   7.390   3.590  0.1632 -0.2566  0.2403
   26MOL   C38514935   4.509   7.401   3.653 -0.4217 -0.2755 -0.1493
   26MOL   C38614936   4.540   7.519   3.742 -0.3307 -0.2289  0.2325
   26MOL   O38714937   4.684   7.520   3.755 -0.4274  0.0449  0.1966
   26MOL   C38814938   4.722   7.616   3.851  0.3884 -0.5330 -0.0405
   26MOL   O38914939   4.704   7.565   3.978 -0.2183  0.4824 -0.1153
   26MOL   C39014940   4.862   7.668   3.817  1.0415 -0.4362 -0.2275
   26MOL   O39114941   4.838   0.102   3.750 -0.0873  0.3495 -0.6890
   26MOL   H39214942   3.968   7.145   3.509  0.4476 -1.3093  1.1180
   26MOL   H39314943   4.003   7.150   3.336  0.9685 -0.8551 -0.6810
   26MOL   H39414944   4.195   7.030   3.548 -1.3034 -0.4614 -0.7790
   26MOL   H39514945   4.189   6.998   3.312 -0.8027  0.2787  1.5509
   26MOL   H39614946   4.221   7.318   3.418 -0.4833 -0.6483 -0.3989
   26MOL   H39714947   4.135   7.290   3.560 -0.7884 -0.3700  0.1630
   26MOL   H39814948   4.301   7.446   3.655  0.9005  0.6914  0.1949
   26MOL   H39914949   4.383   7.442   3.495 -0.9216  0.9361  0.6974
   26MOL   H40014950   4.586   7.415   3.577  0.4013 -1.7637  0.3827
   26MOL   H40114951   4.545   7.307   3.696  2.3246  0.1826 -1.3106
   26MOL   H40214952   4.507   7.612   3.695 -0.1166  0.3788  1.2812
   26MOL   H40314953   4.489   7.503   3.836 -2.0218 -0.4467 -0.7034
   26MOL   H40414954   4.649   0.002   3.842 -0.7949 -1.4603  1.1917
   26MOL   H40514955   4.764   7.494   3.999 -1.4289 -0.9535 -1.3920
   26MOL   H40614956   4.919   0.002   3.906  1.7095  0.4603 -0.9237
   26MOL   H40714957   4.923   7.592   3.768 -0.0099 -1.7142  0.4122
   26MOL   C40814958   4.950   0.191   3.722 -0.1417  0.4585 -0.7641
   26MOL   C40914959   4.951   0.233   3.580 -0.1280 -0.3618  0.0277
   26MOL   O41014960   4.987   0.122   3.506 -0.0541  0.2184 -0.0809
   26MOL   C41114961   5.045   0.349   3.547 -0.6521  0.0117  0.5002
   26MOL   O41214962   5.026   0.417   3.423  0.2874  0.3378  0.3503
   26MOL   C41314963   4.920   0.506   3.438 -0.3703 -0.0433  0.0067
   26MOL   C41414964   4.883   0.583   3.312 -0.1514 -0.4286  0.1441
   26MOL   C41514965   4.741   0.640   3.314  0.3109  0.0753 -0.6650
   26MOL   O41614966   4.707   0.710   3.205  0.1559  0.1461 -0.1107
   26MOL   C41714967   4.602   0.797   3.225  0.4158 -0.4573 -0.2431
   26MOL   O41814968   4.478   0.737   3.231 -0.0107  0.1719 -0.1679
   26MOL   C41914969   4.592   0.893   3.107 -0.6227 -0.1206  0.5948
   26MOL   O42014970   4.527   0.825   3.001  0.1366  0.4916 -0.8245
   26MOL   H42114971   5.041   0.137   3.746 -1.1484 -1.2766 -0.7553
   26MOL   H42214972   4.941   0.285   3.777  2.0496  0.7256 -0.8165
   26MOL   H42314973   4.849   0.259   3.554 -0.1878 -0.3120  0.2995
   26MOL   H42414974   4.911   0.087   3.462 -0.6487 -0.0990  1.1741
   26MOL   H42514975   5.048   0.411   3.637 -0.2052  0.7400 -0.0088
   26MOL   H42614976   5.143   0.302   3.550 -0.0200  1.1048 -1.8124
   26MOL   H42714977   4.836   0.448   3.477  0.0788 -0.3930  0.4649
   26MOL   H42814978   4.941   0.584   3.512  0.3726 -1.0226  0.8537
   26MOL   H42914979   4.886   0.515   3.227 -1.0312 -0.8614  0.4467
   26MOL   H43014980   4.952   0.665   3.296 -0.4546 -0.7423 -3.0786
   26MOL   H43114981   4.669   0.559   3.307 -1.2430  1.4961 -1.4054
   26MOL   H43214982   4.721   0.700   3.403  1.9465 -0.8820  0.3803
   26MOL   H43314983   4.605   0.855   3.317 -0.7507  0.3365 -0.6960
   26MOL   H43414984   4.456   0.723   3.140 -1.3206 -3.1707  0.6163
   26MOL   H43514985   4.538   0.982   3.139 -2.6063  0.1447 -3.1858
   26MOL   H43614986   4.690   0.924   3.072 -1.5593  2.0403 -0.2084
   26MOL   C43714987   4.502   0.908   2.889 -0.0506  0.1505 -0.2743
   26MOL   C43814988   4.407   0.840   2.785 -0.2213 -0.1795  0.2400
   26MOL   O43914989   4.479   0.734   2.732 -0.1845  0.3288  0.3856
   26MOL   C44014990   4.366   0.948   2.679 -0.3431 -0.3231  0.1735
   26MOL   O44114991   4.301   1.069   2.739  0.4652  0.3239  0.6390
   26MOL   C44214992   4.290   1.186   2.654 -0.2098  0.1059 -0.1871
   26MOL   C44314993   4.201   1.285   2.732 -0.1193 -0.1769  0.0898
   26MOL   C44414994   4.166   1.418   2.657  0.0367  0.6470  0.0417
   26MOL   O44514995   4.082   1.499   2.739 -0.1304  0.5323  0.4462
   26MOL   C44614996   4.055   1.618   2.674  0.1874  0.6575 -0.8037
   26MOL   O44714997   4.172   1.686   2.651 -0.1904 -0.1185 -0.2737
   26MOL   C44814998   3.965   1.700   2.771  0.1107  0.9174  0.0324
   26MOL   O44914999   3.884   1.801   2.708 -0.6188 -0.1557  0.0265
   26MOL   H45015000   4.447   1.000   2.911  0.9084  0.5244  0.6089
   26MOL   H45115001   4.598   0.939   2.847  0.7637 -1.1830  0.5833
   26MOL   H45215002   4.330   0.804   2.853 -0.8586 -0.9197 -0.8654
   26MOL   H45315003   4.421   0.660   2.721 -0.4250  0.8193 -1.8429
   26MOL   H45415004   4.459   0.970   2.628  0.6504  0.2338  2.1510
   26MOL   H45515005   4.301   0.907   2.602 -0.7523  1.1939 -0.3162
   26MOL   H45615006   4.248   1.148   2.562  1.6526 -0.9014 -0.6452
   26MOL   H45715007   4.391   1.222   2.636 -0.0480  0.5783  1.5359
   26MOL   H45815008   4.261   1.306   2.821  1.7786  2.5745 -1.7913
   26MOL   H45915009   4.117   1.225   2.768 -1.7575  1.4069 -1.0173
   26MOL   H46015010   4.257   1.464   2.618  0.7312 -1.4995 -0.9109
   26MOL   H46115011   4.106   1.392   2.569  0.8405  1.3310 -0.7223
   26MOL   H46215012   4.014   1.596   2.576 -1.2385  1.6115 -0.4460
   26MOL   H46315013   4.202   1.717   2.735  0.0447  0.0379 -0.4148
   26MOL   H46415014   3.885   1.638   2.812 -1.2120  1.8995 -1.0328
   26MOL   H46515015   4.018   1.748   2.853  0.2643  0.9710 -0.0996
   26MOL   C46615016   3.966   1.905   2.658 -0.4486 -0.1818  0.7107
   26MOL   C46715017   3.866   2.005   2.599  0.0793 -0.5403 -0.7376
   26MOL   O46815018   3.924   2.137   2.601 -0.3554  0.1172  0.2029
   26MOL   C46915019   3.824   1.976   2.449 -0.2578  0.8151  0.0366
   26MOL   O47015020   3.701   2.039   2.410  0.3413 -0.2067  0.4219
   26MOL   C47115021   3.675   2.031   2.270 -0.6855 -0.3301 -0.4407
   26MOL   C47215022   3.522   2.025   2.262 -0.1030 -0.9194  0.8658
   26MOL   C47315023   3.484   2.014   2.112  0.7321  0.6063 -0.3445
   26MOL   O47415024   3.536   1.900   2.046  0.1798 -0.0494 -0.5431
   26MOL   C47515025   3.470   1.780   2.051 -0.1197  0.4964 -0.6822
   26MOL   O47615026   3.498   1.717   2.168  0.2072  0.3881 -0.7572
   26MOL   C47715027   3.498   1.697   1.929  0.4829  0.2853  0.3003
   26MOL   O47815028   3.374   1.653   1.873  0.6910  0.0130 -0.0258
   26MOL   H47915029   4.049   1.873   2.596 -1.5979 -0.8348 -0.5264
   26MOL   H48015030   4.019   1.961   2.735  0.1534  0.4546 -0.1522
   26MOL   H48115031   3.774   2.000   2.657  0.1044  1.8895 -0.4124
   26MOL   H48215032   3.857   2.200   2.577  0.4546  0.5278 -1.0210
   26MOL   H48315033   3.906   2.012   2.387  0.4565 -1.5753 -0.4585
   26MOL   H48415034   3.820   1.869   2.429 -0.2792  0.7395  0.4512
   26MOL   H48515035   3.723   1.939   2.236  0.7427 -0.4015  1.6916
   26MOL   H48615036   3.733   2.109   2.221  0.8560  0.8433  3.1014
   26MOL   H48715037   3.474   2.111   2.310  2.4863  1.3593 -0.4610
   26MOL   H48815038   3.487   1.938   2.318 -2.0853 -0.0389  1.0607
   26MOL   H48915039   3.383   2.035   2.074  0.0629 -1.0761  0.4776
   26MOL   H49015040   3.545   2.095   2.072  0.1569  1.8905  1.3349
   26MOL   H49115041   3.363   1.801   2.064 -0.5401 -2.2782  0.7738
   26MOL   H49215042   3.590   1.702   2.181  0.0466  0.5321  0.6715
   26MOL   H49315043   3.557   1.761   1.864  2.6220 -0.0348  1.8750
   26MOL   H49415044   3.561   1.611   1.956  0.6360  0.0012 -0.9608
   26MOL   C49515045   3.378   1.538   1.795  0.4799 -0.1066 -0.3431
   26MOL   C49615046   3.447   1.569   1.660  0.2801  0.6279  0.2699
   26MOL   O49715047   3.583   1.554   1.672 -0.5381 -0.2880 -0.2415
   26MOL   C49815048   3.401   1.485   1.544  0.2518  0.0919  0.1069
   26MOL   O49915049   3.471   1.540   1.439  0.3270  0.3123  0.0221
   26MOL   C50015050   3.451   1.465   1.318  0.1705  0.2526  0.5843
   26MOL   C50115051   3.526   1.538   1.210 -0.0867  0.5405 -0.5245
   26MOL   C50215052   3.498   1.481   1.066  0.4476  0.0164  0.1990
   26MOL   O50315053   3.607   1.515   0.976 -0.1475  0.4057  0.4639
   26MOL   C50415054   3.606   1.469   0.843 -0.5064  0.2772  0.1393
   26MOL   O50515055   3.660   1.339   0.822  0.2575 -0.0236 -0.9251
   26MOL   C50615056   3.665   1.564   0.746  0.2299  0.0878  0.1478
   26MOL   O50715057   3.807   1.564   0.774 -0.0231 -0.3459  0.0771
   26MOL   H50815058   3.273   1.514   1.782  1.0558 -0.9308 -4.0135
   26MOL   H50915059   3.423   1.453   1.848  0.2841 -0.7529 -1.2066
   26MOL   H51015060   3.422   1.670   1.630 -2.2231  0.1523  0.6704
   26MOL   H51115061   3.604   1.531   1.583 -1.9630 -0.5437 -0.5300
   26MOL   H51215062   3.432   1.382   1.556 -0.0185  0.0683  0.6359
   26MOL   H51315063   3.293   1.494   1.531  0.6493  2.4917 -1.9528
   26MOL   H51415064   3.345   1.462   1.291 -0.3235  0.0714  2.4959
   26MOL   H51515065   3.491   1.364   1.324 -0.3207 -0.0907 -1.3470
   26MOL   H51615066   3.627   1.511   1.241  0.3698  0.3135 -2.1233
   26MOL   H51715067   3.519   1.647   1.215  0.2964  0.5490 -0.1895
   26MOL   H51815068   3.500   1.372   1.068  1.7481  0.0460  2.9358
   26MOL   H51915069   3.401   1.506   1.023 -0.7679 -0.9348  2.2647
   26MOL   H52015070   3.504   1.445   0.816  0.0018  0.2481 -1.8082
   26MOL   H52115071   3.653   1.325   0.729 -1.0153  1.0148 -0.9947
   26MOL   H52215072   3.646   1.520   0.648 -1.1671 -0.8113  0.8078
   26MOL   H52315073   3.604   1.653   0.761 -0.5747 -0.8923  2.9201
   26MOL   C52415074   3.872   1.684   0.729  0.3852  0.8991  0.2199
   26MOL   C52515075   4.024   1.672   0.737  0.1179  0.4590 -0.0100
   26MOL   O52615076   4.049   1.554   0.663 -0.1215 -0.2758  0.2495
   26MOL   C52715077   4.080   1.662   0.884  0.7809  0.3820 -0.3894
   26MOL   O52815078   4.220   1.639   0.894 -0.2215  0.0402  0.1766
   26MOL   C52915079   4.312   1.711   0.813 -0.5943  0.0195 -0.0041
   26MOL   C53015080   4.450   1.686   0.856  0.3418 -0.1116 -0.3553
   26MOL   C53115081   4.550   1.714   0.735 -0.1237  0.0209  0.3120
   26MOL   O53215082   4.540   1.615   0.640  0.4798 -0.2644 -0.1227
   26MOL   C53315083   4.576   1.650   0.504  0.9043 -0.8342  0.3792
   26MOL   O53415084   4.551   1.540   0.426  0.3576  0.1916  0.5971
   26MOL   C53515085   4.482   1.759   0.450 -0.5758  0.4053 -0.3927
   26MOL   O53615086   4.353   1.727   0.489  0.1742 -0.2222 -0.0744
   26MOL   H53715087   3.830   1.760   0.796 -2.4585 -0.1001 -0.3712
   26MOL   H53815088   3.846   1.699   0.624  2.4784 -0.3861 -0.5102
   26MOL   H53915089   4.070   1.761   0.693 -3.1775  2.0298 -0.4714
   26MOL   H54015090   3.990   1.494   0.707 -1.9836  2.3823  1.5614
   26MOL   H54115091   4.051   1.748   0.944  0.2175 -0.3405  0.3753
   26MOL   H54215092   4.031   1.582   0.940 -1.3183  2.4305  0.8027
   26MOL   H54315093   4.290   1.816   0.794  0.5672 -0.2159 -2.8878
   26MOL   H54415094   4.304   1.666   0.714  2.4327 -1.1632  0.2395
   26MOL   H54515095   4.468   1.582   0.882  0.4565  0.0736  0.3054
   26MOL   H54615096   4.472   1.747   0.944 -2.5337 -0.7014  0.8534
   26MOL   H54715097   4.540   1.818   0.702 -2.4388 -0.6201 -1.1265
   26MOL   H54815098   4.647   1.711   0.785 -0.3286  2.7984  0.9640
   26MOL   H54915099   4.681   1.679   0.497  0.0493  2.2391 -0.2955
   26MOL   H55015100   4.457   1.540   0.427  0.3107  1.6557 -0.9564
   26MOL   H55115101   4.499   1.858   0.494  2.1642 -0.7690  1.3015
   26MOL   H55215102   4.496   1.759   0.342 -1.1553 -1.2846 -0.4773
   26MOL   C55315103   4.260   1.703   0.387  0.1710 -0.2040  0.0415
   26MOL   C55415104   4.199   1.836   0.336 -0.2355 -0.1998 -0.0088
   26MOL   O55515105   4.137   1.897   0.448  0.1115  0.8214 -0.5050
   26MOL   C55615106   4.105   1.818   0.221  0.3955 -0.1032  0.2161
   26MOL   O55715107   4.011   1.710   0.249 -0.2616  0.4391 -0.1783
   26MOL   C55815108   3.883   1.767   0.285  0.7895 -0.1440 -0.0241
   26MOL   C55915109   3.800   1.646   0.344 -0.1078 -0.2229 -0.3005
   26MOL   C56015110   3.659   1.678   0.374  0.1806  0.4968  0.0853
   26MOL   O56115111   3.657   1.783   0.474  0.2881 -0.1081  0.1893
   26MOL   C56215112   3.530   1.837   0.488 -0.2679  0.1811  0.0924
   26MOL   O56315113   3.450   1.764   0.571  0.0373  0.2907 -0.5620
   26MOL   C56415114   3.557   1.977   0.540  0.3605  0.1812 -0.2210
   26MOL   O56515115   3.540   1.974   0.687 -0.3511  0.1941  0.1604
   26MOL   H56615116   4.173   1.647   0.421  0.3084  1.0956  2.6803
   26MOL   H56715117   4.306   1.637   0.313  0.7868  0.2937 -0.0234
   26MOL   H56815118   4.285   1.897   0.310  1.2511 -1.3166  2.1227
   26MOL   H56915119   4.074   1.828   0.461 -0.7471  1.7190  0.1150
   26MOL   H57015120   4.063   1.915   0.195  0.4440 -0.1648 -0.0986
   26MOL   H57115121   4.175   1.787   0.144  1.7649  2.2499  0.4617
   26MOL   H57215122   3.892   1.847   0.358  0.6909 -0.9349  0.8768
   26MOL   H57315123   3.828   1.818   0.207  1.8972  0.7556 -0.2269
   26MOL   H57415124   3.842   1.607   0.436 -1.6616 -0.2887  0.4009
   26MOL   H57515125   3.789   1.564   0.272 -2.7670 -0.3197  0.1484
   26MOL   H57615126   3.612   1.706   0.279  0.5099 -2.8023 -1.0830
   26MOL   H57715127   3.595   1.596   0.407 -2.0349  1.5691 -1.3435
   26MOL   H57815128   3.482   1.850   0.391  0.3005 -1.4963 -0.4384
   26MOL   H57915129   3.435   1.826   0.641 -0.6141 -0.8028  0.2753
   26MOL   H58015130   3.659   2.015   0.534 -0.2294  1.9291  0.3321
   26MOL   H58115131   3.486   2.046   0.495 -0.5705  0.3184  1.4015
   26MOL   H58215132   3.559   2.063   0.713 -1.6284 -0.1417  2.3473
   27MOL     C115133   0.317   5.792   1.475 -0.3635 -0.2296 -0.2487
   27MOL     C215134   0.195   5.866   1.416 -0.5906 -0.3093 -0.0297
   27MOL     O315135   0.087   5.856   1.506 -0.1979 -0.0947  0.4045
   27MOL     C415136   0.238   6.011   1.396  0.7513 -0.2103  0.3667
   27MOL     O515137   0.137   6.080   1.329 -0.4857  0.0718 -0.0972
   27MOL     C615138   0.186   6.216   1.298 -0.2255 -0.3562  0.0330
   27MOL     C715139   0.069   6.293   1.235  1.2837 -0.0726  0.7296
   27MOL     C815140   0.004   6.220   1.120  0.2643  0.1643  0.1984
   27MOL     O915141   7.576   6.284   1.072 -0.3882  0.1264  0.4653
   27MOL    C1015142   7.468   6.270   1.161 -0.1055 -0.3284  0.4435
   27MOL    O1115143   7.432   6.139   1.192 -0.5496  0.1047  0.0459
   27MOL    C1215144   7.342   6.330   1.102  0.3375 -0.1853 -0.1774
   27MOL    O1315145   7.293   6.256   0.995 -0.5653  0.4674  0.7063
   27MOL    H1415146   0.399   5.785   1.404  1.6858 -1.1470  2.1102
   27MOL    H1515147   0.276   5.699   1.512  0.4476 -0.4683  0.0643
   27MOL    H1615148   0.167   5.829   1.318 -0.3009  1.2278 -0.7019
   27MOL    H1715149   0.030   5.915   1.459  0.4368 -0.5362 -0.9535
   27MOL    H1815150   0.260   6.069   1.485 -0.3370  1.2432 -0.2789
   27MOL    H1915151   0.311   6.025   1.317  2.2630  0.2922  1.8407
   27MOL    H2015152   0.276   6.215   1.237  0.1541 -1.6002  0.5916
   27MOL    H2115153   0.207   6.267   1.393 -1.9076  1.6880 -0.6545
   27MOL    H2215154   0.102   6.385   1.187 -0.0237 -1.2094 -2.4934
   27MOL    H2315155   0.003   6.301   1.321  1.2314 -2.5067  0.9537
   27MOL    H2415156   0.054   6.229   1.024 -2.1864 -0.6420 -1.2094
   27MOL    H2515157   7.691   6.112   1.133 -2.4443  0.4077  0.9589
   27MOL    H2615158   7.491   6.319   1.255 -0.4550  0.3242  0.1883
   27MOL    H2715159   7.349   6.137   1.147 -1.4944  1.7376  1.6478
   27MOL    H2815160   7.269   6.333   1.182 -0.4605 -1.9617 -0.8241
   27MOL    H2915161   7.356   6.434   1.073  0.2509 -0.5105 -1.3974
   27MOL    H3015162   0.372   5.841   1.556 -1.1674  3.6272 -1.8898
   27MOL    C3115163   7.161   6.311   0.950  0.4982 -0.2664 -0.6187
   27MOL    C3215164   7.103   6.221   0.839 -0.6653  0.9916 -1.0236
   27MOL    O3315165   7.218   6.219   0.763 -0.1834  0.0185 -0.2860
   27MOL    C3415166   6.991   6.285   0.755 -0.1270 -0.9619  0.5170
   27MOL    O3515167   6.883   6.309   0.845 -0.5562  0.0022  0.3448
   27MOL    C3615168   6.772   6.378   0.780 -0.4976 -0.1635  0.2708
   27MOL    C3715169   6.660   6.409   0.882 -0.0919 -0.3326  0.6062
   27MOL    C3815170   6.556   6.496   0.817 -0.6476 -0.5426  0.9213
   27MOL    O3915171   6.449   6.529   0.910 -0.1195 -0.5074  0.6953
   27MOL    C4015172   6.334   6.560   0.845  0.6370  0.4875 -0.2137
   27MOL    O4115173   6.342   6.677   0.773  0.3986 -0.8600  0.2034
   27MOL    C4215174   6.218   6.585   0.954 -0.0312  0.5704 -0.3233
   27MOL    O4315175   6.265   6.693   1.037 -0.2352  0.4503  0.4325
   27MOL    H4415176   7.090   6.302   1.032 -1.5506 -1.7966 -2.4913
   27MOL    H4515177   7.148   6.415   0.922  0.3471 -0.4255 -1.1471
   27MOL    H4615178   7.069   6.129   0.888 -0.3899  1.8176  0.7833
   27MOL    H4715179   7.291   6.211   0.822 -0.5261 -0.5935  0.0593
   27MOL    H4815180   7.030   6.377   0.712 -2.3075  0.0937  0.7437
   27MOL    H4915181   6.954   6.215   0.680  0.0347 -1.3304  0.7803
   27MOL    H5015182   6.726   6.315   0.704  1.4476 -2.0048  0.5668
   27MOL    H5115183   6.803   6.475   0.744  0.5391 -0.6813 -0.2522
   27MOL    H5215184   6.688   6.453   0.977 -2.3034  2.4656  0.0431
   27MOL    H5315185   6.617   6.311   0.903  2.3231 -1.5816 -0.1399
   27MOL    H5415186   6.598   6.593   0.789  0.1788 -1.1685 -0.0340
   27MOL    H5515187   6.513   6.448   0.729  0.1719 -2.4088  1.5144
   27MOL    H5615188   6.305   6.482   0.775  2.8232 -0.1803 -0.4300
   27MOL    H5715189   6.328   6.741   0.841 -2.3816 -2.3913  1.1663
   27MOL    H5815190   6.131   6.612   0.895  0.0824 -1.3321 -1.4208
   27MOL    H5915191   6.201   6.496   1.014  1.7792  1.1685  1.1225
   27MOL    C6015192   6.176   6.730   1.145  0.8930 -0.0544 -0.1640
   27MOL    C6115193   6.040   6.776   1.090  0.7160  0.0460  0.1825
   27MOL    O6215194   6.057   6.879   0.989  0.2586 -0.1803 -0.0807
   27MOL    C6315195   5.957   6.840   1.209  0.7108  0.4251 -0.0421
   27MOL    O6415196   6.020   6.964   1.256  0.7598  0.2579  0.5325
   27MOL    C6515197   6.007   6.990   1.395  0.1749 -0.1869 -0.8919
   27MOL    C6615198   6.078   6.891   1.489 -0.2972  0.2000  0.8323
   27MOL    C6715199   6.058   6.916   1.639  0.0754  0.0685 -0.0491
   27MOL    O6815200   6.142   6.836   1.717 -0.0369  0.2262  0.2686
   27MOL    C6915201   6.138   6.843   1.856  0.3608 -0.4087  0.1672
   27MOL    O7015202   6.034   6.774   1.912  0.1898 -0.2665 -0.5952
   27MOL    C7115203   6.274   6.793   1.908  0.0166 -0.9429 -0.5145
   27MOL    O7215204   6.295   6.664   1.854 -0.3472  0.1260 -0.2123
   27MOL    H7315205   6.225   6.805   1.207 -0.9617 -0.3552  1.7404
   27MOL    H7415206   6.165   6.652   1.220  1.4190  0.8004  0.8271
   27MOL    H7515207   5.982   6.694   1.048 -0.4296  0.5400  0.7967
   27MOL    H7615208   6.115   6.941   1.031 -0.3226  0.9812 -0.9433
   27MOL    H7715209   5.856   6.854   1.171  1.0446 -2.3489 -2.0627
   27MOL    H7815210   5.962   6.755   1.277 -0.5888  1.1563  0.9706
   27MOL    H7915211   5.902   6.992   1.423  1.0325  0.3718  2.5576
   27MOL    H8015212   6.050   7.088   1.417 -0.1120 -0.3646  0.5603
   27MOL    H8115213   6.181   6.900   1.457 -0.3700  0.5557  0.6914
   27MOL    H8215214   6.051   6.787   1.470  1.2102  0.3089 -2.0304
   27MOL    H8315215   5.955   6.895   1.667 -0.8965  2.2987 -1.7773
   27MOL    H8415216   6.056   7.020   1.671 -2.5816  0.0811 -0.1302
   27MOL    H8515217   6.123   6.949   1.878 -0.3625 -0.6291  0.7374
   27MOL    H8615218   6.059   6.685   1.892 -1.5192 -0.6926 -0.8447
   27MOL    H8715219   6.353   6.864   1.881 -0.9067  1.0930  1.9116
   27MOL    H8815220   6.275   6.789   2.017 -0.9107  1.0625 -0.4146
   27MOL    C8915221   6.427   6.621   1.889  0.4338  0.0782  0.2349
   27MOL    C9015222   6.443   6.476   1.836 -0.0607 -0.5905  0.2511
   27MOL    O9115223   6.579   6.444   1.851 -0.2897 -0.1588  0.1337
   27MOL    C9215224   6.359   6.375   1.919 -0.7874 -0.0714  0.2393
   27MOL    O9315225   6.377   6.242   1.868  0.0392  0.3462  0.3377
   27MOL    C9415226   6.325   6.141   1.949 -0.2474  0.3098  0.0457
   27MOL    C9515227   6.351   6.000   1.891  0.4894 -0.2707  0.3182
   27MOL    C9615228   6.297   5.889   1.981  0.3476  0.7695  0.3251
   27MOL    O9715229   6.294   5.760   1.920 -0.5238 -0.5174 -0.2678
   27MOL    C9815230   6.255   5.654   2.008 -0.2595 -0.1482 -0.2840
   27MOL    O9915231   6.124   5.668   2.052 -0.1204  0.4297 -0.2123
   27MOL   C10015232   6.270   5.523   1.934  0.0436  0.2995  0.2801
   27MOL   O10115233   6.177   5.518   1.824 -0.0316 -0.1079 -0.3292
   27MOL   H10215234   6.439   6.634   1.996  2.0191 -0.8042  0.1833
   27MOL   H10315235   6.503   6.683   1.841  0.6959  0.4675  1.1364
   27MOL   H10415236   6.420   6.481   1.730  1.4952 -0.9152 -0.1071
   27MOL   H10515237   6.587   6.404   1.936  1.7009  0.5836  0.3125
   27MOL   H10615238   6.398   6.381   2.021  0.0231  0.4637 -0.1022
   27MOL   H10715239   6.254   6.398   1.938 -0.3575  1.1592  1.2103
   27MOL   H10815240   6.216   6.145   1.947 -0.2273  0.3052 -1.1228
   27MOL   H10915241   6.354   6.150   2.054 -0.5161  0.3188  0.1190
   27MOL   H11015242   6.457   5.990   1.868  0.6459 -0.0401  0.9314
   27MOL   H11115243   6.297   5.997   1.796  1.3520 -1.2964 -0.1433
   27MOL   H11215244   6.355   5.879   2.073  0.1478  0.0082  0.3739
   27MOL   H11315245   6.194   5.919   2.004  0.8085  0.9105  2.2966
   27MOL   H11415246   6.317   5.657   2.097  0.0844 -0.3671 -0.5155
   27MOL   H11515247   6.066   5.649   1.980 -0.8032 -1.9193  0.9250
   27MOL   H11615248   6.371   5.503   1.896 -0.7650 -0.5512 -1.4592
   27MOL   H11715249   6.241   5.435   1.992 -4.8784  0.8105 -1.2623
   27MOL   C11815250   6.167   5.382   1.779 -0.3047  0.6057  0.1188
   27MOL   C11915251   6.040   5.364   1.699 -0.8671 -0.4938 -0.4896
   27MOL   O12015252   6.026   5.229   1.668  0.2185  0.0199 -0.5021
   27MOL   C12115253   6.051   5.448   1.574 -0.3586  0.2628  0.9403
   27MOL   O12215254   5.915   5.469   1.511 -0.3659 -0.3379 -0.0086
   27MOL   C12315255   5.919   5.570   1.409 -0.2324  0.7002  0.7853
   27MOL   C12415256   5.785   5.571   1.326  0.5957 -0.0733 -0.6787
   27MOL   C12515257   5.759   5.698   1.245  0.1237  0.5089  0.8048
   27MOL   O12615258   5.636   5.671   1.173  0.6368  0.0919 -0.0059
   27MOL   C12715259   5.613   5.742   1.056  1.0709  1.0772  0.4267
   27MOL   O12815260   5.709   5.712   0.956  0.2674 -0.0682  0.1821
   27MOL   C12915261   5.606   5.898   1.081  0.4743 -0.9909  0.3389
   27MOL   O13015262   5.479   5.945   1.128  0.4161 -0.2126  0.0881
   27MOL   H13115263   6.253   5.369   1.712 -2.3960 -1.0932 -2.3570
   27MOL   H13215264   6.184   5.307   1.857  1.5187  1.3490  0.4553
   27MOL   H13315265   5.954   5.393   1.760 -2.1749 -1.1887 -1.9880
   27MOL   H13415266   5.935   5.229   1.644  0.1152 -0.1954 -0.1202
   27MOL   H13515267   6.089   5.546   1.605  0.1331 -0.0456  1.3355
   27MOL   H13615268   6.130   5.412   1.507 -2.2876 -0.9760 -0.7211
   27MOL   H13715269   6.006   5.571   1.343 -1.4722  0.2499 -0.8963
   27MOL   H13815270   5.926   5.665   1.462 -1.4109  1.0917  0.2612
   27MOL   H13915271   5.705   5.553   1.398  0.7019  1.7635 -0.0756
   27MOL   H14015272   5.785   5.489   1.255  2.7455 -0.3467 -0.4140
   27MOL   H14115273   5.747   5.785   1.310 -0.7288 -0.3282  1.7903
   27MOL   H14215274   5.844   5.712   1.180 -0.3960  2.4855  0.5203
   27MOL   H14315275   5.517   5.710   1.016  0.7423  1.9602  0.4871
   27MOL   H14415276   5.681   5.754   0.876  0.3309  0.8153  0.6172
   27MOL   H14515277   5.693   5.928   1.140 -0.0870 -1.3014  1.3335
   27MOL   H14615278   5.625   5.943   0.983 -0.9288  0.0470  0.5224
   27MOL   C14715279   5.436   5.907   1.259 -0.5687  1.1548 -0.1131
   27MOL   C14815280   5.286   5.900   1.270  0.3249 -0.0056 -0.1702
   27MOL   O14915281   5.269   5.889   1.409  0.3916 -0.3178  0.1828
   27MOL   C15015282   5.229   5.777   1.203  0.0678 -0.1779  0.0953
   27MOL   O15115283   5.090   5.759   1.232 -0.4635 -0.2540  0.9110
   27MOL   C15215284   5.070   5.667   1.336 -0.4843 -0.6635 -0.1525
   27MOL   C15315285   5.130   5.528   1.306  0.3644  0.2135  0.4070
   27MOL   C15415286   5.071   5.432   1.408  0.3795  0.3645  0.7964
   27MOL   O15515287   5.137   5.298   1.405  0.1757  0.0392  0.3425
   27MOL   C15615288   5.098   5.218   1.513  0.4772  0.6939  0.2897
   27MOL   O15715289   5.153   5.272   1.633 -0.2026 -0.1670 -0.2098
   27MOL   C15815290   5.169   5.081   1.490  0.3340  0.4549  0.7903
   27MOL   O15915291   5.098   5.000   1.398  0.2269  0.0072 -1.5601
   27MOL   H16015292   5.491   5.974   1.325 -0.1949  0.5456  0.2015
   27MOL   H16115293   5.481   5.812   1.286  2.0727  1.4865 -3.0505
   27MOL   H16215294   5.238   5.992   1.237  2.1149  0.6798 -0.9607
   27MOL   H16315295   5.181   5.919   1.427  0.3038 -0.6869  0.3743
   27MOL   H16415296   5.243   5.799   1.097  1.4021 -0.3541  0.2160
   27MOL   H16515297   5.293   5.688   1.205  0.5922  0.2197  0.9895
   27MOL   H16615298   4.963   5.650   1.336 -1.0698  2.6491 -0.1508
   27MOL   H16715299   5.108   5.702   1.432  1.5120  3.0380 -2.1665
   27MOL   H16815300   5.237   5.514   1.321  0.4233  0.3197  0.0811
   27MOL   H16915301   5.113   5.499   1.203 -1.0026  1.0167  0.4006
   27MOL   H17015302   5.082   5.477   1.507 -2.7644  2.6268  0.1920
   27MOL   H17115303   4.962   5.423   1.402  0.3522 -1.0193  2.7979
   27MOL   H17215304   4.990   5.203   1.512  0.4699  0.8438 -1.4987
   27MOL   H17315305   5.241   5.238   1.639 -0.0166  0.3467 -0.0121
   27MOL   H17415306   5.264   5.102   1.441 -0.0604  0.2945 -0.0558
   27MOL   H17515307   5.177   5.021   1.581  1.3800 -0.6336 -0.0032
   27MOL   C17615308   5.102   5.045   1.260  0.6703  0.7082 -0.0201
   27MOL   C17715309   5.054   4.921   1.176 -0.2391  0.6540 -0.2852
   27MOL   O17815310   5.162   4.890   1.089 -0.4380  0.0272 -0.3013
   27MOL   C17915311   4.919   4.955   1.119  0.2120 -0.9477 -0.4423
   27MOL   O18015312   4.917   5.064   1.029 -0.1194  0.4948  0.2126
   27MOL   C18115313   4.792   5.134   1.004 -0.3754  0.4197  0.0970
   27MOL   C18215314   4.826   5.230   0.900  0.7133 -0.5928  0.4486
   27MOL   C18315315   4.721   5.349   0.887 -0.0798 -0.2952 -0.2471
   27MOL   O18415316   4.747   5.423   0.770 -0.4561  0.0538 -0.1362
   27MOL   C18515317   4.680   5.547   0.755 -0.3200  0.0869 -0.4093
   27MOL   O18615318   4.673   5.581   0.621 -0.2926 -0.3780 -0.4416
   27MOL   C18715319   4.761   5.659   0.830  0.2099  0.0507 -0.4331
   27MOL   O18815320   4.719   5.675   0.966  0.2070  0.8670  0.3378
   27MOL   H18915321   5.203   5.077   1.232  1.7186  0.1986  2.9401
   27MOL   H19015322   5.048   5.138   1.247 -1.3127 -0.5324 -0.9267
   27MOL   H19115323   5.042   4.837   1.245  1.8911  1.1309  0.6846
   27MOL   H19215324   5.160   4.944   1.011  0.7288  1.0347  0.3319
   27MOL   H19315325   4.870   4.870   1.071 -0.2023  0.5918 -2.8039
   27MOL   H19415326   4.850   4.975   1.201 -0.2058  2.4708 -1.5620
   27MOL   H19515327   4.754   5.177   1.096 -1.3648  2.1331 -1.0778
   27MOL   H19615328   4.717   5.065   0.966  0.3460  0.0985 -0.7675
   27MOL   H19715329   4.827   5.178   0.804 -1.0438  0.5112 -0.1833
   27MOL   H19815330   4.927   5.267   0.919  0.3751  0.1193  0.8640
   27MOL   H19915331   4.616   5.320   0.884 -0.2171 -0.0987  2.1891
   27MOL   H20015332   4.729   5.411   0.976 -0.0614 -1.9291  0.9022
   27MOL   H20115333   4.576   5.545   0.786 -0.0555 -1.3940  0.4321
   27MOL   H20215334   4.584   5.555   0.605 -1.4894  2.4971  1.1643
   27MOL   H20315335   4.868   5.637   0.834 -0.2632 -2.1153  3.9639
   27MOL   H20415336   4.759   5.755   0.777  2.9977 -0.9786 -2.5003
   27MOL   C20515337   4.820   5.725   1.052  0.3697 -0.0332 -0.0028
   27MOL   C20615338   4.821   5.880   1.060 -0.0157  0.0593 -0.3721
   27MOL   O20715339   4.886   5.925   1.180 -0.5708 -0.0415 -0.3570
   27MOL   C20815340   4.882   5.948   0.940 -0.1982  0.6428  0.8309
   27MOL   O20915341   5.011   5.885   0.904  0.1811  0.0749 -0.3075
   27MOL   C21015342   5.097   5.972   0.833 -0.6537  0.7876 -0.4733
   27MOL   C21115343   5.230   5.908   0.794 -0.2187 -0.4561  1.2560
   27MOL   C21215344   5.316   6.005   0.714 -0.2612 -0.0371  0.1820
   27MOL   O21315345   5.394   5.942   0.615  0.2126  0.6052 -0.3320
   27MOL   C21415346   5.485   5.844   0.650 -0.0669 -0.0689 -0.3083
   27MOL   O21515347   5.582   5.879   0.743 -0.0462 -0.6092 -0.3426
   27MOL   C21615348   5.555   5.783   0.527  0.1806  0.2378  0.1908
   27MOL   O21715349   5.633   5.879   0.445  0.3759 -0.1266 -0.0873
   27MOL   H21815350   4.920   5.694   1.024 -0.2193 -0.5945 -1.5357
   27MOL   H21915351   4.794   5.682   1.149  2.2100  1.2699  1.0922
   27MOL   H22015352   4.716   5.910   1.069 -0.4760 -1.3976 -0.6934
   27MOL   H22115353   4.969   5.879   1.178 -0.4306  0.2129 -0.3246
   27MOL   H22215354   4.809   5.945   0.860  1.3307  0.3725 -0.5906
   27MOL   H22315355   4.902   6.054   0.959  3.5797 -0.2716  2.3813
   27MOL   H22415356   5.123   6.068   0.876 -3.0482  2.7211 -3.1120
   27MOL   H22515357   5.049   5.992   0.737 -1.3603  1.5943  0.0400
   27MOL   H22615358   5.197   5.826   0.731 -3.2525  0.0856  2.0384
   27MOL   H22715359   5.291   5.861   0.872  2.0618  0.8839  0.3278
   27MOL   H22815360   5.252   6.076   0.663 -0.5056 -0.9775 -0.8546
   27MOL   H22915361   5.379   6.060   0.784  1.2508 -2.4045  0.7656
   27MOL   H23015362   5.434   5.756   0.691  0.6517 -0.0557  0.6245
   27MOL   H23115363   5.642   5.929   0.689  0.8926 -1.4688 -0.1074
   27MOL   H23215364   5.614   5.695   0.550  1.8335  1.4093  0.5215
   27MOL   H23315365   5.481   5.734   0.463  3.2781 -0.9789 -2.6067
   27MOL   C23415366   5.676   5.834   0.320 -0.2109  0.1689 -0.3958
   27MOL   C23515367   5.822   5.888   0.296  0.4442  0.4699  0.2257
   27MOL   O23615368   5.923   5.839   0.379  0.2107 -0.1457 -0.2655
   27MOL   C23715369   5.836   6.038   0.295  0.9478  0.5173 -0.6547
   27MOL   O23815370   5.957   6.066   0.219 -0.1834  0.0935  0.0658
   27MOL   C23915371   5.987   6.204   0.201  0.1367  0.1817  0.3040
   27MOL   C24015372   5.908   6.285   0.104  0.3210 -0.6408  0.4695
   27MOL   C24115373   5.963   6.420   0.075  0.3853  0.4432 -0.3259
   27MOL   O24215374   5.890   6.479   7.661  0.1416  0.4113  0.9604
   27MOL   C24315375   5.950   6.592   7.606  0.4232 -0.2674  0.7464
   27MOL   O24415376   5.979   6.686   0.006  0.3212  0.0631 -0.3538
   27MOL   C24515377   5.856   6.654   7.496 -0.3616  0.1178  0.0918
   27MOL   O24615378   5.742   6.720   7.545 -0.4306 -0.2184  0.0814
   27MOL   H24715379   5.667   5.725   0.320  0.2346  0.1271 -0.7095
   27MOL   H24815380   5.608   5.875   0.245 -1.4753  0.8830  1.1214
   27MOL   H24915381   5.848   5.850   0.198  1.5163  2.5308 -0.3219
   27MOL   H25015382   6.002   5.878   0.344  0.6487  0.9062  1.8049
   27MOL   H25115383   5.746   6.080   0.251  1.1982  2.6137  0.7797
   27MOL   H25215384   5.837   6.087   0.392 -2.5923  0.2920 -0.4323
   27MOL   H25315385   6.094   6.216   0.186 -0.4389  0.2885 -4.4997
   27MOL   H25415386   5.975   6.238   0.304 -1.2277 -1.1021  0.5861
   27MOL   H25515387   5.800   6.294   0.115 -0.1332  1.3315 -4.1948
   27MOL   H25615388   5.906   6.240   0.004  3.1295 -0.1187  0.1453
   27MOL   H25715389   5.976   6.485   0.162 -0.1848  2.3920 -1.6650
   27MOL   H25815390   6.067   6.399   0.049  0.3798 -0.2897  0.2305
   27MOL   H25915391   6.047   6.562   7.566  0.1818 -1.1586  0.8085
   27MOL   H26015392   6.046   6.741   7.663 -1.9767  2.4081 -1.1751
   27MOL   H26115393   5.922   6.714   7.433  0.7849 -1.4791 -0.2453
   27MOL   H26215394   5.818   6.580   7.427 -1.9999 -0.6946  1.8075
   27MOL   C26315395   5.686   6.788   7.432  0.4871  0.7434 -0.6487
   27MOL   C26415396   5.577   6.884   7.490  0.6640  0.3155  0.0076
   27MOL   O26515397   5.633   6.996   7.540 -0.3750  0.0787 -0.0038
   27MOL   C26615398   5.457   6.924   7.408  0.5839  0.0861  0.7000
   27MOL   O26715399   5.498   6.994   7.289 -0.3065 -0.0165  0.3404
   27MOL   C26815400   5.396   7.045   7.207 -0.5361 -0.0887  0.3544
   27MOL   C26915401   5.440   7.155   7.105 -0.8788 -0.3425  0.5342
   27MOL   C27015402   5.332   7.258   7.081  0.6729  0.6878  0.1164
   27MOL   O27115403   5.320   7.341   7.187  0.1349 -0.4320 -0.1140
   27MOL   C27215404   5.221   7.432   7.193 -0.2778 -0.1402 -1.4044
   27MOL   O27315405   5.094   7.376   7.233  0.1137 -0.0647  0.5786
   27MOL   C27415406   5.260   7.532   7.300 -0.2097  0.3617  0.1785
   27MOL   O27515407   5.225   7.491   7.436  0.6160 -0.8469 -0.1356
   27MOL   H27615408   5.641   6.705   7.378  2.5813 -0.7887 -0.0838
   27MOL   H27715409   5.764   6.841   7.377  1.6463 -0.3067 -0.0146
   27MOL   H27815410   5.525   6.830   7.569 -2.7213  0.9014 -1.7279
   27MOL   H27915411   5.698   6.967   7.602  0.4841  0.3216 -0.7786
   27MOL   H28015412   5.388   6.844   7.381 -2.3038  2.2285  1.3871
   27MOL   H28115413   5.394   6.991   7.467  0.9396 -0.5324  1.7993
   27MOL   H28215414   5.337   7.097   7.282  0.1812 -0.5089  1.2330
   27MOL   H28315415   5.337   6.967   7.159 -0.6320  0.1888  0.0225
   27MOL   H28415416   5.457   7.101   7.012  2.8168 -0.0930  0.9906
   27MOL   H28515417   5.528   7.213   7.133 -0.3285 -1.4934  1.2764
   27MOL   H28615418   5.372   7.311   6.995 -1.3758  0.1794 -1.1801
   27MOL   H28715419   5.236   7.210   7.061  0.9750 -0.8356  2.1529
   27MOL   H28815420   5.223   7.483   7.096  4.0017 -0.7450 -1.7093
   27MOL   H28915421   5.098   7.377   7.327  0.0833 -0.5303  0.5879
   27MOL   H29015422   5.365   7.557   7.291 -0.5148  1.2983 -1.0746
   27MOL   H29115423   5.208   7.625   7.274  1.0665  0.0734 -3.8361
   27MOL   C29215424   5.294   7.377   7.482 -0.1864  0.0852  0.1823
   27MOL   C29315425   5.269   7.350   7.632  0.7409  0.4151  0.2732
   27MOL   O29415426   5.132   7.323   7.636  0.1622 -0.2484 -0.2401
   27MOL   C29515427   5.352   7.237   0.003  1.0470 -0.4725  0.0461
   27MOL   O29615428   5.427   7.288   0.115 -0.2726  0.2065  0.0669
   27MOL   C29715429   5.521   7.383   0.089  0.7829  0.0092  0.2860
   27MOL   C29815430   5.623   7.392   0.204  0.0633  0.0005  0.1371
   27MOL   C29915431   5.757   7.465   0.162 -0.1905  0.1429 -0.2974
   27MOL   O30015432   5.715   7.600   0.119  0.0507 -0.3389 -0.2997
   27MOL   C30115433   5.808   7.667   0.034  0.3165 -0.5304 -0.3638
   27MOL   O30215434   5.792   7.627   7.593  0.1501  0.4017  0.4129
   27MOL   C30315435   5.778   0.126   0.046 -0.6585  0.3581  0.3582
   27MOL   O30415436   5.891   0.209   0.012  0.0957  0.1159  0.0553
   27MOL   H30515437   5.280   7.284   7.427  2.4431  0.8529 -1.8735
   27MOL   H30615438   5.400   7.404   7.479 -0.3838  1.0547  1.4689
   27MOL   H30715439   5.276   7.442   7.690 -2.3877 -0.5032  2.1907
   27MOL   H30815440   5.082   7.403   7.642 -3.3342 -2.4351  1.6318
   27MOL   H30915441   5.285   7.165   0.050  0.7846 -0.0996  0.2531
   27MOL   H31015442   5.429   7.197   7.632  5.3848  3.6746  2.3013
   27MOL   H31115443   5.485   7.485   0.072  1.0497 -0.2611 -2.0192
   27MOL   H31215444   5.584   7.357   0.004  1.2677 -1.4321  1.0837
   27MOL   H31315445   5.644   7.292   0.241 -0.3075 -0.1056  0.0600
   27MOL   H31415446   5.585   7.453   0.286  0.1167 -0.1987  0.3114
   27MOL   H31515447   5.832   7.469   0.242  1.7218  1.3225 -2.0907
   27MOL   H31615448   5.807   7.412   0.081 -1.6448  0.7495 -1.6158
   27MOL   H31715449   5.914   7.658   0.058  0.3230 -0.3496 -0.3250
   27MOL   H31815450   5.719   7.679   7.563 -0.4764  0.2049  1.5749
   27MOL   H31915451   5.755   0.153   0.149 -0.7452 -3.6693  1.4946
   27MOL   H32015452   5.690   0.151   7.681 -1.0200 -0.0480  0.7116
   27MOL   C32115453   5.873   0.352   0.022 -0.4658 -0.6441  0.9295
   27MOL   C32215454   6.000   0.438   7.691  0.2606  0.0380 -0.3152
   27MOL   O32315455   6.027   0.403   7.558  0.1524  0.0558 -0.4606
   27MOL   C32415456   5.982   0.586   0.028  0.7924  0.1651  0.4517
   27MOL   O32515457   5.970   0.629   0.158  0.1413  0.2811 -0.7936
   27MOL   C32615458   6.081   0.583   0.239 -0.2905  0.4335  0.1881
   27MOL   C32715459   6.085   0.652   0.375  0.0835 -0.0053 -0.1283
   27MOL   C32815460   6.208   0.633   0.457  0.6742 -0.0127  0.4551
   27MOL   O32915461   6.182   0.701   0.579 -0.2729 -0.3818 -0.4867
   27MOL   C33015462   6.267   0.668   0.691 -0.4691 -0.1395  0.2852
   27MOL   O33115463   6.387   0.742   0.682 -0.5955  0.1995 -0.1812
   27MOL   C33215464   6.188   0.722   0.815  0.5873 -0.1345 -0.0295
   27MOL   O33315465   6.147   0.861   0.794 -0.5232  0.4853  0.1101
   27MOL   H33415466   5.827   0.380   0.116 -2.3113  0.0826 -0.1610
   27MOL   H33515467   5.797   0.367   7.639 -0.4728  2.1031  1.4314
   27MOL   H33615468   6.083   0.403   0.058  0.6225  1.3528 -0.0336
   27MOL   H33715469   6.002   0.312   7.551  0.2933 -0.1018  1.0846
   27MOL   H33815470   5.894   0.625   7.672 -0.3115 -1.9120  0.6894
   27MOL   H33915471   6.065   0.640   7.679 -0.3582  2.8360  1.4740
   27MOL   H34015472   6.182   0.593   0.201 -1.1875 -1.4515 -2.8313
   27MOL   H34115473   6.054   0.480   0.263 -0.5330  0.2187 -0.9833
   27MOL   H34215474   6.055   0.756   0.361 -0.5032 -0.1913 -0.2766
   27MOL   H34315475   6.005   0.610   0.436  0.8032  2.3326  2.5124
   27MOL   H34415476   6.223   0.525   0.465 -1.8263 -0.5769 -1.6134
   27MOL   H34515477   6.297   0.674   0.409  0.6255 -0.5456 -0.1013
   27MOL   H34615478   6.290   0.564   0.710 -1.7121 -1.0343 -2.7504
   27MOL   H34715479   6.375   0.821   0.733  1.6813  2.6963 -3.2862
   27MOL   H34815480   6.104   0.658   0.839  1.0502 -0.6670  0.1890
   27MOL   H34915481   6.250   0.721   0.905  1.3429 -1.4278 -0.5466
   27MOL   C35015482   6.013   0.888   0.760 -0.1174  0.2235  0.2842
   27MOL   C35115483   6.025   1.025   0.695 -0.5294 -0.0938 -0.5231
   27MOL   O35215484   6.093   0.981   0.580 -0.3248 -0.2843  0.0336
   27MOL   C35315485   5.893   1.098   0.657 -0.3229 -0.6061  0.1996
   27MOL   O35415486   5.911   1.236   0.640  0.6361 -0.0004  0.1306
   27MOL   C35515487   5.953   1.275   0.512 -0.3626 -0.5050 -0.5426
   27MOL   C35615488   6.090   1.338   0.518  0.3659 -1.1906  0.7526
   27MOL   C35715489   6.143   1.382   0.389 -0.4654 -0.1308  0.6160
   27MOL   O35815490   6.266   1.439   0.431 -0.2992  0.7266  0.0422
   27MOL   C35915491   6.346   1.485   0.326  0.1061 -0.1797 -0.2161
   27MOL   O36015492   6.293   1.608   0.277  0.3225  0.0955 -0.2644
   27MOL   C36115493   6.481   1.516   0.387  0.3803 -0.7716  0.4479
   27MOL   O36215494   6.576   1.413   0.373 -0.1818 -0.6001  0.0318
   27MOL   H36315495   5.967   0.900   0.858  0.9972 -2.0420  1.1250
   27MOL   H36415496   5.966   0.821   0.687  2.7725 -0.5330 -0.9420
   27MOL   H36515497   6.090   1.086   0.758 -1.7888  0.3341  0.3751
   27MOL   H36615498   6.112   0.891   0.602  1.5889  0.2128  0.5152
   27MOL   H36715499   5.826   1.049   0.587 -1.5175 -1.6284  2.0446
   27MOL   H36815500   5.833   1.082   0.746 -1.0096 -0.5140 -0.2488
   27MOL   H36915501   5.879   1.348   0.478  0.0273  1.3829  2.4313
   27MOL   H37015502   5.941   1.185   0.452 -1.7772  1.3121 -3.0886
   27MOL   H37115503   6.169   1.283   0.569 -0.2045 -1.4880  1.3339
   27MOL   H37215504   6.067   1.424   0.580 -1.0118  0.2357 -1.6560
   27MOL   H37315505   6.148   1.291   0.328  1.0469 -1.0309  2.0459
   27MOL   H37415506   6.080   1.458   0.343  0.2815 -0.5189 -1.0846
   27MOL   H37515507   6.361   1.416   0.242 -1.5789  0.3673 -0.9901
   27MOL   H37615508   6.201   1.598   0.259 -0.5280  2.1938  2.5671
   27MOL   H37715509   6.525   1.604   0.340  1.0185 -1.0995  0.4175
   27MOL   H37815510   6.468   1.535   0.494 -1.2652  0.0306  0.1149
   27MOL   C37915511   6.575   1.309   0.463 -0.0660 -0.5860 -0.2352
   27MOL   C38015512   6.685   1.206   0.419  0.4733 -0.2004 -0.5202
   27MOL   O38115513   6.805   1.284   0.419  0.2424 -0.0705  0.3577
   27MOL   C38215514   6.693   1.087   0.516 -1.4777 -0.2523  0.5271
   27MOL   O38315515   6.774   0.981   0.478 -0.5392 -1.1958  0.5108
   27MOL   C38415516   6.796   0.898   0.589 -0.1997 -0.7119 -0.3500
   27MOL   C38515517   6.673   0.813   0.630  0.0069  0.1826  0.1642
   27MOL   C38615518   6.708   0.701   0.731  0.2197 -0.3713 -0.1135
   27MOL   O38715519   6.754   0.761   0.852  0.4394  0.3357 -0.6861
   27MOL   C38815520   6.753   0.673   0.962 -0.2218 -0.0013  0.3072
   27MOL   O38915521   6.869   0.596   0.969  0.6508  0.5388  0.3858
   27MOL   C39015522   6.744   0.761   1.093  0.3536 -0.0888 -0.5266
   27MOL   O39115523   6.640   0.736   1.181  0.5028 -0.4353  0.1716
   27MOL   H39215524   6.477   1.261   0.462  0.3130 -1.5380  2.5768
   27MOL   H39315525   6.593   1.345   0.564  0.0038 -1.2569 -0.0070
   27MOL   H39415526   6.664   1.174   0.317  0.8093  1.1440 -1.0206
   27MOL   H39515527   6.853   1.260   0.341 -0.7360 -2.1232  0.3460
   27MOL   H39615528   6.710   1.131   0.614  0.9191  1.8804 -0.7942
   27MOL   H39715529   6.600   1.030   0.506 -0.2833 -2.1124 -0.2035
   27MOL   H39815530   6.834   0.949   0.679 -0.5883 -0.6676 -0.2108
   27MOL   H39915531   6.876   0.834   0.552  0.6176  0.2372 -0.2647
   27MOL   H40015532   6.628   0.767   0.542 -0.3531  2.0842 -0.6803
   27MOL   H40115533   6.604   0.884   0.675 -2.3302 -0.7441 -1.8465
   27MOL   H40215534   6.614   0.647   0.743 -0.4562  0.8254  0.1592
   27MOL   H40315535   6.780   0.631   0.689 -1.2871 -0.3869 -2.8071
   27MOL   H40415536   6.671   0.602   0.953  0.2377 -0.4250 -0.5745
   27MOL   H40515537   6.894   0.600   0.878 -0.3938 -1.4768 -0.0142
   27MOL   H40615538   6.843   0.764   1.138  0.1492  1.6405 -0.1520
   27MOL   H40715539   6.724   0.863   1.062  1.3019  0.2303 -0.1219
   27MOL   C40815540   6.656   0.620   1.258 -0.5113  0.0635 -0.1645
   27MOL   C40915541   6.520   0.593   1.324  0.0653 -0.0484 -0.7209
   27MOL   O41015542   6.492   0.706   1.407 -0.2807  0.1272 -0.4228
   27MOL   C41115543   6.536   0.476   1.416 -0.2133  0.6044 -0.8963
   27MOL   O41215544   6.581   0.367   1.337 -0.3035 -0.0421 -0.0871
   27MOL   C41315545   6.600   0.254   1.418  0.0542  0.2102 -0.8117
   27MOL   C41415546   6.617   0.128   1.335 -0.3014 -0.1278  0.2341
   27MOL   C41515547   6.676   0.008   1.399  0.5325 -0.1118 -0.1788
   27MOL   O41615548   6.583   7.673   1.509  0.3566  0.0360 -0.3553
   27MOL   C41715549   6.622   7.566   1.593  0.0565  0.4653 -0.2507
   27MOL   O41815550   6.647   7.448   1.521 -0.3690 -0.2972  0.0307
   27MOL   C41915551   6.505   7.538   1.681  0.0469  0.9336  0.1081
   27MOL   O42015552   6.489   7.628   1.788 -0.3968  0.2831  0.7018
   27MOL   H42115553   6.732   0.645   1.333 -0.5382  0.1781 -0.1750
   27MOL   H42215554   6.695   0.536   1.201  0.3024  1.5455 -1.8084
   27MOL   H42315555   6.443   0.587   1.246 -2.6887  1.0786  1.8216
   27MOL   H42415556   6.411   0.686   1.451 -0.4883  0.1100 -0.8071
   27MOL   H42515557   6.615   0.494   1.488 -0.7367 -2.0278  0.3919
   27MOL   H42615558   6.440   0.457   1.463  0.1731  0.1605 -0.2777
   27MOL   H42715559   6.692   0.268   1.476 -1.5076 -0.7750  1.9915
   27MOL   H42815560   6.525   0.240   1.495 -1.4729 -1.2480 -2.5112
   27MOL   H42915561   6.679   0.159   1.250 -3.0443  0.5662 -1.6008
   27MOL   H43015562   6.520   0.117   1.287 -0.4133  3.7179 -0.6300
   27MOL   H43115563   6.683   7.620   1.327  1.5595 -0.4820  0.3260
   27MOL   H43215564   6.776   0.031   1.436  0.3245  2.9339 -1.4416
   27MOL   H43315565   6.712   7.595   1.648  0.3042  0.0884 -0.4553
   27MOL   H43415566   6.655   7.375   1.580  1.1043  0.1224  0.3467
   27MOL   H43515567   6.417   7.524   1.617  1.7611 -0.9771 -1.9083
   27MOL   H43615568   6.535   7.441   1.722  1.9765  1.2378 -0.5710
   27MOL   C43715569   6.432   0.061   1.742  0.1868  0.6231 -1.2071
   27MOL   C43815570   6.353   0.128   1.856  0.0034 -0.2660 -0.7886
   27MOL   O43915571   6.232   0.065   1.853 -0.0487  0.3790 -0.0747
   27MOL   C44015572   6.333   0.277   1.824 -0.0681 -0.6125 -0.1810
   27MOL   O44115573   6.280   0.358   1.929 -0.1983  0.6839 -0.0334
   27MOL   C44215574   6.156   0.321   1.992 -0.1859  0.1354 -0.3712
   27MOL   C44315575   6.119   0.449   2.071 -0.3358  0.4129  0.5137
   27MOL   C44415576   5.989   0.441   2.145  0.2858  0.1280 -0.5261
   27MOL   O44515577   5.959   0.573   2.188 -0.3618  0.2999 -0.0792
   27MOL   C44615578   5.830   0.590   2.232 -0.1791  0.7906 -0.5186
   27MOL   O44715579   5.733   0.572   2.131 -0.5506  0.2973 -0.1638
   27MOL   C44815580   5.824   0.736   2.281 -0.8700 -0.2168 -0.3919
   27MOL   O44915581   5.867   0.742   2.417 -0.3286  0.4456  0.0501
   27MOL   H45015582   6.518   0.113   1.700 -0.0454  0.1598 -2.2799
   27MOL   H45115583   6.367   0.045   1.655  0.1004 -1.2461 -0.8239
   27MOL   H45215584   6.389   0.120   1.958  1.0465 -1.1099 -1.2128
   27MOL   H45315585   6.254   7.670   1.875 -0.6790  0.8002  2.3113
   27MOL   H45415586   6.429   0.324   1.808  0.1441 -0.9227  0.1476
   27MOL   H45515587   6.263   0.281   1.740 -2.4114 -1.9967  1.6186
   27MOL   H45615588   6.183   0.240   2.061 -0.2551 -0.5370 -1.1193
   27MOL   H45715589   6.078   0.290   1.923  0.6914  1.3917 -1.9520
   27MOL   H45815590   6.111   0.533   2.002  0.9188  1.3597  1.5004
   27MOL   H45915591   6.199   0.475   2.139 -0.1891  0.3493  0.3660
   27MOL   H46015592   5.913   0.408   2.075  0.9532 -0.9083 -0.7747
   27MOL   H46115593   5.996   0.373   2.230 -0.3569 -0.3581 -0.8637
   27MOL   H46215594   5.804   0.519   2.310 -0.8101  1.7899  0.2010
   27MOL   H46315595   5.746   0.646   2.074  0.0669  0.2607 -0.0730
   27MOL   H46415596   5.880   0.805   2.217 -0.8224 -1.1124 -1.3215
   27MOL   H46515597   5.719   0.767   2.278 -0.9493 -0.3429  0.7146
   27MOL   C46615598   6.007   0.771   2.418  0.0007 -0.3368 -0.2795
   27MOL   C46715599   6.065   0.742   2.558  0.1498  0.2157  0.6221
   27MOL   O46815600   5.965   0.792   2.640  0.8834  0.2987 -0.1153
   27MOL   C46915601   6.086   0.595   2.598  0.3197  0.1707  0.1747
   27MOL   O47015602   6.172   0.528   2.516  0.0704  0.7759  0.3009
   27MOL   C47115603   6.173   0.387   2.523 -0.1508 -0.4175 -0.1499
   27MOL   C47215604   6.267   0.326   2.423  0.2699  0.0152  0.8220
   27MOL   C47315605   6.256   0.175   2.402  0.4095  0.2323  0.3020
   27MOL   O47415606   6.145   0.137   2.324 -0.6041 -0.1039  0.1681
   27MOL   C47515607   6.168   0.013   2.261 -0.0804  0.2907  0.0229
   27MOL   O47615608   6.271   0.023   2.163 -0.2461 -0.2623 -0.4046
   27MOL   C47715609   6.031   7.673   2.192 -0.2366 -0.2546  0.0352
   27MOL   O47815610   6.026   7.536   2.148  0.2676  0.1886 -0.2315
   27MOL   H47915611   6.015   0.879   2.402 -1.5745 -0.0886  0.4362
   27MOL   H48015612   6.074   0.711   2.356  0.3993 -0.0816 -0.0961
   27MOL   H48115613   6.152   0.806   2.578 -0.6709  1.5046  0.1384
   27MOL   H48215614   5.894   0.753   2.592  2.0741 -0.5424 -1.2303
   27MOL   H48315615   6.130   0.581   2.697  3.0437  0.8285 -0.8861
   27MOL   H48415616   5.989   0.546   2.592  0.2857 -0.0835  2.3812
   27MOL   H48515617   6.075   0.344   2.502 -0.0692 -1.0780  0.7927
   27MOL   H48615618   6.200   0.347   2.621 -0.7330  0.2280  0.2805
   27MOL   H48715619   6.370   0.355   2.443  0.4268  1.3710 -1.7712
   27MOL   H48815620   6.244   0.361   2.322  0.3333  0.6583  1.0253
   27MOL   H48915621   6.350   0.136   2.363 -0.1479 -0.5887 -0.2375
   27MOL   H49015622   6.242   0.122   2.496 -2.0931  2.1955  1.0910
   27MOL   H49115623   6.200   7.634   2.335  0.3603  2.0291  1.5931
   27MOL   H49215624   6.233   0.067   2.088  0.4343  2.6205  0.8679
   27MOL   H49315625   5.947   7.690   2.259 -0.0514  0.1776  0.1608
   27MOL   H49415626   6.009   0.052   2.114 -0.3131  1.7811  1.9172
   27MOL   C49515627   5.892   7.499   2.105 -0.4632  0.4523 -0.6360
   27MOL   C49615628   5.839   7.542   1.969  0.2578 -0.0971  0.8209
   27MOL   O49715629   5.893   7.453   1.871  0.1401 -0.0702  0.2896
   27MOL   C49815630   5.688   7.518   1.965  0.2183 -0.1505  0.4659
   27MOL   O49915631   5.633   7.575   1.847 -0.3077  0.4604  0.3269
   27MOL   C50015632   5.497   7.559   1.837 -0.1486 -0.2725 -0.1634
   27MOL   C50115633   5.441   7.596   1.697 -0.1151 -0.2810 -0.3526
   27MOL   C50215634   5.282   7.615   1.698  0.3671 -0.1662 -0.0935
   27MOL   O50315635   5.245   7.503   1.784  0.1033 -0.1181  0.0248
   27MOL   C50415636   5.112   7.477   1.785  0.0407  0.5587 -0.6042
   27MOL   O50515637   5.036   7.584   1.831 -0.0872  0.2180 -0.2861
   27MOL   C50615638   5.081   7.347   1.871 -0.0762  0.0709 -0.1888
   27MOL   O50715639   5.184   7.247   1.875 -0.5438  0.6837  0.4266
   27MOL   H50815640   5.831   7.536   2.187 -0.3402 -1.2990  0.2707
   27MOL   H50915641   5.883   7.390   2.113  1.4058  0.3337  0.2852
   27MOL   H51015642   5.865   7.646   1.952  0.0688 -0.5343 -2.4970
   27MOL   H51115643   5.823   7.444   1.808  0.5033 -1.6828  0.0995
   27MOL   H51215644   5.672   7.410   1.966  0.8715 -0.2519  1.9260
   27MOL   H51315645   5.640   7.555   2.055 -2.1080  0.6256 -1.0449
   27MOL   H51415646   5.450   7.627   1.908  1.2755 -0.3654  0.8876
   27MOL   H51515647   5.465   7.457   1.853 -0.6787 -0.0799  0.0120
   27MOL   H51615648   5.461   7.523   1.619  1.5636 -0.7074  0.4739
   27MOL   H51715649   5.473   7.692   1.657  0.2062 -0.7809 -1.3042
   27MOL   H51815650   5.249   0.019   1.731  2.0215 -0.2503  1.9653
   27MOL   H51915651   5.258   7.608   1.592  2.7570  1.5308 -0.8010
   27MOL   H52015652   5.094   7.455   1.679 -2.4588  0.2690 -0.1617
   27MOL   H52115653   5.061   7.593   1.922 -0.5559 -0.4138 -0.0918
   27MOL   H52215654   5.060   7.392   1.968  1.6467  1.4805 -0.4467
   27MOL   H52315655   4.982   7.310   1.846  0.3953 -1.0890 -0.4009
   27MOL   C52415656   5.191   7.176   1.751  0.1384 -0.9695 -0.3770
   27MOL   C52515657   5.341   7.156   1.702  0.1984  0.0261 -0.3930
   27MOL   O52615658   5.403   7.274   1.668  0.4859 -0.2051 -0.6362
   27MOL   C52715659   5.341   7.075   1.578  0.3156 -0.5433 -0.0501
   27MOL   O52815660   5.476   7.022   1.566 -0.4358 -0.8578 -0.1075
   27MOL   C52915661   5.482   6.885   1.521  0.4297 -0.3652  0.0784
   27MOL   C53015662   5.623   6.851   1.481 -0.6860 -0.2925  0.0695
   27MOL   C53115663   5.649   6.706   1.441  0.0930  0.0536 -0.0223
   27MOL   O53215664   5.784   6.673   1.442 -0.0431  0.1792 -0.2055
   27MOL   C53315665   5.804   6.532   1.413  0.2600  0.2749  0.2647
   27MOL   O53415666   5.815   6.515   1.271 -0.0019  0.4131 -0.3529
   27MOL   C53515667   5.917   6.474   1.490 -0.2935 -0.4062  0.5269
   27MOL   O53615668   5.874   6.459   1.628  0.2489 -0.8083  0.0626
   27MOL   H53715669   5.129   7.227   1.678 -1.3906 -3.1383 -0.6619
   27MOL   H53815670   5.131   7.085   1.757 -3.1317  1.0130 -1.6522
   27MOL   H53915671   5.396   7.112   1.785  1.9639  0.6669 -1.1876
   27MOL   H54015672   5.357   7.352   1.698  1.1261 -0.6915  1.7313
   27MOL   H54115673   5.276   6.987   1.580  0.6939 -0.8078  1.5276
   27MOL   H54215674   5.311   7.140   1.497 -2.5765 -2.4563 -0.5784
   27MOL   H54315675   5.421   6.864   1.433 -2.2540  0.4102  1.7212
   27MOL   H54415676   5.442   6.817   1.597  1.1433 -0.4576  0.3748
   27MOL   H54515677   5.685   6.882   1.565 -0.7170  1.7088 -0.5961
   27MOL   H54615678   5.655   6.918   1.400  0.9784 -0.2286  0.7634
   27MOL   H54715679   5.588   6.650   1.512 -0.7791  1.9686  0.7801
   27MOL   H54815680   5.600   6.676   1.348 -2.3260  3.0621  0.2063
   27MOL   H54915681   5.711   6.484   1.443 -0.6419  0.2852 -2.3874
   27MOL   H55015682   5.754   6.449   1.242  0.0512 -0.4241  1.3430
   27MOL   H55115683   5.928   6.371   1.456 -1.6159 -0.6857  0.9089
   27MOL   H55215684   6.010   6.528   1.473 -1.1787  1.5570  1.7402
   27MOL   C55315685   5.963   6.380   1.709 -0.3463 -0.1770  0.7388
   27MOL   C55415686   5.905   6.367   1.846  0.6445 -0.6943  0.3252
   27MOL   O55515687   5.947   6.483   1.916 -0.7196 -0.0827  0.1742
   27MOL   C55615688   5.950   6.250   1.935 -0.8805 -0.2417 -0.0005
   27MOL   O55715689   5.858   6.198   2.030  0.2765  0.4409  0.6090
   27MOL   C55815690   5.852   6.274   2.149  0.5082 -0.3413 -0.0062
   27MOL   C55915691   5.783   6.193   2.260 -0.2758  0.4616  0.2491
   27MOL   C56015692   5.871   6.080   2.314  0.1453 -0.2229  0.5944
   27MOL   O56115693   5.797   5.990   2.390  0.0846  0.3970 -0.4367
   27MOL   C56215694   5.738   5.883   2.324 -0.1885  1.5437  0.7518
   27MOL   O56315695   5.824   5.808   2.250 -0.6125  0.3668 -0.1034
   27MOL   C56415696   5.680   5.781   2.423  0.4864  0.6591 -0.0331
   27MOL   O56515697   5.792   5.713   2.478  0.7407 -0.1573  0.0655
   27MOL   H56615698   6.059   6.431   1.696  0.2665 -0.7841  2.7542
   27MOL   H56715699   5.992   6.289   1.656  2.5037  0.8901  0.3660
   27MOL   H56815700   5.796   6.364   1.847  0.6074  0.9425  1.4724
   27MOL   H56915701   5.878   6.546   1.899  0.0179  1.1728  1.6312
   27MOL   H57015702   5.969   6.166   1.867  1.4801 -0.4717  0.9186
   27MOL   H57115703   6.044   6.266   1.986  0.1744 -1.2102 -1.5680
   27MOL   H57215704   5.952   6.304   2.183  1.3394 -1.7350 -1.1817
   27MOL   H57315705   5.802   6.368   2.127  0.4061 -0.3562  0.1614
   27MOL   H57415706   5.697   6.162   2.201 -0.1215 -1.5933  1.0615
   27MOL   H57515707   5.744   6.257   2.340 -0.3611  1.4979 -0.6187
   27MOL   H57615708   5.912   6.029   2.226  2.7380 -2.0099  2.7540
   27MOL   H57715709   5.953   6.118   2.375  0.5503 -1.0947  0.6037
   27MOL   H57815710   5.664   5.922   2.254  1.4696 -0.4063 -2.1722
   27MOL   H57915711   5.865   5.747   2.310  0.6729  1.5319  0.2171
   27MOL   H58015712   5.618   5.837   2.493  0.1384 -1.9291  1.8078
   27MOL   H58115713   5.608   5.714   2.377  1.2121  0.1019 -0.3855
   27MOL   H58215714   5.764   5.695   2.567  0.5686 -2.0128 -0.3504
   28MOL     C115715   3.037   7.355   1.798  0.0650  0.3684 -0.0973
   28MOL     C215716   2.923   7.271   1.739  0.0074 -0.0881 -0.0938
   28MOL     O315717   2.895   7.312   1.606 -0.2420 -0.4310  0.5196
   28MOL     C415718   2.954   7.122   1.733 -0.0074 -0.1232 -0.0894
   28MOL     O515719   2.844   7.051   1.686  0.6820 -0.4531 -0.3826
   28MOL     C615720   2.867   6.914   1.698  0.0490  0.1327 -0.2068
   28MOL     C715721   2.782   6.820   1.611 -0.1074  0.5328  0.0832
   28MOL     C815722   2.639   6.829   1.666 -0.9942  0.1251 -0.3620
   28MOL     O915723   2.572   6.947   1.619  0.4007 -0.3027  0.3893
   28MOL    C1015724   2.439   6.950   1.654  0.4761  0.6466  0.0284
   28MOL    O1115725   2.366   6.855   1.582 -0.0266  0.8455  0.3245
   28MOL    C1215726   2.392   7.097   1.631  0.1227  0.4261 -0.2550
   28MOL    O1315727   2.400   7.171   1.752  0.0662  0.0301  0.0020
   28MOL    H1415728   3.122   7.329   1.735  1.5410 -1.8075  2.6837
   28MOL    H1515729   3.061   7.319   1.898  1.2239  1.8866  0.1804
   28MOL    H1615730   2.837   7.294   1.800  0.5212  1.2923  0.1158
   28MOL    H1715731   2.837   7.247   1.569 -2.9091  1.9203  0.4751
   28MOL    H1815732   3.039   7.112   1.666  1.2055  0.7855  1.2953
   28MOL    H1915733   2.993   7.086   1.829  1.7031  1.6222 -0.1057
   28MOL    H2015734   2.832   6.887   1.797  0.6704  1.2096  0.3167
   28MOL    H2115735   2.972   6.893   1.677  0.3600  1.3988  0.0252
   28MOL    H2215736   2.808   6.714   1.617  0.8235  0.6160 -1.7948
   28MOL    H2315737   2.784   6.849   1.506  1.5022  1.0762  0.2401
   28MOL    H2415738   2.583   6.744   1.628 -0.5222  0.2857 -1.4266
   28MOL    H2515739   2.627   6.805   1.772 -0.7688  0.4597 -0.2599
   28MOL    H2615740   2.431   6.931   1.762 -1.7338 -0.8446 -0.3586
   28MOL    H2715741   2.300   6.898   1.529  0.8022  1.5687 -0.1266
   28MOL    H2815742   2.432   7.150   1.544 -3.2264  2.8622 -0.3956
   28MOL    H2915743   2.286   7.095   1.607  0.5135 -0.0298 -2.0175
   28MOL    H3015744   3.013   7.461   1.794  2.9907  1.0784  0.3083
   28MOL    C3115745   2.393   7.311   1.737 -0.4826  0.0473 -0.2854
   28MOL    C3215746   2.355   7.367   1.873  0.5045  0.0631  0.3069
   28MOL    O3315747   2.220   7.321   1.892 -0.9030 -0.0513 -0.3127
   28MOL    C3415748   2.372   7.521   1.885  0.1148  0.1414  0.1744
   28MOL    O3515749   2.499   7.552   1.848 -0.7610 -0.0354  0.2476
   28MOL    C3615750   2.531   7.690   1.824 -0.4053 -0.1277  0.2008
   28MOL    C3715751   2.681   0.013   1.794  0.0543 -0.9841 -0.1159
   28MOL    C3815752   2.707   7.656   1.652 -1.0311  0.0263  1.1551
   28MOL    O3915753   2.851   7.654   1.648  0.9013  0.4866 -0.0818
   28MOL    C4015754   2.901   7.646   1.516  0.2123 -0.3782  0.2277
   28MOL    O4115755   2.848   7.536   1.444 -0.2192  0.2705  0.4627
   28MOL    C4215756   3.049   7.630   1.530 -0.2239 -0.3871 -0.4236
   28MOL    O4315757   3.108   0.060   1.556  0.1120  0.3437  0.2908
   28MOL    H4415758   2.493   7.348   1.714 -1.0546  1.4475 -0.5911
   28MOL    H4515759   2.321   7.341   1.660 -0.1248 -2.4765 -1.6426
   28MOL    H4615760   2.423   7.320   1.945 -0.2903 -0.1056  0.9554
   28MOL    H4715761   2.236   7.232   1.919 -2.8996 -0.2573  0.2076
   28MOL    H4815762   2.302   7.571   1.817 -2.3489  0.4293  2.8246
   28MOL    H4915763   2.364   7.567   1.984 -0.4201 -0.1973  0.2910
   28MOL    H5015764   2.511   0.051   1.916  0.0283  2.3847 -1.1624
   28MOL    H5115765   2.450   0.040   1.767 -2.3824 -1.9307  1.5206
   28MOL    H5215766   2.728   7.648   1.872 -0.1094 -0.0455  0.7107
   28MOL    H5315767   2.712   0.117   1.807 -2.3913 -0.2802  0.4915
   28MOL    H5415768   2.675   7.554   1.633  0.4386  0.0095 -1.4962
   28MOL    H5515769   2.662   0.027   1.577 -1.3945 -0.7529  0.6947
   28MOL    H5615770   2.879   0.045   1.464  0.9746  0.1429  0.8266
   28MOL    H5715771   2.862   7.455   1.491 -0.8966 -0.2338 -0.2084
   28MOL    H5815772   3.069   7.557   1.608 -1.4739  1.4849  1.6989
   28MOL    H5915773   3.083   7.603   1.430 -0.5483 -3.6337  0.2904
   28MOL    C6015774   3.253   0.054   1.541  0.2652 -0.9671  0.0341
   28MOL    C6115775   3.302   0.198   1.573 -0.5285 -0.6607 -0.1637
   28MOL    O6215776   3.281   0.275   1.458 -0.4324  0.4140  0.4034
   28MOL    C6315777   3.445   0.197   1.616 -0.5949 -0.4489 -0.1993
   28MOL    O6415778   3.490   0.311   1.686 -0.7451 -0.0818  0.1837
   28MOL    C6515779   3.469   0.302   1.827  0.1946 -0.7767 -0.4704
   28MOL    C6615780   3.477   0.436   1.891  0.2758 -0.3600  0.7106
   28MOL    C6715781   3.357   0.536   1.863  0.3716  0.0229  0.0227
   28MOL    O6815782   3.348   0.636   1.963 -0.3976  0.2105 -0.5223
   28MOL    C6915783   3.245   0.729   1.946 -0.5098 -0.1479  0.4115
   28MOL    O7015784   3.137   0.698   2.029 -0.8482 -0.8439 -0.7359
   28MOL    C7115785   3.289   0.877   1.981 -0.4414  0.8338  0.4487
   28MOL    O7215786   3.187   0.963   1.946  0.5489 -0.3324  0.5922
   28MOL    H7315787   3.277   0.027   1.438  0.8985 -1.9206  0.4210
   28MOL    H7415788   3.304   7.681   1.611  0.5300  0.2829  1.0720
   28MOL    H7515789   3.241   0.236   1.656 -1.3678  2.2136 -2.0349
   28MOL    H7615790   3.272   0.213   1.387  0.1244  0.4994  0.2546
   28MOL    H7715791   3.455   0.109   1.680  0.4307 -1.0441 -1.1558
   28MOL    H7815792   3.518   0.172   1.539 -1.1623 -1.8547 -0.3023
   28MOL    H7915793   3.528   0.226   1.878 -0.9072 -1.8453 -0.7950
   28MOL    H8015794   3.367   0.268   1.841 -0.0171 -0.2985 -0.8248
   28MOL    H8115795   3.576   0.480   1.878  0.2206 -0.4286  0.0786
   28MOL    H8215796   3.466   0.407   1.996  0.8431 -1.6674  0.4169
   28MOL    H8315797   3.266   0.477   1.848 -0.1025  1.2440 -2.0986
   28MOL    H8415798   3.373   0.594   1.772 -2.2611  0.5983 -0.1214
   28MOL    H8515799   3.200   0.732   1.847  3.5475 -0.6758 -1.5091
   28MOL    H8615800   3.131   0.763   2.098  0.3491  1.4064 -2.6588
   28MOL    H8715801   3.328   0.897   2.081  0.4306 -0.2961  0.3399
   28MOL    H8815802   3.378   0.898   1.922 -0.6467  0.3460 -0.0361
   28MOL    C8915803   3.220   1.099   1.938  0.0275  0.5903  0.0269
   28MOL    C9015804   3.092   1.185   1.935  0.1693  0.3483 -0.5206
   28MOL    O9115805   3.138   1.321   1.934  0.2261  0.5300 -0.1753
   28MOL    C9215806   3.019   1.153   1.806  0.4137  0.1466 -0.7779
   28MOL    O9315807   2.915   1.251   1.793  0.4365 -0.0041 -0.0087
   28MOL    C9415808   2.841   1.233   1.673 -0.8716  0.1378 -0.1789
   28MOL    C9515809   2.720   1.335   1.663 -0.6428 -0.0620  0.0575
   28MOL    C9615810   2.609   1.313   1.559 -0.2214  0.0979  0.0641
   28MOL    O9715811   2.658   1.361   1.439 -0.1843  0.3865 -0.9512
   28MOL    C9815812   2.580   1.434   1.363 -0.3904  0.5214  0.3792
   28MOL    O9915813   2.579   1.568   1.402 -0.0999 -0.7223  0.4392
   28MOL   C10015814   2.604   1.412   1.213 -0.4983  0.0293  0.1685
   28MOL   O10115815   2.491   1.404   1.135 -0.0724 -0.2545  0.2748
   28MOL   H10215816   3.278   1.114   1.847 -0.0787 -4.5466 -1.0240
   28MOL   H10315817   3.279   1.132   2.024 -0.3788  1.9991 -0.2275
   28MOL   H10415818   3.030   1.176   2.024 -0.5228  2.0463 -0.8009
   28MOL   H10515819   3.067   1.377   1.904 -1.0452 -1.3199 -0.6752
   28MOL   H10615820   3.091   1.174   1.727  0.6532  0.5830 -0.4462
   28MOL   H10715821   2.978   1.052   1.797  2.8420 -0.5657 -4.9425
   28MOL   H10815822   2.802   1.131   1.673  2.5206 -1.2574 -3.2903
   28MOL   H10915823   2.910   1.235   1.589 -1.2884 -1.5139 -0.5691
   28MOL   H11015824   2.759   1.436   1.651  1.9373 -0.9015  1.0010
   28MOL   H11115825   2.671   1.339   1.761 -1.2898  1.8467 -0.3270
   28MOL   H11215826   2.564   1.214   1.558 -0.5024  0.2159 -3.3752
   28MOL   H11315827   2.525   1.376   1.588  0.2555 -0.0231  1.7741
   28MOL   H11415828   2.480   1.390   1.373  0.4169 -1.4038  0.1545
   28MOL   H11515829   2.666   1.604   1.396 -0.4935  0.3814  1.1937
   28MOL   H11615830   2.674   1.486   1.175 -1.8519  1.4510  0.3601
   28MOL   H11715831   2.656   1.317   1.211 -0.2535  0.1907 -2.7314
   28MOL   C11815832   2.421   1.527   1.109  0.9665  0.1146  0.3801
   28MOL   C11915833   2.295   1.492   1.012 -0.2938 -0.1620 -0.2345
   28MOL   O12015834   2.229   1.609   1.007  0.2049 -0.2883  0.0473
   28MOL   C12115835   2.199   1.382   1.059 -0.4117 -0.4283 -0.4882
   28MOL   O12215836   2.159   1.421   1.191  0.0302  0.0577 -1.1424
   28MOL   C12315837   2.059   1.336   1.256  0.6840 -0.3224  0.6578
   28MOL   C12415838   2.034   1.367   1.405 -0.2901  0.2286  0.4352
   28MOL   C12515839   2.157   1.320   1.488 -0.0611  1.1266  0.1067
   28MOL   O12615840   2.128   1.317   1.628 -0.0975 -0.0560  0.3733
   28MOL   C12715841   2.242   1.344   1.699  0.1016  0.4301  0.2544
   28MOL   O12815842   2.325   1.229   1.703  0.4595 -0.4830 -0.4254
   28MOL   C12915843   2.202   1.388   1.843  1.0264 -0.4997 -0.3477
   28MOL   O13015844   2.307   1.459   1.905  0.5114  0.3487  0.3172
   28MOL   H13115845   2.380   1.561   1.203 -1.4615 -0.9204 -0.2772
   28MOL   H13215846   2.492   1.594   1.060  0.2791 -0.8374 -2.0285
   28MOL   H13315847   2.320   1.465   0.909  0.6478  0.0562 -0.0664
   28MOL   H13415848   2.189   1.612   1.093  0.0637  1.7896 -0.0616
   28MOL   H13515849   2.109   1.365   1.000 -0.7650  1.4236 -0.4919
   28MOL   H13615850   2.245   1.283   1.071 -0.2200 -0.7139 -3.2783
   28MOL   H13715851   2.092   1.232   1.249 -3.0681 -1.4388 -2.1113
   28MOL   H13815852   1.969   1.332   1.195  0.5060  1.9446  0.7327
   28MOL   H13915853   1.952   1.306   1.444  0.6672 -1.2305  0.2189
   28MOL   H14015854   1.993   1.467   1.419 -0.6544 -0.0022  1.0588
   28MOL   H14115855   2.179   1.219   1.453 -0.9257 -0.0266  2.7719
   28MOL   H14215856   2.241   1.385   1.463  0.7271  0.5623  1.2449
   28MOL   H14315857   2.295   1.429   1.656  0.2566  0.0511 -0.3168
   28MOL   H14415858   2.288   1.182   1.776 -1.4152 -0.3492 -1.2474
   28MOL   H14515859   2.123   1.462   1.826  1.7472  0.3910  0.1223
   28MOL   H14615860   2.170   1.303   1.903 -0.2063 -0.6796 -1.2299
   28MOL   C14715861   2.261   1.506   2.026 -0.2572 -0.3609  0.0720
   28MOL   C14815862   2.366   1.609   2.081  0.4078 -0.9711 -0.0863
   28MOL   O14915863   2.462   1.540   2.152  0.3112 -0.3739 -0.3053
   28MOL   C15015864   2.298   1.712   2.172 -0.1065 -0.5767  0.1654
   28MOL   O15115865   2.251   1.809   2.084  0.2004 -0.0920  0.1557
   28MOL   C15215866   2.170   1.910   2.130 -0.0745 -0.0478  0.1815
   28MOL   C15315867   2.262   2.012   2.203  0.7578 -0.5367  0.2965
   28MOL   C15415868   2.182   2.124   2.251 -0.6697 -0.3451 -0.4205
   28MOL   O15515869   2.262   2.233   2.300 -0.5963  0.5517 -0.4282
   28MOL   C15615870   2.180   2.339   2.347  0.4520 -0.5449  0.5978
   28MOL   O15715871   2.108   2.397   2.245 -0.8180  0.4729  0.4619
   28MOL   C15815872   2.274   2.444   2.413  0.2502 -0.4435  0.3656
   28MOL   O15915873   2.383   2.488   2.335  0.1619  0.1322 -0.0070
   28MOL   H16015874   2.245   1.419   2.091 -0.8340  0.1538  0.6213
   28MOL   H16115875   2.167   1.561   2.024 -0.4457 -0.7005 -0.5236
   28MOL   H16215876   2.411   1.670   2.002 -2.2111 -0.8720 -1.5590
   28MOL   H16315877   2.482   1.464   2.099 -3.2697 -1.2559 -0.5424
   28MOL   H16415878   2.213   1.670   2.226 -0.6664 -0.7915 -0.8825
   28MOL   H16515879   2.367   1.758   2.243 -0.1578 -1.8821  1.0874
   28MOL   H16615880   2.101   1.867   2.202 -0.5932  1.0063  0.3170
   28MOL   H16715881   2.120   1.960   2.047 -1.4898  0.1839  1.1457
   28MOL   H16815882   2.345   2.048   2.142  0.3260 -2.1384 -1.2826
   28MOL   H16915883   2.317   1.962   2.283  0.9260 -2.3944 -0.9405
   28MOL   H17015884   2.127   2.163   2.166 -0.3224 -2.7184 -1.7950
   28MOL   H17115885   2.110   2.098   2.328  0.2856 -0.4302  0.4586
   28MOL   H17215886   2.112   2.302   2.424  0.3347  0.1154  0.8142
   28MOL   H17315887   2.167   2.458   2.203 -0.4144  0.1468  0.5523
   28MOL   H17415888   2.211   2.530   2.437 -0.4762 -1.2283  1.2985
   28MOL   H17515889   2.313   2.407   2.507 -2.2129 -1.6890  0.9506
   28MOL   C17615890   2.442   2.610   2.379  0.1242  0.2360 -0.2919
   28MOL   C17715891   2.535   2.659   2.264  0.0571 -0.0631 -0.4740
   28MOL   O17815892   2.672   2.649   2.306 -0.7562  0.5136  0.4452
   28MOL   C17915893   2.525   2.808   2.243  0.6499 -0.8125  0.3593
   28MOL   O18015894   2.404   2.835   2.179  0.2310 -0.4272  0.1272
   28MOL   C18115895   2.383   2.974   2.150 -0.3065  0.6643  0.2624
   28MOL   C18215896   2.239   2.995   2.113 -0.1438 -0.8173 -0.3101
   28MOL   C18315897   2.215   3.147   2.084 -0.1418  0.6940  0.2834
   28MOL   O18415898   2.091   3.167   2.017  0.3369  0.0879 -0.7030
   28MOL   C18515899   2.086   3.303   1.974  0.3524 -0.5501 -0.3249
   28MOL   O18615900   2.083   3.403   2.076 -0.9618 -0.3485 -0.1471
   28MOL   C18715901   1.954   3.321   1.889 -0.1345  0.5424 -0.1551
   28MOL   O18815902   1.956   3.461   1.845 -0.6582 -0.4379 -0.4701
   28MOL   H18915903   2.504   2.583   2.465  2.7723  1.7411 -1.6712
   28MOL   H19015904   2.366   2.686   2.401 -0.2723 -0.8756  2.4058
   28MOL   H19115905   2.521   2.602   2.172  0.8183 -1.2384  0.1280
   28MOL   H19215906   2.731   2.679   2.239 -1.4749  0.3566 -0.2745
   28MOL   H19315907   2.530   2.865   2.336  1.8061  0.7512 -0.6335
   28MOL   H19415908   2.606   2.841   2.178 -1.2367  0.0158 -1.6042
   28MOL   H19515909   2.447   3.003   2.067 -1.3189  0.6910 -0.5253
   28MOL   H19615910   2.415   3.045   2.227 -0.2124  1.5117 -0.5550
   28MOL   H19715911   2.176   2.973   2.199 -0.9590 -0.3631 -0.7882
   28MOL   H19815912   2.207   2.928   2.034  0.0430 -2.1638  0.7505
   28MOL   H19915913   2.213   3.195   2.181  1.2230 -1.5673  1.4987
   28MOL   H20015914   2.293   3.188   2.020 -0.6118  1.8828  0.4653
   28MOL   H20115915   2.173   3.319   1.910 -1.1468 -1.0454 -2.5588
   28MOL   H20215916   1.998   3.440   2.095 -0.9251  0.7238 -1.9098
   28MOL   H20315917   1.974   3.251   1.808 -0.4205 -0.7001  0.8359
   28MOL   H20415918   1.864   3.292   1.944  0.9507 -1.0165  0.8483
   28MOL   C20515919   2.048   3.489   1.735  0.2639 -0.1296  0.3327
   28MOL   C20615920   2.001   3.628   1.679 -0.3409 -0.1663 -0.1327
   28MOL   O20715921   2.079   3.732   1.729 -0.6459 -0.1520 -1.0095
   28MOL   C20815922   1.994   3.640   1.523  0.1173 -0.2635  0.4728
   28MOL   O20915923   1.908   3.753   1.502  0.2190  0.1501 -0.4491
   28MOL   C21015924   1.900   3.794   1.363  0.8776 -0.2609 -0.2495
   28MOL   C21115925   1.859   3.943   1.377  0.2256 -0.1302  0.0535
   28MOL   C21215926   1.843   4.013   1.244  0.1174 -0.2447  0.1900
   28MOL   O21315927   1.970   4.059   1.195  0.7021 -0.2280 -0.3304
   28MOL   C21415928   1.953   4.116   1.074  0.1383  0.0397 -0.2632
   28MOL   O21515929   1.958   4.017   0.976 -0.0441  0.3655  0.7339
   28MOL   C21615930   2.072   4.211   1.053 -0.1973 -0.3711 -0.0002
   28MOL   O21715931   2.067   4.311   1.160  0.1352 -0.5288  0.5363
   28MOL   H21815932   2.046   3.410   1.661 -1.7070  0.6442 -0.4701
   28MOL   H21915933   2.150   3.492   1.773 -0.5503  0.2796  2.5640
   28MOL   H22015934   1.896   3.636   1.707 -0.0130 -0.1849  1.1266
   28MOL   H22115935   2.047   3.818   1.707 -2.4666 -0.9573 -1.5765
   28MOL   H22215936   2.096   3.646   1.485 -0.2838 -0.8589 -0.7267
   28MOL   H22315937   1.958   3.547   1.479  0.5081 -0.4638  0.5731
   28MOL   H22415938   1.811   3.754   1.315  1.0894  0.0396 -0.9001
   28MOL   H22515939   1.991   3.776   1.306  0.9917 -1.1360  0.1891
   28MOL   H22615940   1.924   3.985   1.454 -0.2903 -2.4270  1.8236
   28MOL   H22715941   1.762   3.936   1.425  0.3887 -0.0245  0.4006
   28MOL   H22815942   1.812   3.938   1.171  1.0900 -0.3035 -0.1811
   28MOL   H22915943   1.781   4.099   1.268 -1.5204 -1.7408  1.4349
   28MOL   H23015944   1.863   4.178   1.072  0.4923  0.5245 -2.3292
   28MOL   H23115945   1.885   4.030   0.919 -0.6237 -2.7770  0.7187
   28MOL   H23215946   2.164   4.154   1.055 -0.6445 -1.1093 -0.5936
   28MOL   H23315947   2.068   4.261   0.956  1.1645  2.1376  1.1623
   28MOL   C23415948   2.193   4.373   1.170 -0.2413 -0.3706  0.0008
   28MOL   C23515949   2.215   4.439   1.304 -0.0691 -0.3034  0.5703
   28MOL   O23615950   2.322   4.530   1.290 -0.4303  0.0475  0.3468
   28MOL   C23715951   2.267   4.339   1.401 -0.0690 -0.2432 -0.2447
   28MOL   O23815952   2.311   4.419   1.510  0.1837 -0.2983 -0.4151
   28MOL   C23915953   2.383   4.354   1.616  0.5275 -0.1372 -0.5021
   28MOL   C24015954   2.514   4.293   1.571  0.5913  0.6318 -0.4521
   28MOL   C24115955   2.590   4.250   1.693  0.5150  0.1126  0.4723
   28MOL   O24215956   2.701   4.173   1.635 -0.5130 -0.3274 -0.1286
   28MOL   C24315957   2.786   4.110   1.732  0.7011  1.1348 -0.7020
   28MOL   O24415958   2.863   4.209   1.797 -0.7645 -0.3250  0.6320
   28MOL   C24515959   2.872   4.010   1.657  0.7040 -0.6018 -0.5220
   28MOL   O24615960   2.887   3.890   1.734  0.0183 -0.2356 -0.1851
   28MOL   H24715961   2.278   4.311   1.140 -0.4111 -0.4982 -0.2186
   28MOL   H24815962   2.190   4.458   1.102  0.5187 -0.3909 -0.0683
   28MOL   H24915963   2.123   4.482   1.345  1.2321  2.8559  0.3713
   28MOL   H25015964   2.355   4.556   1.375 -0.3110 -1.3968  0.7516
   28MOL   H25115965   2.187   4.274   1.437 -0.4633  1.1880  1.5751
   28MOL   H25215966   2.352   4.283   1.364  1.3850  0.8112  1.4138
   28MOL   H25315967   2.320   4.282   1.667 -0.4723 -0.2855 -1.9006
   28MOL   H25415968   2.398   4.434   1.688 -3.3166 -1.3394  1.7710
   28MOL   H25515969   2.569   4.363   1.509 -1.2171 -1.9669 -5.2761
   28MOL   H25615970   2.497   4.195   1.525  0.7615 -0.3562  1.5372
   28MOL   H25715971   2.612   4.323   1.771 -0.3022  1.1871 -0.2912
   28MOL   H25815972   2.528   4.172   1.738  2.2709 -2.5267 -1.5122
   28MOL   H25915973   2.729   4.056   1.807 -1.4180  4.4323  0.1745
   28MOL   H26015974   2.920   4.253   1.735 -3.2059 -1.2590 -2.4519
   28MOL   H26115975   2.832   3.974   1.562  4.0956 -0.3807 -2.1107
   28MOL   H26215976   2.966   4.053   1.624 -0.8387  1.9705 -1.6851
   28MOL   C26315977   2.987   3.889   1.833 -0.1464 -0.3823  0.1788
   28MOL   C26415978   2.936   3.810   1.953 -0.1607 -0.0334 -0.1429
   28MOL   O26515979   2.938   3.673   1.914 -0.2768 -0.8586 -0.5315
   28MOL   C26615980   3.025   3.835   2.077 -0.2625 -0.7751  0.3329
   28MOL   O26715981   3.002   3.957   2.150  0.8362 -0.2029 -0.2378
   28MOL   C26815982   2.999   3.947   2.292  0.3859 -0.5778 -0.6701
   28MOL   C26915983   2.968   4.083   2.350 -0.4124 -0.1572  0.3133
   28MOL   C27015984   2.941   4.073   2.503  0.1648 -0.5209 -0.4796
   28MOL   O27115985   2.955   4.206   2.567 -0.0887 -0.0104 -0.1607
   28MOL   C27215986   2.896   4.235   2.687  0.3864  0.4749  0.4491
   28MOL   O27315987   2.936   4.143   2.788 -0.3373  0.3035 -0.1441
   28MOL   C27415988   2.918   4.380   2.731 -0.7447  0.1083 -0.6650
   28MOL   O27515989   3.057   4.396   2.733 -0.0784 -0.5253 -0.1496
   28MOL   H27615990   2.991   3.994   1.863 -2.7207 -0.1921 -0.0995
   28MOL   H27715991   3.085   3.857   1.796  0.3673  1.6746 -0.3453
   28MOL   H27815992   2.836   3.844   1.977 -1.3602 -3.6802  0.4008
   28MOL   H27915993   2.947   3.676   1.820  1.3275  0.0662 -0.3614
   28MOL   H28015994   3.005   3.753   2.147 -3.5917  1.9350  2.6740
   28MOL   H28115995   3.133   3.820   2.066  0.3063  3.0495  0.1084
   28MOL   H28215996   3.093   3.910   2.333 -0.0062 -0.5142  0.3004
   28MOL   H28315997   2.922   3.874   2.317  0.4663 -0.6706 -0.6933
   28MOL   H28415998   2.880   4.124   2.300  0.2032  0.3874 -0.3357
   28MOL   H28515999   3.059   4.140   2.332 -0.1727 -0.3102  1.0027
   28MOL   H28616000   2.843   4.032   2.524 -0.4287  0.4549 -1.3221
   28MOL   H28716001   3.006   4.000   2.553 -0.0302 -0.0789  0.4361
   28MOL   H28816002   2.788   4.220   2.676  0.6543 -2.4867  1.5146
   28MOL   H28916003   3.026   4.167   2.803 -0.3164  0.1670 -0.0471
   28MOL   H29016004   2.874   4.454   2.664  1.0068 -0.1970 -2.1949
   28MOL   H29116005   2.873   4.393   2.830  1.5599 -2.5527  0.8086
   28MOL   C29216006   3.089   4.507   2.818 -0.2253 -0.5512  0.2842
   28MOL   C29316007   3.242   4.498   2.839 -0.3874 -0.4081  0.8482
   28MOL   O29416008   3.313   4.526   2.717  0.2907  0.3212  0.7073
   28MOL   C29516009   3.295   4.610   2.925 -1.0932 -0.4498  0.2736
   28MOL   O29616010   3.372   4.542   3.017 -0.3018  0.6397 -0.0317
   28MOL   C29716011   3.482   4.611   3.076  0.2791  0.8403 -0.7950
   28MOL   C29816012   3.610   4.597   2.992 -0.3498 -0.3307  0.7648
   28MOL   C29916013   3.738   4.642   3.057 -0.0696  0.1783  0.1662
   28MOL   O30016014   3.841   4.623   2.966 -0.5673  0.7413  0.6232
   28MOL   C30116015   3.959   4.693   2.980  0.6241 -0.1206  0.8747
   28MOL   O30216016   4.041   4.642   3.088  0.3856 -0.0672 -0.3338
   28MOL   C30316017   4.034   4.686   2.842  0.5376  0.3875 -0.0862
   28MOL   O30416018   4.094   4.811   2.806 -0.2962 -0.2102 -0.5125
   28MOL   H30516019   3.070   4.605   2.774  0.1154 -1.8683 -2.9300
   28MOL   H30616020   3.048   4.488   2.918 -0.3423 -0.5094  0.2444
   28MOL   H30716021   3.277   4.400   2.873 -2.8679 -1.7161 -0.2506
   28MOL   H30816022   3.360   4.450   2.686 -0.2084  0.6060 -0.7681
   28MOL   H30916023   3.341   4.688   2.864  1.1468 -2.7875 -1.1401
   28MOL   H31016024   3.220   4.657   2.988 -0.6993 -0.1471  0.5137
   28MOL   H31116025   3.509   4.560   3.168  3.0691 -0.5104 -2.2586
   28MOL   H31216026   3.450   4.712   3.100  0.0512  0.2402  1.5245
   28MOL   H31316027   3.602   4.630   2.888  2.1506 -0.1888  0.5826
   28MOL   H31416028   3.634   4.491   2.985 -0.8200 -0.4145  0.3829
   28MOL   H31516029   3.719   4.746   3.087  0.4923  0.2177  0.3902
   28MOL   H31616030   3.756   4.586   3.148 -0.2913  1.7251  1.1897
   28MOL   H31716031   3.939   4.797   3.007  1.3899  0.7757 -1.8236
   28MOL   H31816032   4.116   4.697   3.102  0.6154 -0.4528 -0.0477
   28MOL   H31916033   3.961   4.665   2.764 -0.9044 -1.8992  1.7810
   28MOL   H32016034   4.105   4.603   2.844  1.2968  1.0580  1.1850
   28MOL   C32116035   4.210   4.800   2.728 -0.1996 -0.3893 -0.2623
   28MOL   C32216036   4.203   4.920   2.630  0.5557  0.9156 -0.5122
   28MOL   O32316037   4.214   5.036   2.710  0.0837  0.5189 -0.0263
   28MOL   C32416038   4.320   4.920   2.526  0.1889  0.8522  0.0631
   28MOL   O32516039   4.288   5.018   2.425 -0.5244 -0.0733  0.2425
   28MOL   C32616040   4.396   5.031   2.338  0.5240 -0.5663  0.0444
   28MOL   C32716041   4.344   5.129   2.225  0.2902 -0.8812 -0.3834
   28MOL   C32816042   4.231   5.062   2.144 -0.0268 -0.0097 -0.4902
   28MOL   O32916043   4.171   5.173   2.079  0.3673  0.0521  0.6507
   28MOL   C33016044   4.066   5.143   1.994  0.4686  0.0223 -0.2032
   28MOL   O33116045   3.964   5.070   2.058 -0.2246  0.0319 -0.3545
   28MOL   C33216046   4.003   5.276   1.943  0.1675 -0.0789 -0.8052
   28MOL   O33316047   4.081   5.326   1.833 -0.2517  0.1527 -0.1909
   28MOL   H33416048   4.211   4.705   2.674 -0.0094 -1.3500  1.3893
   28MOL   H33516049   4.307   4.805   2.778 -1.2207 -3.6628  2.2208
   28MOL   H33616050   4.107   4.926   2.579 -0.6501  2.6194  1.8492
   28MOL   H33716051   4.144   5.029   2.774 -0.3737 -1.6172 -0.7378
   28MOL   H33816052   4.342   4.829   2.471 -1.0074  2.4288 -3.1590
   28MOL   H33916053   4.410   4.948   2.580 -0.4492 -0.4026  1.8220
   28MOL   H34016054   4.418   4.930   2.302 -1.1779 -1.0633  0.3826
   28MOL   H34116055   4.486   5.066   2.389  0.1848 -0.0395  0.2890
   28MOL   H34216056   4.312   5.224   2.268 -0.9679 -1.5442  0.1686
   28MOL   H34316057   4.426   5.148   2.156 -0.6206 -0.7577 -1.4386
   28MOL   H34416058   4.269   4.986   2.075  1.3558  0.9855 -0.8435
   28MOL   H34516059   4.156   5.024   2.213 -1.8001 -0.3768 -2.5427
   28MOL   H34616060   4.117   5.091   1.912 -1.8776 -4.1932  0.8794
   28MOL   H34716061   3.943   5.103   2.144 -0.4853 -1.6471  0.2523
   28MOL   H34816062   3.900   5.254   1.915  0.4179 -0.0060 -1.8036
   28MOL   H34916063   4.010   5.348   2.024  0.5620 -0.1626 -0.7639
   28MOL   C35016064   4.008   5.435   1.772 -0.2033 -0.7791 -0.5276
   28MOL   C35116065   3.909   5.388   1.663 -0.1783  0.8089 -0.6590
   28MOL   O35216066   3.857   5.502   1.598  0.3054  0.3870 -0.2889
   28MOL   C35316067   3.963   5.317   1.542  0.1974 -0.1293  0.7176
   28MOL   O35416068   4.057   5.393   1.471  0.2880  0.0016  0.0960
   28MOL   C35516069   4.120   5.312   1.375  0.3614  0.5190  0.1148
   28MOL   C35616070   4.249   5.388   1.361  0.1119  0.2682 -0.3105
   28MOL   C35716071   4.349   5.327   1.256  0.1951  0.8312 -0.2265
   28MOL   O35816072   4.295   5.352   1.127  0.0550  0.3690  0.1463
   28MOL   C35916073   4.388   5.342   1.030  0.6641 -0.6234 -0.2625
   28MOL   O36016074   4.458   5.217   1.024 -0.0650 -0.0624 -0.2167
   28MOL   C36116075   4.299   5.350   0.902 -0.2464  0.7519 -0.0062
   28MOL   O36216076   4.383   5.378   0.792 -0.1827  0.2727 -0.5284
   28MOL   H36316077   4.085   5.497   1.726 -1.0700  0.7734  0.0518
   28MOL   H36416078   3.957   5.498   1.845 -0.2423 -2.9199  1.3556
   28MOL   H36516079   3.832   5.323   1.703  1.8510 -1.6369 -0.5676
   28MOL   H36616080   3.917   5.521   1.528 -0.1811 -1.0230 -1.1117
   28MOL   H36716081   4.018   5.228   1.571 -0.9037 -1.6486 -1.6416
   28MOL   H36816082   3.883   5.285   1.474  1.8252 -2.8885  0.0124
   28MOL   H36916083   4.062   5.291   1.285  0.8281 -0.3423  0.0043
   28MOL   H37016084   4.151   5.218   1.421 -1.1184 -0.1434 -0.2248
   28MOL   H37116085   4.304   5.400   1.454  0.0699 -2.3215  0.0759
   28MOL   H37216086   4.228   5.491   1.332 -4.1225 -0.4574 -0.0318
   28MOL   H37316087   4.448   5.372   1.262  1.2006 -1.4632  0.7291
   28MOL   H37416088   4.363   5.223   1.282 -1.1611  0.5795 -0.4388
   28MOL   H37516089   4.460   5.424   1.036 -0.8485  0.6135  2.0357
   28MOL   H37616090   4.472   5.211   0.931  0.6266  0.1349 -0.1269
   28MOL   H37716091   4.244   5.257   0.890 -0.1526  0.8502 -1.2423
   28MOL   H37816092   4.230   5.433   0.917 -0.2116  0.6596  0.6883
   28MOL   C37916093   4.316   5.377   0.664 -0.4392 -0.0795  0.1326
   28MOL   C38016094   4.284   5.521   0.616  0.2260 -0.4369  0.0011
   28MOL   O38116095   4.401   5.563   0.547 -0.8976 -0.1608 -0.2093
   28MOL   C38216096   4.164   5.534   0.519  0.0678  0.9033 -0.2766
   28MOL   O38316097   4.147   5.670   0.479 -0.0213 -0.1067  0.1680
   28MOL   C38416098   4.041   5.680   0.382  0.4799  0.1078  1.0061
   28MOL   C38516099   4.009   5.826   0.362 -0.2564 -0.1853  0.3203
   28MOL   C38616100   3.906   5.844   0.250 -0.0148 -1.1708 -0.0090
   28MOL   O38716101   3.868   5.988   0.240  0.5236  0.8410 -0.2138
   28MOL   C38816102   3.823   6.020   0.113  0.2821  0.0619  0.1523
   28MOL   O38916103   3.692   5.969   0.091  0.0036  0.0144 -0.1150
   28MOL   C39016104   3.824   6.173   0.102  0.2483  0.3010  1.1106
   28MOL   O39116105   3.954   6.218   0.110 -0.5169  0.0328  0.1269
   28MOL   H39216106   4.226   5.316   0.659 -0.2319 -0.5772  1.9409
   28MOL   H39316107   4.385   5.328   0.595  1.9382  1.5444  1.2793
   28MOL   H39416108   4.264   5.591   0.697 -0.9578 -0.1711 -0.5134
   28MOL   H39516109   4.392   5.625   0.475  0.8838 -0.0200 -0.3235
   28MOL   H39616110   4.173   5.472   0.430 -2.9173  1.9360 -1.3564
   28MOL   H39716111   4.068   5.512   0.564  0.9478  0.9903  1.7016
   28MOL   H39816112   3.952   5.631   0.420  2.1940 -1.9985  2.4105
   28MOL   H39916113   4.067   5.632   0.288  0.3139 -2.3227  2.1812
   28MOL   H40016114   4.106   5.873   0.340  0.3864 -1.0597  1.2392
   28MOL   H40116115   3.972   5.873   0.453  0.6145 -0.3185  0.7581
   28MOL   H40216116   3.944   5.798   0.159 -1.3310 -1.4281 -0.4484
   28MOL   H40316117   3.818   5.783   0.272 -2.2468  0.5830 -3.5861
   28MOL   H40416118   3.897   5.974   0.048 -0.7644  1.9228 -2.4807
   28MOL   H40516119   3.632   6.031   0.129  0.2945 -0.4102  1.0797
   28MOL   H40616120   3.775   6.204   0.010  0.5342 -1.9504  0.1652
   28MOL   H40716121   3.768   6.224   0.180 -0.2917  1.1749  0.1528
   28MOL   C40816122   3.977   6.341   0.045 -0.3720  0.0349 -0.8310
   28MOL   C40916123   4.125   6.362   0.056  0.3018  0.1115  0.3613
   28MOL   O41016124   4.190   6.257   7.682 -0.2667  0.2061 -0.0425
   28MOL   C41116125   4.173   6.374   0.199 -0.2168 -0.3701  0.1344
   28MOL   O41216126   4.318   6.418   0.203  0.2096  0.1088 -0.3708
   28MOL   C41316127   4.397   6.351   0.305  0.4606  0.0333  1.3370
   28MOL   C41416128   4.545   6.400   0.317  0.0443 -0.0426 -0.1072
   28MOL   C41516129   4.632   6.350   0.439 -0.4920  0.0417  0.5803
   28MOL   O41616130   4.667   6.210   0.438  0.3134 -0.4668  0.0339
   28MOL   C41716131   4.753   6.175   0.540 -0.4140 -0.4980 -0.5995
   28MOL   O41816132   4.887   6.211   0.517  0.1778  0.3530  0.0461
   28MOL   C41916133   4.746   6.025   0.564 -0.0310  1.0086  0.3863
   28MOL   O42016134   4.632   5.987   0.632  0.2393  0.1548  0.2822
   28MOL   H42116135   3.924   6.424   0.091  0.8459  0.0024  0.6620
   28MOL   H42216136   3.947   6.343   7.634 -1.4143 -1.1531 -0.5739
   28MOL   H42316137   4.147   6.453   7.694  0.3492 -0.4069 -0.4691
   28MOL   H42416138   4.173   6.177   0.036  1.1051  0.5268  0.9853
   28MOL   H42516139   4.120   6.446   0.262 -2.0870 -2.1331  0.6019
   28MOL   H42616140   4.163   6.273   0.239  0.4504 -0.2176  0.7164
   28MOL   H42716141   4.336   6.361   0.395 -0.2209 -0.8740  0.9832
   28MOL   H42816142   4.400   6.242   0.300 -0.5405  0.0872 -1.1619
   28MOL   H42916143   4.552   6.507   0.302  2.3762  0.4179  3.5275
   28MOL   H43016144   4.612   6.378   0.234 -0.0610 -0.4521 -0.0870
   28MOL   H43116145   4.724   6.409   0.433  0.2881 -1.2637 -0.3928
   28MOL   H43216146   4.591   6.376   0.537  2.0377  1.4697  1.3190
   28MOL   H43316147   4.718   6.218   0.634  1.8001 -0.5864  0.2729
   28MOL   H43416148   4.891   6.292   0.566 -0.0246 -1.3433  3.0239
   28MOL   H43516149   4.760   5.977   0.467 -0.8466  1.0886  0.2272
   28MOL   H43616150   4.832   5.998   0.625 -1.1340  0.5534  1.7701
   28MOL   C43716151   4.521   5.949   0.550 -0.2712 -0.2972 -0.0074
   28MOL   C43816152   4.400   5.920   0.634  0.3239  0.0597 -0.1336
   28MOL   O43916153   4.348   6.045   0.671 -0.6019  0.0347 -0.7915
   28MOL   C44016154   4.429   5.848   0.769  0.0805  0.4420  0.3154
   28MOL   O44116155   4.313   5.797   0.834 -0.2811 -0.1667 -0.6388
   28MOL   C44216156   4.329   5.713   0.949  0.2077 -0.1465  0.6493
   28MOL   C44316157   4.396   5.792   1.065  0.6668 -0.0595 -0.4330
   28MOL   C44416158   4.391   5.725   1.197  0.1967  0.1484  0.5002
   28MOL   O44516159   4.434   5.813   1.300  0.1806  0.5198  0.1312
   28MOL   C44616160   4.517   5.748   1.385  0.2226 -0.5474  0.1311
   28MOL   O44716161   4.443   5.657   1.466  0.0383  0.2807  0.0475
   28MOL   C44816162   4.573   5.846   1.494 -0.2037 -0.3569  0.1675
   28MOL   O44916163   4.712   5.836   1.499 -0.0952  0.2330 -1.0640
   28MOL   H45016164   4.507   6.021   0.469 -3.2617  0.5000  1.1590
   28MOL   H45116165   4.557   5.857   0.504  3.4850  1.8083 -1.4786
   28MOL   H45216166   4.326   5.867   0.574  1.0005 -0.9077 -0.1065
   28MOL   H45316167   4.424   6.097   0.691  0.3308 -0.6546 -2.4524
   28MOL   H45416168   4.494   5.761   0.761  0.5232  0.7133  0.9379
   28MOL   H45516169   4.474   5.922   0.834 -1.7570  1.3482  0.5995
   28MOL   H45616170   4.392   5.632   0.911  1.8774  1.0188  0.8992
   28MOL   H45716171   4.229   5.684   0.980  0.9166  0.5617  3.7074
   28MOL   H45816172   4.348   5.890   1.070 -0.3412 -0.6665  2.0872
   28MOL   H45916173   4.499   5.818   1.039  0.5220  1.8259  0.7411
   28MOL   H46016174   4.286   5.702   1.210  0.0214  0.4033 -0.4116
   28MOL   H46116175   4.454   5.635   1.193  0.3949  0.1979  1.9613
   28MOL   H46216176   4.600   5.703   1.331  0.3972  0.2769 -0.2986
   28MOL   H46316177   4.361   5.697   1.489 -0.3212 -0.3888 -0.0732
   28MOL   H46416178   4.550   5.948   1.461 -3.8682 -0.8161  1.0197
   28MOL   H46516179   4.527   5.845   1.593  2.0526  1.0289  1.2758
   28MOL   C46616180   4.776   5.919   1.595  0.2939 -0.1815  0.4976
   28MOL   C46716181   4.930   5.925   1.583 -0.0036 -0.9041 -0.0416
   28MOL   O46816182   4.979   5.955   1.458 -0.2478  0.0305 -0.0181
   28MOL   C46916183   4.987   6.033   1.681  0.0098 -0.1546  0.4523
   28MOL   O47016184   4.978   5.976   1.813 -0.2447 -0.0368 -0.0191
   28MOL   C47116185   4.992   6.072   1.922  0.1647 -0.2833  0.5778
   28MOL   C47216186   5.136   6.125   1.929  0.0132  0.3451 -0.1533
   28MOL   C47316187   5.234   6.022   1.923  0.2535  0.8226  0.7027
   28MOL   O47416188   5.355   6.092   1.953 -0.6852  0.2527 -0.0023
   28MOL   C47516189   5.468   6.023   1.933 -0.0161  0.5364  0.0500
   28MOL   O47616190   5.490   5.923   2.035  0.5323 -0.0976  0.1577
   28MOL   C47716191   5.587   6.116   1.909  0.1968 -0.1614 -0.6548
   28MOL   O47816192   5.596   6.153   1.772  0.5627 -0.5037  0.0317
   28MOL   H47916193   4.753   5.906   1.701 -0.7855 -0.8697  0.1909
   28MOL   H48016194   4.735   6.019   1.579 -1.8806 -0.8395  1.7409
   28MOL   H48116195   4.969   5.827   1.608  2.0243 -0.1969 -0.3381
   28MOL   H48216196   4.928   5.910   1.392  1.1073  1.3602 -2.0672
   28MOL   H48316197   5.091   6.051   1.652  0.4274 -0.7320  1.5787
   28MOL   H48416198   4.931   6.124   1.659  0.5126 -0.4012 -2.0194
   28MOL   H48516199   4.974   6.008   2.008 -1.1448 -1.1484 -0.3273
   28MOL   H48616200   4.921   6.155   1.917 -1.6073 -1.8413 -0.9782
   28MOL   H48716201   5.136   6.165   2.030  0.4447 -2.9458  1.1920
   28MOL   H48816202   5.149   6.212   1.864 -2.4985  0.5353 -0.4765
   28MOL   H48916203   5.215   5.944   1.997  0.2034  0.4525  0.3022
   28MOL   H49016204   5.244   5.985   1.821 -0.9744 -2.1863  1.6065
   28MOL   H49116205   5.461   5.966   1.841  2.1569  1.6380 -0.8267
   28MOL   H49216206   5.571   5.880   2.012  1.0125  1.7278 -1.7524
   28MOL   H49316207   5.578   6.202   1.976  2.6091 -0.7571  0.4847
   28MOL   H49416208   5.680   6.070   1.942  0.5358  1.2190  0.3670
   28MOL   C49516209   5.481   6.230   1.720 -0.5662 -1.0224 -0.6685
   28MOL   C49616210   5.538   6.326   1.609  0.5014 -0.5677 -0.0854
   28MOL   O49716211   5.590   6.230   1.515  0.3244 -0.2199  0.0388
   28MOL   C49816212   5.415   6.409   1.551  0.5806 -0.1555  0.3787
   28MOL   O49916213   5.380   6.516   1.639 -0.0765 -0.1694 -0.1807
   28MOL   C50016214   5.276   6.589   1.590  0.4073 -0.3149 -0.3385
   28MOL   C50116215   5.222   6.688   1.697  0.2251 -0.0048 -0.4183
   28MOL   C50216216   5.101   6.639   1.771  0.0891  0.6647 -0.7825
   28MOL   O50316217   4.979   6.663   1.699 -0.3384  0.1559 -0.1138
   28MOL   C50416218   4.863   6.656   1.783  0.1831 -0.5301 -0.3100
   28MOL   O50516219   4.847   6.541   1.862  0.0130  0.0387  0.0675
   28MOL   C50616220   4.733   6.682   1.692 -0.5473 -0.1992 -0.2587
   28MOL   O50716221   4.649   6.769   1.773 -0.5410 -0.2259  0.5704
   28MOL   H50816222   5.434   6.292   1.796 -1.4220 -1.7082 -0.6340
   28MOL   H50916223   5.403   6.169   1.676 -0.1193 -3.4183  1.6962
   28MOL   H51016224   5.612   6.402   1.634 -3.0504  3.1636 -0.4725
   28MOL   H51116225   5.648   6.177   1.568 -1.1594  1.6228  3.6458
   28MOL   H51216226   5.442   6.433   1.448  0.4742  0.1452  0.4214
   28MOL   H51316227   5.334   6.338   1.536  0.1886  0.5053 -0.7438
   28MOL   H51416228   5.195   6.534   1.543  0.4201  1.4606 -2.5648
   28MOL   H51516229   5.316   6.648   1.508  1.2118 -0.2352  0.1057
   28MOL   H51616230   5.197   6.786   1.659 -2.2549 -0.9033 -1.1752
   28MOL   H51716231   5.289   6.704   1.782  0.1600 -0.3421 -0.3011
   28MOL   H51816232   5.122   6.534   1.792 -1.6059  0.5777  0.5325
   28MOL   H51916233   5.095   6.705   1.858 -1.5865 -1.7533  1.0108
   28MOL   H52016234   4.869   6.730   1.862 -2.2363 -1.1323  0.4896
   28MOL   H52116235   4.798   6.551   1.942 -1.0190  1.3660 -0.7197
   28MOL   H52216236   4.755   6.736   1.601 -0.3439  2.1536  1.1366
   28MOL   H52316237   4.676   6.592   1.668 -0.8889 -0.3437  1.0144
   28MOL   C52416238   4.513   6.792   1.731 -0.6569  0.0828  0.0158
   28MOL   C52516239   4.515   6.883   1.605 -0.7813 -0.1122  1.0728
   28MOL   O52616240   4.528   7.018   1.644 -0.5353 -0.2982  0.1322
   28MOL   C52716241   4.387   6.866   1.514  0.4596  0.2419  0.4475
   28MOL   O52816242   4.375   6.738   1.460  0.2627  0.7147  0.3923
   28MOL   C52916243   4.435   6.719   1.334  0.4363  0.0906  0.2809
   28MOL   C53016244   4.458   6.564   1.306 -0.1341  0.3302 -0.3680
   28MOL   C53116245   4.329   6.503   1.273  0.1181  0.2858 -0.1226
   28MOL   O53216246   4.347   6.365   1.271  0.0958  0.9308  0.0982
   28MOL   C53316247   4.226   6.294   1.293  0.3922  0.2884 -0.0897
   28MOL   O53416248   4.170   6.268   1.163 -0.2923 -0.2499 -0.2460
   28MOL   C53516249   4.269   6.161   1.359 -0.5323 -0.2812  0.4640
   28MOL   O53616250   4.271   6.171   1.502  0.0260  0.1940  0.2394
   28MOL   H53716251   4.447   6.841   1.802 -0.1037 -0.8946  1.2182
   28MOL   H53816252   4.472   6.693   1.710 -3.9816  1.6032 -0.9938
   28MOL   H53916253   4.595   6.850   1.538 -0.7674  2.3448 -0.1821
   28MOL   H54016254   4.596   7.038   1.706  1.4486 -0.3121 -1.9707
   28MOL   H54116255   4.305   6.870   1.586  0.8889 -0.7234  1.0001
   28MOL   H54216256   4.384   6.949   1.443  0.7622 -1.5842 -1.7466
   28MOL   H54316257   4.538   6.751   1.350  0.9076 -1.6253  0.8571
   28MOL   H54416258   4.395   6.777   1.252  2.5412  0.5743 -0.4474
   28MOL   H54516259   4.504   6.516   1.392  1.2539 -3.5636 -3.1596
   28MOL   H54616260   4.527   6.555   1.222 -2.1454 -1.8895 -1.8717
   28MOL   H54716261   4.270   6.529   1.361 -0.1991  0.1945 -0.3093
   28MOL   H54816262   4.282   6.534   1.180  0.0002 -0.5374 -0.3407
   28MOL   H54916263   4.161   6.342   1.366 -0.5714 -0.9174 -0.1363
   28MOL   H55016264   4.108   6.337   1.146  0.7935  0.3802 -1.6875
   28MOL   H55116265   4.190   6.092   1.330 -0.4039  1.0073 -3.2005
   28MOL   H55216266   4.359   6.115   1.318  0.4037  1.2398  0.8131
   28MOL   C55316267   4.388   6.228   1.554  0.3680 -0.5174  0.2146
   28MOL   C55416268   4.355   6.251   1.700 -0.1413  0.6465 -0.0518
   28MOL   O55516269   4.295   6.374   1.715 -0.0578 -0.3050  0.6613
   28MOL   C55616270   4.478   6.243   1.780 -0.1674  0.2786 -0.1727
   28MOL   O55716271   4.442   6.241   1.926 -1.2084 -0.4097  0.5112
   28MOL   C55816272   4.559   6.216   2.004  0.1176  0.4735  0.2856
   28MOL   C55916273   4.533   6.219   2.153 -0.5802 -0.6189 -0.2324
   28MOL   C56016274   4.656   6.211   2.249 -0.4604  0.1505  0.5398
   28MOL   O56116275   4.742   6.321   2.218 -0.2661 -0.2716  0.5218
   28MOL   C56216276   4.859   6.328   2.288 -0.8551 -0.3185  0.0671
   28MOL   O56316277   4.928   6.204   2.288  0.1335  0.2356 -0.3583
   28MOL   C56416278   4.948   6.433   2.225  0.0103  0.1909 -0.2908
   28MOL   O56516279   4.991   6.397   2.093 -0.4694 -0.2177 -0.3623
   28MOL   H56616280   4.414   6.322   1.505 -0.4581 -0.6032 -0.4131
   28MOL   H56716281   4.462   6.150   1.538  0.6644 -0.2690  0.3820
   28MOL   H56816282   4.289   6.177   1.745  0.4620 -0.4880 -1.0051
   28MOL   H56916283   4.281   6.390   1.807  0.3086  0.1853  0.6346
   28MOL   H57016284   4.537   6.156   1.752  0.5335  0.1164  1.7359
   28MOL   H57116285   4.549   6.325   1.764 -0.5695  1.2691  2.7551
   28MOL   H57216286   4.599   6.119   1.973  0.6971  0.7479  0.1623
   28MOL   H57316287   4.632   6.290   1.971  0.0815  0.4979  0.2586
   28MOL   H57416288   4.464   6.136   2.168  0.9610 -1.7673  0.7267
   28MOL   H57516289   4.482   6.312   2.178  1.2663  0.5040 -0.5200
   28MOL   H57616290   4.616   6.213   2.350 -0.4384  1.9561  0.5343
   28MOL   H57716291   4.698   6.115   2.221 -0.2791 -0.3436  2.4702
   28MOL   H57816292   4.827   6.344   2.391 -1.4368 -1.4888  0.0704
   28MOL   H57916293   5.015   6.225   2.258  0.8407  1.9105  2.5934
   28MOL   H58016294   4.891   6.526   2.227  0.4331  0.4891 -1.4923
   28MOL   H58116295   5.040   6.438   2.283 -0.1144 -1.9484  0.1394
   28MOL   H58216296   4.911   6.394   2.043 -1.0288  0.7114  0.4781
   29MOL     C116297   5.769   7.238   3.324  0.2500  0.5845  0.3911
   29MOL     C216298   5.867   7.132   3.391 -0.0559 -0.3508 -0.2427
   29MOL     O316299   5.961   7.202   3.473  0.6520 -0.2994  0.0354
   29MOL     C416300   5.794   7.034   3.480 -0.1387  0.4433  0.3627
   29MOL     O516301   5.706   6.952   3.401 -0.4767  0.2580 -0.2701
   29MOL     C616302   5.608   6.882   3.469  0.3046  0.0451 -0.2727
   29MOL     C716303   5.521   6.809   3.365 -0.0233  0.2892  0.5788
   29MOL     C816304   5.413   6.714   3.425  0.2263 -0.0999  0.3858
   29MOL     O916305   5.490   6.603   3.468 -0.0707 -0.7896  0.0967
   29MOL    C1016306   5.420   6.503   3.518 -0.1487 -0.0002 -0.5556
   29MOL    O1116307   5.387   6.537   3.650  0.2165 -0.0383  0.1767
   29MOL    C1216308   5.507   6.372   3.510 -0.2252  0.4359  0.2243
   29MOL    O1316309   5.436   6.275   3.580 -0.0062 -0.2051  0.1036
   29MOL    H1416310   5.694   7.271   3.396 -0.7857  0.4179 -0.6093
   29MOL    H1516311   5.707   7.203   3.242  0.6647  0.5367  0.0920
   29MOL    H1616312   5.911   7.076   3.309 -2.1856 -0.7946 -1.1204
   29MOL    H1716313   5.916   7.274   3.514 -0.2889 -0.4549 -0.7150
   29MOL    H1816314   5.869   6.971   3.527  0.1110 -0.0064 -0.6184
   29MOL    H1916315   5.747   7.098   3.554  0.7157 -0.0902  1.3703
   29MOL    H2016316   5.554   6.954   3.531  1.2658 -0.5007  1.2184
   29MOL    H2116317   5.653   6.804   3.531 -0.5503 -1.2082 -1.1854
   29MOL    H2216318   5.576   6.742   3.299  0.7257  0.4107  1.0675
   29MOL    H2316319   5.485   6.880   3.290  2.4999  1.0405  0.0425
   29MOL    H2416320   5.367   6.761   3.511 -1.4807 -0.3911 -0.3579
   29MOL    H2516321   5.341   6.682   3.350  2.0016  2.7812 -2.7462
   29MOL    H2616322   5.326   6.488   3.464 -1.4182  3.4364  0.5981
   29MOL    H2716323   5.464   6.529   3.704 -0.4161 -3.0994  0.7109
   29MOL    H2816324   5.521   6.340   3.407  2.5831  1.5607  0.2144
   29MOL    H2916325   5.605   6.393   3.551  0.0071 -0.2477  0.0175
   29MOL    H3016326   5.818   7.324   3.278  0.9523 -0.2807 -0.4946
   29MOL    C3116327   5.483   6.145   3.566 -0.2797  0.1107 -0.1821
   29MOL    C3216328   5.424   6.049   3.670  0.0862  0.0627  0.4257
   29MOL    O3316329   5.470   5.916   3.671  0.6267  0.0762  0.0895
   29MOL    C3416330   5.273   6.040   3.666 -0.1048  0.5924 -0.5901
   29MOL    O3516331   5.224   5.978   3.783  0.7185  0.1740 -0.4329
   29MOL    C3616332   5.097   6.036   3.814 -0.1309 -0.8102  0.4101
   29MOL    C3716333   5.036   5.957   3.930  0.4577  0.2829  0.6692
   29MOL    C3816334   4.897   6.007   3.975  0.4787  0.1352 -0.6226
   29MOL    O3916335   4.849   5.924   4.075  0.0701  0.7622  0.2936
   29MOL    C4016336   4.727   5.963   4.114  0.0551  0.4650  0.3306
   29MOL    O4116337   4.736   6.072   4.197 -0.8562 -0.8795  0.1554
   29MOL    C4216338   4.653   5.851   4.190 -0.1324  0.5968 -0.8134
   29MOL    O4316339   4.514   5.873   4.184 -0.3900 -0.3342 -0.2420
   29MOL    H4416340   5.457   6.110   3.466  0.5035  1.0613 -0.7251
   29MOL    H4516341   5.590   6.139   3.585 -0.2159 -3.5113 -1.3491
   29MOL    H4616342   5.456   6.095   3.763  0.7461  0.7386 -0.1335
   29MOL    H4716343   5.481   5.894   3.762  0.4667  1.0358  0.3469
   29MOL    H4816344   5.228   6.139   3.660  1.0894  1.3319  1.9649
   29MOL    H4916345   5.238   5.977   3.585  0.7690 -1.0869  0.3105
   29MOL    H5016346   5.029   6.037   3.729 -0.1381  0.2158  0.4165
   29MOL    H5116347   5.106   6.136   3.857 -2.1314 -0.2134 -0.4724
   29MOL    H5216348   5.114   5.962   4.006 -0.2387  0.2035  1.4003
   29MOL    H5316349   5.030   5.851   3.905  2.6573  0.4881 -0.9174
   29MOL    H5416350   4.905   6.112   4.004 -1.0025  0.0203  0.2427
   29MOL    H5516351   4.840   6.002   3.882  2.1676  0.6118 -1.7177
   29MOL    H5616352   4.653   5.977   4.036 -1.9358 -0.6845  1.9472
   29MOL    H5716353   4.725   6.057   4.290 -1.3886  2.5708  0.7282
   29MOL    H5816354   4.694   5.761   4.144 -1.4122  0.9405 -2.6518
   29MOL    H5916355   4.702   5.847   4.288 -1.7370 -0.6542 -0.0351
   29MOL    C6016356   4.448   5.748   4.220  0.0282 -0.3240  0.0499
   29MOL    C6116357   4.304   5.771   4.169 -0.1895  0.8369 -0.4151
   29MOL    O6216358   4.239   5.846   4.264  0.0608 -0.0492 -0.6044
   29MOL    C6316359   4.227   5.638   4.152  0.6897 -0.3497  0.4579
   29MOL    O6416360   4.284   5.573   4.041 -0.0914 -0.4818  0.5171
   29MOL    C6516361   4.259   5.429   4.048 -0.0160  0.8129  0.8376
   29MOL    C6616362   4.287   5.380   3.904  0.0173  0.6230  0.5378
   29MOL    C6716363   4.254   5.226   3.891  0.2051  0.1058 -0.4359
   29MOL    O6816364   4.360   5.176   3.974 -0.1819 -0.3634 -0.1941
   29MOL    C6916365   4.380   5.041   3.979 -0.7629 -0.4565  0.3781
   29MOL    O7016366   4.422   4.993   3.860  0.6583 -0.5328  0.4384
   29MOL    C7116367   4.480   5.021   4.090 -0.1148 -0.2545 -0.0272
   29MOL    O7216368   4.426   5.007   4.234  0.1459  0.5142  0.4427
   29MOL    H7316369   4.457   5.739   4.328  0.4777  1.4937  0.1842
   29MOL    H7416370   4.500   5.662   4.178 -2.5290 -0.8127 -2.2724
   29MOL    H7516371   4.301   5.814   4.069 -0.7493 -1.7546 -1.5814
   29MOL    H7616372   4.251   5.936   4.238  0.5066  0.6907  2.0924
   29MOL    H7716373   4.231   5.575   4.241 -2.0370  0.1144  0.9579
   29MOL    H7816374   4.121   5.646   4.125  0.9701 -0.1116 -0.5939
   29MOL    H7916375   4.154   5.408   4.070 -0.0695 -0.6017 -0.6593
   29MOL    H8016376   4.327   5.379   4.117 -1.5682 -2.0872  0.3303
   29MOL    H8116377   4.387   5.407   3.868 -0.8249  1.3097 -1.3514
   29MOL    H8216378   4.225   5.428   3.828  1.0422 -0.2203 -0.8467
   29MOL    H8316379   4.271   5.193   3.788 -1.6945 -0.1421 -0.7018
   29MOL    H8416380   4.153   5.204   3.925  0.8470 -0.5329  1.0948
   29MOL    H8516381   4.281   4.999   3.998 -1.6011  0.1973 -2.1816
   29MOL    H8616382   4.500   5.039   3.834  0.7670 -0.3251  1.1364
   29MOL    H8716383   4.551   4.940   4.073  1.1824  1.3252 -2.4810
   29MOL    H8816384   4.545   5.108   4.098  0.0308 -0.0302 -2.9050
   29MOL    C8916385   4.347   5.115   4.286  0.0549 -0.0968  0.0082
   29MOL    C9016386   4.349   5.108   4.441  0.3718 -0.9711 -0.7698
   29MOL    O9116387   4.481   5.143   4.478 -0.2736  0.0186 -0.2479
   29MOL    C9216388   4.249   5.204   4.508 -0.0074  0.0268  0.5715
   29MOL    O9316389   4.270   5.331   4.467 -0.0773  0.6518 -0.1444
   29MOL    C9416390   4.186   5.430   4.517 -0.3203 -0.2947 -0.1985
   29MOL    C9516391   4.273   5.529   4.597  0.3510 -0.1415  1.2839
   29MOL    C9616392   4.323   5.471   4.732 -0.1518  0.7355 -0.1035
   29MOL    O9716393   4.410   5.561   4.802 -0.6539 -0.2676  0.0682
   29MOL    C9816394   4.469   5.508   4.920 -0.1104  0.4147 -0.2058
   29MOL    O9916395   4.373   5.461   5.013  0.2260 -0.0540  0.4361
   29MOL   C10016396   4.580   5.402   4.895 -0.3959  0.1968  0.0544
   29MOL   O10116397   4.657   5.393   5.013  0.3440 -1.0883  0.5368
   29MOL   H10216398   4.247   5.125   4.244  0.1084  1.9578  0.3235
   29MOL   H10316399   4.388   5.205   4.241  0.5011  0.0982  0.8045
   29MOL   H10416400   4.337   5.009   4.484  1.0783 -1.1401 -0.9530
   29MOL   H10516401   4.531   5.071   4.444  0.8060  1.0955 -0.9704
   29MOL   H10616402   4.150   5.164   4.485 -0.5246  1.9966 -0.7507
   29MOL   H10716403   4.245   5.195   4.617 -1.1532 -1.8451  0.3992
   29MOL   H10816404   4.106   5.387   4.578 -0.5963  1.7727  0.9542
   29MOL   H10916405   4.142   5.481   4.431 -1.7795 -1.1205  0.0387
   29MOL   H11016406   4.215   5.620   4.613  1.0531  0.3199  1.2254
   29MOL   H11116407   4.357   5.566   4.539 -0.8570  0.7659  0.0926
   29MOL   H11216408   4.234   5.441   4.787 -1.6928  2.2409 -1.7037
   29MOL   H11316409   4.379   5.379   4.714  0.8959  0.8216  2.5038
   29MOL   H11416410   4.518   5.590   4.972 -0.9702 -0.0518  1.3735
   29MOL   H11516411   4.337   5.532   5.065 -1.2989  0.4253 -1.2077
   29MOL   H11616412   4.532   5.307   4.872 -1.6445  0.6781  0.6078
   29MOL   H11716413   4.648   5.425   4.814  0.9775  0.0557  1.1471
   29MOL   C11816414   4.726   5.274   5.032  0.2082 -0.3024 -0.9025
   29MOL   C11916415   4.740   5.253   5.185 -0.1915 -0.5280 -0.0377
   29MOL   O12016416   4.821   5.357   5.243  0.1841 -0.0277 -0.7527
   29MOL   C12116417   4.801   5.111   5.226  0.2671 -0.5622 -0.8151
   29MOL   O12216418   4.881   5.065   5.119 -0.2358 -0.0737  0.0336
   29MOL   C12316419   5.015   5.126   5.115 -0.1509  0.6044  0.3672
   29MOL   C12416420   5.116   5.011   5.112 -0.4859 -0.0521  0.2084
   29MOL   C12516421   5.264   5.057   5.099  0.2133 -0.2444 -0.1705
   29MOL   O12616422   5.298   5.121   5.222 -0.7086  0.1681 -0.0442
   29MOL   C12716423   5.404   5.196   5.240  0.5174 -0.8474 -0.0497
   29MOL   O12816424   5.504   5.101   5.284 -0.5867  0.5432 -0.6094
   29MOL   C12916425   5.381   5.308   5.344  0.2955  0.0106 -0.4785
   29MOL   O13016426   5.336   5.430   5.277  0.0116 -0.1881  0.4059
   29MOL   H13116427   4.669   5.194   4.984  1.2681 -1.7693  0.2611
   29MOL   H13216428   4.823   5.264   4.984  0.0936 -1.6320 -0.8902
   29MOL   H13316429   4.638   5.267   5.220 -0.1994 -0.2397 -0.1705
   29MOL   H13416430   4.775   5.432   5.209 -0.6528 -0.5037 -0.6976
   29MOL   H13516431   4.857   5.123   5.319  1.6628  1.9966 -1.9004
   29MOL   H13616432   4.725   5.036   5.247  0.1694  0.1188  1.4035
   29MOL   H13716433   5.036   5.195   5.196 -1.9931  1.6365 -0.0078
   29MOL   H13816434   5.014   5.184   5.022  0.7164 -0.5875 -0.4218
   29MOL   H13916435   5.087   4.940   5.034 -1.0949 -0.2877  0.6483
   29MOL   H14016436   5.089   4.947   5.196 -2.6856 -1.4086 -1.4773
   29MOL   H14116437   5.329   4.973   5.078  0.3263 -0.4080  0.8069
   29MOL   H14216438   5.285   5.122   5.014 -0.5806  0.0723 -0.1339
   29MOL   H14316439   5.436   5.232   5.143  1.6226 -0.6984  0.3676
   29MOL   H14416440   5.503   5.104   5.379  0.2953 -1.8812 -0.4943
   29MOL   H14516441   5.333   5.272   5.435 -0.5486  3.0937  0.3588
   29MOL   H14616442   5.472   5.334   5.398 -0.5330 -0.2675  1.0896
   29MOL   C14716443   5.204   5.428   5.230 -0.3921  0.7101 -1.0766
   29MOL   C14816444   5.171   5.552   5.146  0.3829 -0.4321  0.1792
   29MOL   O14916445   5.171   5.666   5.233 -0.2323  0.2615 -0.0479
   29MOL   C15016446   5.027   5.540   5.088  0.1165 -0.0059 -0.1207
   29MOL   O15116447   5.010   5.623   4.976 -0.2915  0.1560  0.4120
   29MOL   C15216448   4.899   5.608   4.894 -0.3838 -0.8388  0.4072
   29MOL   C15316449   4.910   5.688   4.763  0.4867  0.4712 -0.9502
   29MOL   C15416450   4.786   5.690   4.681 -0.4232  0.3448  0.6281
   29MOL   O15516451   4.694   5.793   4.720  0.6289 -0.0889  0.7698
   29MOL   C15616452   4.581   5.792   4.642  0.1004  0.5345 -0.6962
   29MOL   O15716453   4.597   5.852   4.514  0.0470 -0.2285 -0.5831
   29MOL   C15816454   4.464   5.863   4.716 -0.2452 -0.8531  0.1167
   29MOL   O15916455   4.513   5.989   4.763 -0.0984 -0.3033  0.0203
   29MOL   H16016456   5.137   5.421   5.316  0.0794  2.6851 -0.5153
   29MOL   H16116457   5.196   5.338   5.169 -1.4227 -0.5910  0.9368
   29MOL   H16216458   5.244   5.571   5.068 -0.3098  2.2508  0.1314
   29MOL   H16316459   5.190   5.747   5.188  0.5028  0.2133  0.1671
   29MOL   H16416460   4.998   5.438   5.064 -0.2450  0.0317  0.1439
   29MOL   H16516461   4.958   5.565   5.169  1.0004 -1.3086  1.0371
   29MOL   H16616462   4.813   5.636   4.955 -1.5994  0.0965 -1.6900
   29MOL   H16716463   4.887   5.506   4.859 -0.0006 -1.6989  2.6893
   29MOL   H16816464   4.992   5.644   4.706  0.4503 -0.3317 -0.3876
   29MOL   H16916465   4.936   5.791   4.789  4.5544 -1.0700  1.6297
   29MOL   H17016466   4.820   5.698   4.578  1.2358 -2.3440  0.9214
   29MOL   H17116467   4.732   5.596   4.678  1.6936 -0.8549 -2.8095
   29MOL   H17216468   4.545   5.688   4.641  0.4047  0.4053  0.9671
   29MOL   H17316469   4.646   5.932   4.519  0.7802 -0.6252 -1.3865
   29MOL   H17416470   4.383   5.875   4.644 -0.2497 -0.8007  0.1304
   29MOL   H17516471   4.434   5.805   4.803 -3.4828 -0.0071 -0.3782
   29MOL   C17616472   4.439   6.055   4.860 -0.3541 -0.1140 -0.2118
   29MOL   C17716473   4.526   6.075   4.985 -1.0082 -0.2732 -0.3410
   29MOL   O17816474   4.536   5.946   5.047  0.0852  0.4638 -0.1051
   29MOL   C17916475   4.454   6.171   5.079  0.5388  0.1275  0.5496
   29MOL   O18016476   4.534   6.224   5.184  0.3101  0.2766  0.0578
   29MOL   C18116477   4.534   6.140   5.294 -0.0391 -0.3914 -0.3993
   29MOL   C18216478   4.603   6.231   5.403 -0.0933 -0.1390  0.1464
   29MOL   C18316479   4.617   6.183   5.550 -0.2844  0.0765 -0.4771
   29MOL   O18416480   4.726   6.089   5.570 -0.1324  0.2700 -0.4427
   29MOL   C18516481   4.749   6.039   5.702 -0.1670  0.2607  0.1317
   29MOL   O18616482   4.831   6.131   5.772  0.1527 -0.6190 -0.0363
   29MOL   C18716483   4.816   5.898   5.698  0.5654  0.3340  0.0733
   29MOL   O18816484   4.760   5.828   5.797  0.1516  0.1565 -0.0351
   29MOL   H18916485   4.340   6.010   4.862  0.1635 -1.3132 -0.7013
   29MOL   H19016486   4.418   6.152   4.816 -2.3519 -0.4770 -0.1206
   29MOL   H19116487   4.626   6.109   4.957 -1.4109  0.1166 -1.2961
   29MOL   H19216488   4.589   5.901   4.983 -2.6482 -1.0938 -1.3657
   29MOL   H19316489   4.431   6.261   5.021  1.5630  0.2878  0.3755
   29MOL   H19416490   4.364   6.123   5.117  0.1576 -0.1604 -0.6892
   29MOL   H19516491   4.588   6.048   5.271  2.3918  1.4842 -2.4115
   29MOL   H19616492   4.433   6.122   5.330 -0.7677  1.6487 -1.3395
   29MOL   H19716493   4.552   6.328   5.393  0.1714  0.1926  1.8593
   29MOL   H19816494   4.701   6.261   5.365 -0.3049 -0.1095 -0.3828
   29MOL   H19916495   4.632   6.275   5.607  1.8883 -0.6227  0.1226
   29MOL   H20016496   4.527   6.144   5.598 -0.8912 -1.4892 -2.8356
   29MOL   H20116497   4.652   6.030   5.751  0.1114  0.5969  0.7537
   29MOL   H20216498   4.772   6.199   5.799  1.2958  0.1290  0.6326
   29MOL   H20316499   4.787   5.862   5.600 -3.8849  1.7160  0.7728
   29MOL   H20416500   4.924   5.912   5.705  0.6454 -0.9441  1.6811
   29MOL   C20516501   4.828   5.820   5.923 -0.3101  0.0657 -0.2988
   29MOL   C20616502   4.736   5.783   6.034 -0.0816 -0.3551 -0.2235
   29MOL   O20716503   4.723   5.640   6.039  0.1901 -0.6466  0.1962
   29MOL   C20816504   4.777   5.824   6.172  0.2409 -0.3261 -0.1014
   29MOL   O20916505   4.745   5.956   6.195 -0.2568  0.3025 -0.5844
   29MOL   C21016506   4.775   5.998   6.328 -0.4630 -0.4762 -0.8982
   29MOL   C21116507   4.913   6.071   6.330  0.7384 -0.2820  0.5120
   29MOL   C21216508   4.925   6.197   6.238 -0.2631  0.0673  0.2868
   29MOL   O21316509   5.051   6.250   6.258  0.0677 -0.2847 -0.2127
   29MOL   C21416510   5.089   6.365   6.191  0.5083 -0.7418 -0.2436
   29MOL   O21516511   5.098   6.343   6.050  0.3084 -0.2608 -0.0877
   29MOL   C21616512   5.231   6.403   6.238  0.3225 -0.5416 -0.6756
   29MOL   O21716513   5.320   6.293   6.210  1.1580  0.1207  0.1104
   29MOL   H21816514   4.869   5.919   5.946 -0.4826  0.5180 -1.8679
   29MOL   H21916515   4.911   5.753   5.902 -0.7746 -0.2549 -1.1076
   29MOL   H22016516   4.633   5.813   6.015  0.2100 -0.1674 -1.5658
   29MOL   H22116517   4.650   5.611   6.093  0.3937 -1.1086  0.2294
   29MOL   H22216518   4.735   5.762   6.251 -1.1265  0.6121 -0.0563
   29MOL   H22316519   4.883   5.802   6.178  0.7088  1.6124 -0.8422
   29MOL   H22416520   4.778   5.912   6.395 -1.2759 -0.0330 -0.2873
   29MOL   H22516521   4.689   6.050   6.370  1.9253  1.5920  1.6357
   29MOL   H22616522   4.991   5.996   6.314  1.6038  0.7520 -0.1882
   29MOL   H22716523   4.947   6.111   6.426 -1.6030  0.2024  1.1669
   29MOL   H22816524   4.914   6.155   6.137  0.8249 -0.4952  0.3928
   29MOL   H22916525   4.850   6.271   6.263 -0.7360 -0.6999  1.1778
   29MOL   H23016526   5.017   6.446   6.200  0.0672 -1.4219  2.7517
   29MOL   H23116527   5.168   6.281   6.043  0.0259 -0.8376  1.9477
   29MOL   H23216528   5.271   6.497   6.198 -3.2034 -0.1525 -3.5569
   29MOL   H23316529   5.222   6.426   6.344  1.2878  2.1529 -1.1149
   29MOL   C23416530   5.451   6.309   6.269 -0.7146  0.2807  0.6944
   29MOL   C23516531   5.548   6.391   6.182  0.5793  0.1316  0.8501
   29MOL   O23616532   5.528   6.529   6.213  0.4374  0.2363  0.0284
   29MOL   C23716533   5.532   6.384   6.033 -0.4380  0.0131 -0.0590
   29MOL   O23816534   5.632   6.462   5.963 -0.1796 -0.1252 -0.0986
   29MOL   C23916535   5.606   6.499   5.828 -0.3473 -0.6360 -0.4454
   29MOL   C24016536   5.737   6.535   5.763 -0.1292  0.7167  0.7522
   29MOL   C24116537   5.732   6.576   5.620  0.3023  0.2322  0.1374
   29MOL   O24216538   5.693   6.713   5.599  0.0774 -0.0564  0.2412
   29MOL   C24316539   5.640   6.737   5.475 -0.3815 -0.2252  0.2077
   29MOL   O24416540   5.718   6.692   5.369 -0.9944 -0.7710 -0.9561
   29MOL   C24516541   5.608   6.889   5.467 -0.5077  0.1644 -0.3653
   29MOL   O24616542   5.714   6.969   5.524  0.0969 -0.2086 -0.9591
   29MOL   H24716543   5.443   6.355   6.367 -2.2193 -1.0062  1.1958
   29MOL   H24816544   5.504   6.214   6.279  0.9166  0.9897 -0.8345
   29MOL   H24916545   5.649   6.368   6.217  1.6645  1.1787 -1.5329
   29MOL   H25016546   5.604   6.575   6.182  2.0189 -2.8429 -0.8496
   29MOL   H25116547   5.557   6.282   6.005 -1.0290 -0.7022  1.9512
   29MOL   H25216548   5.431   6.415   6.006  0.4426  1.5612 -1.7720
   29MOL   H25316549   5.547   6.591   5.832 -1.5651 -1.4478  0.5463
   29MOL   H25416550   5.547   6.426   5.771  0.6986 -1.5593 -0.3616
   29MOL   H25516551   5.787   6.438   5.764  0.7470  1.0602 -2.7267
   29MOL   H25616552   5.791   6.606   5.825  0.5471  1.1450 -0.2932
   29MOL   H25716553   5.828   6.554   5.572  0.1381 -0.5144  0.1423
   29MOL   H25816554   5.669   6.509   5.561  0.5110  0.4991 -0.3923
   29MOL   H25916555   5.551   6.676   5.466 -1.0631  0.9987 -1.4751
   29MOL   H26016556   5.794   6.744   5.350 -0.0086 -1.9360 -0.2627
   29MOL   H26116557   5.590   6.911   5.362 -2.4413 -0.3288 -0.1566
   29MOL   H26216558   5.515   6.908   5.521 -0.1681 -1.6007  0.8764
   29MOL   C26316559   5.683   7.110   5.525  0.5469  0.0436 -0.2004
   29MOL   C26416560   5.694   7.154   5.672  0.1345 -0.2715  0.3490
   29MOL   O26516561   5.820   7.110   5.705 -0.0366  0.3290  0.5976
   29MOL   C26616562   5.683   7.316   5.688  0.5183  0.7089 -0.0370
   29MOL   O26716563   5.566   7.358   5.754  0.0274  0.5697  0.6357
   29MOL   C26816564   5.582   7.351   5.897  0.3106 -0.0978  0.4309
   29MOL   C26916565   5.455   7.380   5.975  0.0587  0.2874 -0.4144
   29MOL   C27016566   5.454   7.340   6.127  0.5008 -0.5224 -0.5226
   29MOL   O27116567   5.324   7.370   6.183  0.5406  0.0983  0.0481
   29MOL   C27216568   5.330   7.356   6.321  0.4001 -0.4825 -0.2181
   29MOL   O27316569   5.397   7.468   6.372 -0.2750 -0.1422 -0.1168
   29MOL   C27416570   5.186   7.358   6.379 -0.6478 -0.0658 -0.5601
   29MOL   O27516571   5.130   7.226   6.372  0.2899 -0.0423  0.3447
   29MOL   H27616572   5.586   7.138   5.483 -0.4647 -1.0486  1.3529
   29MOL   H27716573   5.763   7.146   5.460  0.1278 -0.4530 -1.0078
   29MOL   H27816574   5.626   7.104   5.741 -0.0836 -2.2108 -1.2234
   29MOL   H27916575   5.805   7.026   5.664 -1.2419  1.1538 -0.6971
   29MOL   H28016576   5.769   7.368   5.730  0.4030  1.0640 -0.2321
   29MOL   H28116577   5.677   7.367   5.592  0.5369 -0.7106 -0.8056
   29MOL   H28216578   5.657   7.423   5.929 -0.2529 -0.2787  2.2414
   29MOL   H28316579   5.613   7.248   5.914  1.8179  0.4353  0.9534
   29MOL   H28416580   5.377   7.322   5.926  0.4652 -1.1797  0.6224
   29MOL   H28516581   5.434   7.486   5.961 -0.1960  1.1579  5.2613
   29MOL   H28616582   5.463   7.232   6.125  3.2954 -0.3064 -1.7955
   29MOL   H28716583   5.538   7.375   6.186  0.0984 -1.5780  0.6988
   29MOL   H28816584   5.376   7.264   6.357 -1.3608 -1.1026  0.5008
   29MOL   H28916585   5.379   7.540   6.314 -0.4239 -0.3865 -0.3740
   29MOL   H29016586   5.183   7.374   6.487 -2.2019 -2.0950 -0.2760
   29MOL   H29116587   5.127   7.439   6.338 -2.0421  0.8714  3.0446
   29MOL   C29216588   5.072   7.199   6.244  0.0496  0.3691  0.1240
   29MOL   C29316589   4.947   7.100   6.266  1.3401 -0.2342 -0.0157
   29MOL   O29416590   4.845   7.174   6.331 -0.0848 -0.2878  0.0566
   29MOL   C29516591   4.900   7.035   6.134 -0.0514 -0.5588  0.1945
   29MOL   O29616592   4.845   6.907   6.156 -0.3129 -0.7197 -0.2482
   29MOL   C29716593   4.822   6.832   6.038 -0.9477 -0.0785 -0.0953
   29MOL   C29816594   4.839   6.681   6.081  0.0584  0.7570  0.3972
   29MOL   C29916595   4.821   6.583   5.966 -0.6350  0.2979 -0.4107
   29MOL   O30016596   4.701   6.591   5.902  0.0186  0.2956 -0.4198
   29MOL   C30116597   4.684   6.507   5.794 -0.1405  1.2885 -0.3912
   29MOL   O30216598   4.698   6.370   5.832  0.0569  0.4810  1.0275
   29MOL   C30316599   4.545   6.540   5.756  0.9013  0.2339 -1.0639
   29MOL   O30416600   4.463   6.508   5.865  0.2006  0.6172 -0.1663
   29MOL   H30516601   5.032   7.293   6.205  0.2193  1.2679  2.0495
   29MOL   H30616602   5.152   7.162   6.180  0.4039 -1.3147  1.5214
   29MOL   H30716603   4.978   7.022   6.334  0.0581 -2.0090 -1.4275
   29MOL   H30816604   4.889   7.192   6.413 -0.4771 -0.1350  0.2354
   29MOL   H30916605   4.809   7.078   6.093  0.6173  0.6291 -0.0649
   29MOL   H31016606   4.983   7.031   6.063  0.5864 -0.6167  0.9403
   29MOL   H31116607   4.890   6.852   5.956 -1.2826  1.7371  0.0516
   29MOL   H31216608   4.728   6.854   5.987  0.3604  0.4095 -2.3395
   29MOL   H31316609   4.765   6.660   6.158 -0.7255  3.3594  0.4037
   29MOL   H31416610   4.940   6.666   6.120  0.4573  0.4773 -0.7044
   29MOL   H31516611   4.895   6.614   5.892  0.9829 -1.0390  0.6236
   29MOL   H31616612   4.849   6.481   5.993  0.6503  0.9221  0.7063
   29MOL   H31716613   4.756   6.525   5.714 -0.1967  1.2363 -0.4520
   29MOL   H31816614   4.616   6.341   5.870  0.3971  1.5613  2.6160
   29MOL   H31916615   4.516   6.482   5.669  1.5849 -0.2761 -0.9551
   29MOL   H32016616   4.528   6.644   5.729  3.9312  1.1147  0.1806
   29MOL   C32116617   4.330   6.515   5.824 -0.2850 -0.5632  0.2116
   29MOL   C32216618   4.236   6.550   5.945  0.0340  0.5471 -0.1218
   29MOL   O32316619   4.220   6.441   6.032 -0.0052  0.7379 -0.1663
   29MOL   C32416620   4.283   6.664   6.037  0.4204  0.3902  0.1666
   29MOL   O32516621   4.286   6.794   5.972  0.5899  0.4508  0.2147
   29MOL   C32616622   4.422   6.843   5.961 -0.1680  0.1190 -0.3017
   29MOL   C32716623   4.424   6.996   5.944  0.0278 -0.7398  0.3464
   29MOL   C32816624   4.362   7.020   5.809  0.0941  0.7196  0.5488
   29MOL   O32916625   4.371   7.159   5.805 -0.2114  0.6066  0.2241
   29MOL   C33016626   4.342   7.217   5.680  0.4749  0.1087  0.3006
   29MOL   O33116627   4.226   7.165   5.624 -0.0691  0.2223  0.2639
   29MOL   C33216628   4.324   7.369   5.701  0.3440  0.2978  0.8842
   29MOL   O33316629   4.208   7.386   5.780 -0.5119 -0.0684 -0.4458
   29MOL   H33416630   4.315   6.414   5.785  0.8972 -0.4666 -0.5304
   29MOL   H33516631   4.323   6.596   5.752  0.7710  1.7194  2.5990
   29MOL   H33616632   4.139   6.586   5.911 -0.6066 -0.8726  0.2038
   29MOL   H33716633   4.301   6.399   6.056  0.1019  1.8860  1.5433
   29MOL   H33816634   4.372   6.639   6.095  0.0330 -0.9311  0.2095
   29MOL   H33916635   4.210   6.676   6.117 -0.0448  0.6449 -0.2997
   29MOL   H34016636   4.472   6.800   5.874 -1.1358 -3.1258  0.6979
   29MOL   H34116637   4.493   6.833   6.043  1.4847  1.7948 -1.4834
   29MOL   H34216638   4.365   7.048   6.019  2.0607  1.6432  0.3282
   29MOL   H34316639   4.525   7.037   5.942  0.1311 -1.0025  0.1954
   29MOL   H34416640   4.420   6.988   5.723 -1.9258  2.3097 -1.4482
   29MOL   H34516641   4.261   6.980   5.807  0.2659  0.3209 -0.5175
   29MOL   H34616642   4.425   7.187   5.615  0.5571 -0.9703  0.9027
   29MOL   H34716643   4.154   7.192   5.679  0.4986 -1.5970  2.0033
   29MOL   H34816644   4.416   7.407   5.746 -0.1497  1.7523  0.6750
   29MOL   H34916645   4.321   7.411   5.601  1.4510 -1.3684  0.1308
   29MOL   C35016646   4.159   7.516   5.787  0.3962 -0.0396  0.3281
   29MOL   C35116647   4.020   7.528   5.855  0.3142 -1.0530 -1.1421
   29MOL   O35216648   3.981   7.664   5.856  0.1330 -0.0703  0.4493
   29MOL   C35316649   3.919   7.442   5.780 -0.1557 -0.3889  1.0114
   29MOL   O35416650   3.803   7.441   5.858  1.0143 -0.3527  0.5518
   29MOL   C35516651   3.683   7.475   5.789  0.0208  0.3680  0.1201
   29MOL   C35616652   3.569   7.437   5.879  0.1100  0.0428  1.3352
   29MOL   C35716653   3.435   7.433   5.811  0.0723  0.3815 -0.6828
   29MOL   O35816654   3.341   7.399   5.916  0.2527  0.8129  0.1189
   29MOL   C35916655   3.204   7.446   5.889 -0.5430  0.0488  0.0968
   29MOL   O36016656   3.141   7.370   5.786  0.2591  0.4787  0.2738
   29MOL   C36116657   3.118   7.416   6.017 -0.1001 -0.0924  0.6208
   29MOL   O36216658   2.984   7.467   5.997 -0.4126 -0.5505 -0.3415
   29MOL   H36316659   4.160   7.570   5.692 -2.3382  1.8350  1.2853
   29MOL   H36416660   4.241   7.570   5.833  1.0937 -0.0160 -0.9207
   29MOL   H36516661   4.040   7.483   5.953 -0.2912 -0.9787 -0.9843
   29MOL   H36616662   3.890   7.675   5.879  0.5569  0.6446  1.8700
   29MOL   H36716663   3.901   7.494   5.686  0.8848  2.0351  2.1029
   29MOL   H36816664   3.951   7.341   5.754 -2.2572 -0.3611 -2.0208
   29MOL   H36916665   3.671   7.434   5.689 -0.1345  0.7363 -0.0142
   29MOL   H37016666   3.672   7.582   5.771  0.2439  0.2724 -0.5923
   29MOL   H37116667   3.559   7.510   5.958  1.4880  1.3588  0.3320
   29MOL   H37216668   3.578   7.338   5.923 -1.0657 -0.4647  0.4761
   29MOL   H37316669   3.397   7.522   5.762 -0.1081 -0.2346 -1.6832
   29MOL   H37416670   3.432   7.367   5.724 -0.4765  0.0795 -0.4350
   29MOL   H37516671   3.196   7.550   5.857 -1.1312  0.3297  1.1334
   29MOL   H37616672   3.049   7.360   5.804  0.5148 -1.8240  0.4593
   29MOL   H37716673   3.121   7.308   6.026 -1.0699 -0.1163  0.6541
   29MOL   H37816674   3.150   7.467   6.108  2.5277 -1.4262  0.4880
   29MOL   C37916675   2.884   7.402   6.067 -0.1222  0.2204  0.3490
   29MOL   C38016676   2.745   7.453   6.051  0.8610  0.4537  0.6588
   29MOL   O38116677   2.682   7.384   5.947  0.2565 -0.2119  0.0741
   29MOL   C38216678   2.660   7.454   6.183  0.2753  0.3056 -0.4509
   29MOL   O38316679   2.543   7.528   6.147  0.1547  0.3603 -0.0737
   29MOL   C38416680   2.449   7.562   6.254 -0.5156 -0.2692  0.4048
   29MOL   C38516681   2.491   7.692   6.321  0.5081  0.4274  0.1635
   29MOL   C38616682   2.521   0.114   6.222  0.1157  0.5666 -0.0562
   29MOL   O38716683   2.530   0.229   6.308  0.3120 -0.4920 -0.5653
   29MOL   C38816684   2.592   0.337   6.244  0.0217  0.0070 -0.2488
   29MOL   O38916685   2.519   0.377   6.136 -0.0025 -0.1906 -0.6723
   29MOL   C39016686   2.610   0.451   6.347 -0.4791  0.0325  0.1174
   29MOL   O39116687   2.482   0.497   6.389 -0.0515  0.0806  0.0128
   29MOL   H39216688   2.922   7.414   6.169 -0.8233 -2.3557  0.9613
   29MOL   H39316689   2.890   7.294   6.050  1.5100  0.0869  1.5577
   29MOL   H39416690   2.751   7.555   6.015  0.9251  0.0018 -0.6435
   29MOL   H39516691   2.595   7.419   5.944  0.0027 -0.9325 -2.3080
   29MOL   H39616692   2.644   7.352   6.217 -0.7825  0.3204 -0.8991
   29MOL   H39716693   2.714   7.516   6.254 -1.7572  2.8541 -1.0753
   29MOL   H39816694   2.440   7.483   6.329  1.8248 -0.7848  0.1916
   29MOL   H39916695   2.347   7.582   6.222 -0.2506  0.2104 -0.1494
   29MOL   H40016696   2.574   7.684   6.390  1.2058  1.7849 -0.4913
   29MOL   H40116697   2.404   0.022   6.381  0.8524  0.4789  0.6379
   29MOL   H40216698   2.615   0.088   6.173  0.1272  1.7549 -0.6841
   29MOL   H40316699   2.437   0.131   6.155 -0.8514  2.3663  1.5312
   29MOL   H40416700   2.693   0.307   6.216 -0.9683 -1.3597 -2.5387
   29MOL   H40516701   2.448   0.431   6.169  0.0678 -0.3448 -0.2650
   29MOL   H40616702   2.664   0.406   6.430 -2.1141  1.9794  2.2998
   29MOL   H40716703   2.670   0.535   6.311  0.2286 -0.4555  0.1617
   29MOL   C40816704   2.480   0.597   6.486  0.2574  0.4766 -0.0414
   29MOL   C40916705   2.327   0.639   6.505  0.1852  0.0108 -0.2850
   29MOL   O41016706   2.284   0.711   6.396 -0.3063  0.0073 -0.1516
   29MOL   C41116707   2.310   0.730   6.633  0.0288  0.4732 -0.3780
   29MOL   O41216708   2.393   0.848   6.633 -0.1012  0.2500 -0.1560
   29MOL   C41316709   2.320   0.969   6.609 -0.2769 -0.2289  0.1352
   29MOL   C41416710   2.431   1.084   6.624 -0.1048 -0.3109 -0.1818
   29MOL   C41516711   2.482   1.092   6.768  0.1206 -0.3874 -0.0617
   29MOL   O41616712   2.571   1.209   6.772  0.6147 -0.4595 -0.0701
   29MOL   C41716713   2.623   1.259   6.898  0.8958  1.8939 -0.3132
   29MOL   O41816714   2.526   1.353   6.951  0.5096 -0.5750 -0.6035
   29MOL   C41916715   2.756   1.336   6.870 -0.4027 -0.1167 -0.3205
   29MOL   O42016716   2.866   1.257   6.911  0.4888  0.6909 -0.4771
   29MOL   H42116717   2.547   0.678   6.458  0.2194  0.6787  0.4421
   29MOL   H42216718   2.526   0.545   6.570 -0.0535  0.9355  0.4145
   29MOL   H42316719   2.269   0.547   6.514  2.9620 -1.6172  2.2635
   29MOL   H42416720   2.303   0.643   6.332 -2.0511  1.4107 -2.2183
   29MOL   H42516721   2.207   0.762   6.650  0.3720  1.4323 -0.0325
   29MOL   H42616722   2.343   0.680   6.724  0.3542 -0.6129 -1.0889
   29MOL   H42716723   2.278   0.973   6.508  0.5046  2.5974 -0.1236
   29MOL   H42816724   2.236   0.988   6.676  0.2411 -0.0413  0.7406
   29MOL   H42916725   2.391   1.181   6.596  2.4459  0.7459 -0.3036
   29MOL   H43016726   2.509   1.061   6.552  0.4897 -2.1773  1.0041
   29MOL   H43116727   2.398   1.101   6.837  1.7263 -0.7264  1.9713
   29MOL   H43216728   2.534   1.002   6.802 -0.2078 -0.0903  1.2715
   29MOL   H43316729   2.631   1.188   6.980 -0.7866  2.5467  0.4308
   29MOL   H43416730   2.542   1.438   6.915  2.1473 -0.2802  0.7251
   29MOL   H43516731   2.750   1.374   6.767  1.4545 -0.0816 -0.4347
   29MOL   H43616732   2.766   1.426   6.931  0.3100  0.5177 -1.3510
   29MOL   C43716733   2.987   1.315   6.874 -0.3030 -0.5017  0.0711
   29MOL   C43816734   3.099   1.221   6.926  0.6059 -0.1446 -0.4356
   29MOL   O43916735   3.077   1.214   7.064 -0.1054 -0.0001 -0.7452
   29MOL   C44016736   3.243   1.277   6.902  0.0085  0.4005  0.7315
   29MOL   O44116737   3.281   1.232   6.772  0.4336  0.7949 -0.1893
   29MOL   C44216738   3.389   1.300   6.725  0.5082 -0.1408 -0.2547
   29MOL   C44316739   3.452   1.221   6.611  0.0792 -0.4481  0.5129
   29MOL   C44416740   3.527   1.096   6.659 -1.4934 -0.1576  0.0686
   29MOL   O44516741   3.444   0.997   6.723 -0.0537 -0.0330  0.1020
   29MOL   C44616742   3.474   0.968   6.858  0.3074 -0.6223 -0.8678
   29MOL   O44716743   3.605   0.919   6.873 -0.1997  0.2161  0.0962
   29MOL   C44816744   3.367   0.862   6.907 -0.0270  0.2210 -0.0238
   29MOL   O44916745   3.307   0.900   7.028 -0.4248 -0.4473 -0.0844
   29MOL   H45016746   2.992   1.314   6.765  0.0454  1.2876  0.0413
   29MOL   H45116747   2.991   1.418   6.912 -1.5212 -0.3380 -0.2212
   29MOL   H45216748   3.100   1.126   6.873 -3.8994 -0.8224  0.5255
   29MOL   H45316749   2.997   1.164   7.072  0.8906 -1.5045  0.0469
   29MOL   H45416750   3.253   1.385   6.910  0.0621  0.3896  0.8064
   29MOL   H45516751   3.313   1.234   6.973 -0.3824 -0.4633  0.6117
   29MOL   H45616752   3.460   1.303   6.807 -0.4114 -0.5170  0.5768
   29MOL   H45716753   3.363   1.401   6.695  2.1404  0.6432  0.9282
   29MOL   H45816754   3.518   1.280   6.547 -1.3144  0.3174 -0.2296
   29MOL   H45916755   3.369   1.189   6.548  0.3088  0.1297 -0.0971
   29MOL   H46016756   3.569   1.044   6.573 -0.8606  1.8765 -0.8816
   29MOL   H46116757   3.606   1.120   6.729  1.0240 -0.9451 -2.4266
   29MOL   H46216758   3.474   1.069   6.900  0.0629  0.3492 -3.1645
   29MOL   H46316759   3.621   0.900   6.965  1.1124  0.2124 -0.1270
   29MOL   H46416760   3.295   0.847   6.827  0.2589  0.0756 -0.2556
   29MOL   H46516761   3.414   0.764   6.916 -0.1872  0.1471  0.0123
   29MOL   C46616762   3.219   0.805   7.092 -0.1112 -0.1918  0.8102
   29MOL   C46716763   3.077   0.805   7.036 -0.3754  0.0776  0.0678
   29MOL   O46816764   3.062   0.721   6.930 -1.0783  0.4667 -0.0117
   29MOL   C46916765   2.973   0.784   7.145 -0.5304  0.5946 -0.0142
   29MOL   O47016766   2.853   0.849   7.109 -0.1704  0.7130 -0.0611
   29MOL   C47116767   2.777   0.875   7.227 -1.2431  0.2400  0.6370
   29MOL   C47216768   2.826   1.003   7.301  0.7706 -0.0124 -0.0043
   29MOL   C47316769   2.746   1.026   7.430  0.1452 -1.1744  0.0326
   29MOL   O47416770   2.757   1.162   7.461  0.0925 -0.4900  0.1947
   29MOL   C47516771   2.678   1.199   7.564 -0.5359 -0.1667  0.3550
   29MOL   O47616772   2.550   1.229   7.515 -0.2617  0.1825  0.2724
   29MOL   C47716773   2.741   1.314   7.649  0.0835 -0.6823  0.8832
   29MOL   O47816774   2.845   1.263   0.037  0.6941 -0.2950  0.1011
   29MOL   H47916775   3.221   0.849   7.192 -0.4038  1.0152  0.2825
   29MOL   H48016776   3.255   0.703   7.111 -0.0093 -0.7396 -2.1446
   29MOL   H48116777   3.060   0.910   7.010 -0.1493 -0.2122 -1.3105
   29MOL   H48216778   2.983   0.735   6.880 -1.1486 -0.8230 -0.2798
   29MOL   H48316779   2.944   0.682   7.170 -1.7782  0.9467 -0.0079
   29MOL   H48416780   3.017   0.832   7.232 -1.0111  2.1384 -0.5995
   29MOL   H48516781   2.794   0.790   7.293  4.6801 -0.5369 -1.5092
   29MOL   H48616782   2.669   0.873   7.211 -0.7305 -1.1411 -3.2171
   29MOL   H48716783   2.802   1.085   7.234  1.2915 -0.9206 -1.3341
   29MOL   H48816784   2.930   1.025   7.327  0.2978  1.1375  0.9111
   29MOL   H48916785   2.639   1.003   7.426  0.4118 -2.1966 -1.7396
   29MOL   H49016786   2.783   0.964   7.512  0.9851 -0.0214  0.5386
   29MOL   H49116787   2.659   1.116   7.632 -0.3313 -0.3855  0.1491
   29MOL   H49216788   2.544   1.323   7.500 -1.4499  0.1600  0.5447
   29MOL   H49316789   2.770   1.390   7.577 -3.4684 -0.2178 -0.1284
   29MOL   H49416790   2.661   1.347   0.021 -2.0830 -0.1336 -1.9073
   29MOL   C49516791   2.911   1.370   0.108 -0.1874  0.1754  0.3692
   29MOL   C49616792   3.057   1.324   0.158  0.4957 -0.1256  0.1977
   29MOL   O49716793   3.121   1.270   0.041 -0.1346  0.3929 -0.4945
   29MOL   C49816794   3.132   1.437   0.222  0.2833 -0.6744 -0.1439
   29MOL   O49916795   3.208   1.391   0.327  0.2453  0.4023  0.1800
   29MOL   C50016796   3.245   1.488   0.419  1.1559  0.5881  0.8793
   29MOL   C50116797   3.333   1.441   0.533 -0.0946 -0.0635 -0.1836
   29MOL   C50216798   3.276   1.316   0.612  0.4939 -0.0615 -0.2435
   29MOL   O50316799   3.372   1.275   0.711  0.3766 -0.0933  0.2127
   29MOL   C50416800   3.339   1.170   0.798  0.8861 -0.9529  0.6092
   29MOL   O50516801   3.266   1.211   0.906  0.3524 -0.2220 -0.1168
   29MOL   C50616802   3.468   1.098   0.842 -0.0435  0.2298 -1.1428
   29MOL   O50716803   3.454   0.960   0.832  0.5556 -0.2949  0.2321
   29MOL   H50816804   2.847   1.398   0.192 -1.0158  1.6658 -0.7362
   29MOL   H50916805   2.933   1.452   0.040 -2.1382  0.2949 -0.1383
   29MOL   H51016806   3.043   1.246   0.233  0.2647  0.1051  0.3927
   29MOL   H51116807   3.112   1.176   0.042 -0.4310  0.4241  0.0510
   29MOL   H51216808   3.198   1.483   0.148  1.2101 -0.6328  0.6971
   29MOL   H51316809   3.063   1.514   0.254 -0.6579 -1.6114  0.1231
   29MOL   H51416810   3.153   1.530   0.462 -0.2343 -0.9343 -0.5307
   29MOL   H51516811   3.301   1.560   0.359  2.2901 -0.6151  0.4740
   29MOL   H51616812   3.354   1.525   0.599  1.9906 -0.2373 -0.5947
   29MOL   H51716813   3.430   1.418   0.491  0.4486 -0.0669  1.0577
   29MOL   H51816814   3.184   1.355   0.656  0.0838 -1.2060 -0.0850
   29MOL   H51916815   3.238   1.239   0.546  2.2360 -0.9598 -0.2327
   29MOL   H52016816   3.274   1.104   0.740 -0.0556  0.4844 -0.0262
   29MOL   H52116817   3.180   1.235   0.874  0.5126 -0.5254 -0.7816
   29MOL   H52216818   3.550   1.137   0.782  1.2721  0.0702  0.5234
   29MOL   H52316819   3.483   1.124   0.947 -0.5167  2.9995 -1.7280
   29MOL   C52416820   3.433   0.911   0.695 -0.2645 -0.1558 -0.4693
   29MOL   C52516821   3.503   0.765   0.699 -0.1741  0.0385  0.3775
   29MOL   O52616822   3.493   0.717   0.564 -0.5079  0.3059 -0.3647
   29MOL   C52716823   3.441   0.664   0.796 -0.4373 -0.6280 -0.2842
   29MOL   O52816824   3.522   0.545   0.789  0.7810  0.3325 -0.2942
   29MOL   C52916825   3.460   0.429   0.837  0.2104 -0.2780 -0.5076
   29MOL   C53016826   3.572   0.326   0.866  0.2363 -0.6138 -0.1359
   29MOL   C53116827   3.512   0.190   0.894 -0.6935 -0.0320  0.5961
   29MOL   O53216828   3.430   0.208   1.010  0.2640  0.8075 -0.1913
   29MOL   C53316829   3.351   0.096   1.033 -0.0890  0.5348 -0.4643
   29MOL   O53416830   3.410   7.665   1.000  0.5483 -0.2919  0.2832
   29MOL   C53516831   3.314   0.094   1.182  0.8594  0.4170 -0.3877
   29MOL   O53616832   3.208   0.191   1.205 -0.4231  0.8093 -0.2412
   29MOL   H53716833   3.480   0.977   0.621 -1.8810  2.3479  0.6674
   29MOL   H53816834   3.326   0.894   0.679 -0.2028 -0.0850 -0.9991
   29MOL   H53916835   3.605   0.786   0.729  0.2076 -2.0630  0.5871
   29MOL   H54016836   3.511   0.624   0.568 -0.4129  0.3634  0.5598
   29MOL   H54116837   3.447   0.709   0.895  0.0561 -1.2994 -0.0075
   29MOL   H54216838   3.337   0.638   0.775 -0.6479 -0.6337  0.7539
   29MOL   H54316839   3.394   0.405   0.755 -0.1833  2.2440 -0.9542
   29MOL   H54416840   3.402   0.446   0.928  1.0284  2.3490 -0.4298
   29MOL   H54516841   3.632   0.356   0.952  0.3937 -0.5348 -0.2741
   29MOL   H54616842   3.637   0.322   0.778 -0.2013  1.8994 -0.5942
   29MOL   H54716843   3.458   0.165   0.802  3.2214  0.8398 -2.0790
   29MOL   H54816844   3.589   0.115   0.911 -1.1990 -0.4205  1.1657
   29MOL   H54916845   3.269   0.104   0.962 -1.2725  0.6181  0.8794
   29MOL   H55016846   3.494   7.656   1.043 -0.7500  1.1365  3.2374
   29MOL   H55116847   3.281   7.687   1.207 -0.5907  1.0144  0.1159
   29MOL   H55216848   3.402   0.126   1.238  0.9821  0.4508 -0.6001
   29MOL   C55316849   3.074   0.149   1.173  0.2453 -0.1465 -0.1186
   29MOL   C55416850   2.991   0.275   1.197  1.1979 -0.5012 -0.1339
   29MOL   O55516851   2.983   0.306   1.337 -0.9799 -0.1107 -0.1744
   29MOL   C55616852   2.848   0.261   1.129  0.3320 -0.4997 -0.4076
   29MOL   O55716853   2.862   0.262   0.986 -0.4842  0.1437 -0.1203
   29MOL   C55816854   2.741   0.217   0.930  0.3108  0.2205 -0.0069
   29MOL   C55916855   2.737   0.059   0.935 -0.1853  0.6427  0.0518
   29MOL   C56016856   2.647   7.690   0.822 -0.3362  0.3812 -0.1265
   29MOL   O56116857   2.514   0.043   0.850  0.0170 -0.4978 -0.0858
   29MOL   C56216858   2.446   0.045   0.730 -0.0160 -0.3175 -0.0692
   29MOL   O56316859   2.438   7.609   0.673 -0.0518  0.2858 -0.0831
   29MOL   C56416860   2.308   0.081   0.772 -0.5877 -0.1290 -0.4294
   29MOL   O56516861   2.245   7.660   0.832  0.4832  0.4228  0.1100
   29MOL   H56616862   3.038   0.067   1.236  1.6523 -0.1702  0.6734
   29MOL   H56716863   3.076   0.117   1.069  1.9257  2.1026 -0.8291
   29MOL   H56816864   3.048   0.354   1.148  2.3521 -0.3670  1.3792
   29MOL   H56916865   3.069   0.298   1.377 -1.4869  3.1720  1.7588
   29MOL   H57016866   2.822   0.159   1.157  1.1291 -0.7735 -0.6696
   29MOL   H57116867   2.785   0.343   1.163 -0.8043  0.0995 -3.7236
   29MOL   H57216868   2.647   0.256   0.968  0.1681  0.6036 -0.7403
   29MOL   H57316869   2.743   0.223   0.821  1.6702 -0.6046 -0.0401
   29MOL   H57416870   2.703   0.019   1.031  0.9261 -0.4855 -0.0175
   29MOL   H57516871   2.839   0.026   0.914 -0.1515  0.2737  0.7834
   29MOL   H57616872   2.683   0.019   0.722  1.4708 -0.6418  0.2533
   29MOL   H57716873   2.650   7.581   0.832  0.2134  0.3371 -0.6936
   29MOL   H57816874   2.495   0.116   0.663  1.1487  1.9986  3.1113
   29MOL   H57916875   2.356   7.574   0.704  0.0655 -0.4003 -0.5388
   29MOL   H58016876   2.316   0.165   0.841  1.4489 -0.8755  0.2691
   29MOL   H58116877   2.267   0.126   0.682 -0.1697 -0.0142 -0.5628
   29MOL   H58216878   2.313   7.624   0.887  0.8973  0.7051 -0.2073
   30MOL     C116879   1.413   3.952   6.962  0.1427  0.4353  0.0154
   30MOL     C216880   1.456   4.048   6.849 -0.6729  0.0194 -0.0438
   30MOL     O316881   1.390   4.174   6.860 -0.2259  0.4700 -0.4825
   30MOL     C416882   1.605   4.078   6.857 -0.6766 -0.0093 -0.2748
   30MOL     O516883   1.676   3.969   6.797  0.8041  0.2044  0.0227
   30MOL     C616884   1.816   3.995   6.795 -0.0882  0.0290 -0.5398
   30MOL     C716885   1.891   3.869   6.752 -0.3256  0.0640  0.4441
   30MOL     C816886   1.888   3.833   6.601 -0.1162  0.1848 -0.5691
   30MOL     O916887   1.982   3.915   6.527  0.3763  0.0249 -0.1364
   30MOL    C1016888   2.060   3.852   6.434 -0.0548  0.4279  0.3187
   30MOL    O1116889   2.152   3.756   6.496 -0.2205 -0.4673 -0.2746
   30MOL    C1216890   2.134   3.951   6.352  0.2423 -0.4268 -0.4323
   30MOL    O1316891   2.194   4.042   6.436 -0.5315 -0.3818 -0.1683
   30MOL    H1416892   1.479   3.866   6.958 -0.4654 -0.0376  0.0301
   30MOL    H1516893   1.314   3.920   6.930 -0.4701  0.1237  2.1399
   30MOL    H1616894   1.424   4.012   6.752  0.7520 -1.8843  0.1636
   30MOL    H1716895   1.310   4.168   6.810  0.1866  0.5227 -1.1630
   30MOL    H1816896   1.624   4.168   6.798  2.8186  0.0406  0.8065
   30MOL    H1916897   1.638   4.078   6.961 -1.8363  0.2979  0.1053
   30MOL    H2016898   1.857   4.018   6.894 -0.0328 -0.1770 -0.5133
   30MOL    H2116899   1.824   4.077   6.724 -2.3583 -0.4606 -1.3902
   30MOL    H2216900   1.844   3.783   6.799 -0.7184 -1.1005 -1.9736
   30MOL    H2316901   1.993   3.872   6.791 -0.1122 -0.1869 -0.0833
   30MOL    H2416902   1.914   3.728   6.592 -0.8346 -0.0808  0.3317
   30MOL    H2516903   1.791   3.857   6.557  0.2321  0.7279 -1.0598
   30MOL    H2616904   1.988   3.792   6.378  1.9265 -1.9446  0.2203
   30MOL    H2716905   2.213   3.809   6.545 -1.6258  0.8218  0.1249
   30MOL    H2816906   2.210   3.899   6.293  0.6769 -1.5216  1.0746
   30MOL    H2916907   2.078   4.000   6.272  2.4794  0.7773 -1.3069
   30MOL    H3016908   1.403   3.997   7.061 -1.0007  1.3763 -0.5266
   30MOL    C3116909   2.273   4.134   6.355  0.0991 -0.6759  0.0797
   30MOL    C3216910   2.317   4.256   6.444 -0.1058  0.0679 -0.0127
   30MOL    O3316911   2.198   4.289   6.509 -0.1555 -0.6406  0.2097
   30MOL    C3416912   2.374   4.376   6.364  0.0177  0.8144 -0.0305
   30MOL    O3516913   2.426   4.484   6.440  0.0731 -0.0442  0.1187
   30MOL    C3616914   2.465   4.599   6.368  0.1561  0.3686  0.5218
   30MOL    C3716915   2.587   4.663   6.444 -0.1532 -0.5258 -0.2368
   30MOL    C3816916   2.710   4.582   6.425 -0.4887 -0.1216 -0.2291
   30MOL    O3916917   2.819   4.614   6.515 -0.0157 -0.4321  0.2469
   30MOL    C4016918   2.943   4.554   6.483  0.5923 -0.1139  0.2187
   30MOL    O4116919   2.936   4.415   6.464 -0.3400  0.0887 -0.2702
   30MOL    C4216920   3.049   4.587   6.580  0.2670 -0.0208 -0.6623
   30MOL    O4316921   3.021   4.522   6.711  0.4351 -0.2104  0.4189
   30MOL    H4416922   2.370   4.098   6.322 -0.5246 -1.6319 -0.7386
   30MOL    H4516923   2.213   4.171   6.272  1.2160 -1.0334 -0.8956
   30MOL    H4616924   2.394   4.210   6.505 -1.6962 -0.9710  1.2419
   30MOL    H4716925   2.143   4.213   6.498  0.8238 -1.3312 -0.0431
   30MOL    H4816926   2.455   4.341   6.300 -1.3172 -0.9458 -0.8043
   30MOL    H4916927   2.295   4.423   6.304 -0.1230 -0.5792 -0.9767
   30MOL    H5016928   2.379   4.666   6.369  0.6599  1.2440 -3.7566
   30MOL    H5116929   2.492   4.588   6.263  0.2442  0.1195  0.5721
   30MOL    H5216930   2.565   4.663   6.551  0.6710 -0.3379 -0.0619
   30MOL    H5316931   2.598   4.769   6.421  0.0438  0.7317  4.9968
   30MOL    H5416932   2.679   4.478   6.430 -0.0713 -0.2485 -0.2457
   30MOL    H5516933   2.739   4.597   6.321 -1.2247 -0.1912 -0.4481
   30MOL    H5616934   2.969   4.593   6.384 -0.5131 -0.7496 -0.3394
   30MOL    H5716935   2.925   4.376   6.550 -1.0817 -0.4858 -0.6174
   30MOL    H5816936   3.145   4.563   6.533 -0.0238  0.4655 -1.5164
   30MOL    H5916937   3.059   4.695   6.582 -1.5138  0.1337  0.3196
   30MOL    C6016938   3.133   4.514   6.785  0.7402 -0.4814 -0.5675
   30MOL    C6116939   3.090   4.438   6.915 -0.8906  0.6560 -0.3476
   30MOL    O6216940   3.010   4.531   6.986  0.2806  0.5590 -0.3005
   30MOL    C6316941   3.213   4.393   7.001 -0.0164  0.2498 -0.4697
   30MOL    O6416942   3.173   4.279   7.084  0.2044 -0.2115 -0.3917
   30MOL    C6516943   3.270   4.241   7.180  0.3746  0.3062  0.2501
   30MOL    C6616944   3.241   4.089   7.227  0.3436 -0.9864 -0.0331
   30MOL    C6716945   3.350   4.015   7.312  0.3088  0.1194  1.1010
   30MOL    O6816946   3.311   3.877   7.343  0.1166 -0.2481  0.1434
   30MOL    C6916947   3.415   3.815   7.405  1.0070  0.2480 -0.1784
   30MOL    O7016948   3.440   3.876   7.530  0.1136  0.2899 -0.7193
   30MOL    C7116949   3.384   3.669   7.426 -0.2892 -0.4354  0.2959
   30MOL    O7216950   3.378   3.602   7.305 -0.1173  0.8623  0.3072
   30MOL    H7316951   3.180   4.609   6.811 -2.4798  0.9005  0.3124
   30MOL    H7416952   3.194   4.438   6.734 -0.7814 -1.2367 -1.2972
   30MOL    H7516953   3.021   4.359   6.885 -3.0600  2.3584  0.0409
   30MOL    H7616954   2.972   4.590   6.922 -4.0941  2.2693  3.5223
   30MOL    H7716955   3.297   4.357   6.943  0.4274 -0.0792  0.3810
   30MOL    H7816956   3.254   4.479   7.054 -2.1103  0.1146  1.4495
   30MOL    H7916957   3.305   4.316   7.252  0.5323  0.3123  0.1663
   30MOL    H8016958   3.358   4.230   7.117  0.7814 -1.6108  1.1156
   30MOL    H8116959   3.223   4.030   7.138 -2.0100  0.5139 -0.5871
   30MOL    H8216960   3.152   4.084   7.290  0.2815 -0.7489 -0.1034
   30MOL    H8316961   3.367   4.071   7.405  2.0567  0.2491  0.7126
   30MOL    H8416962   3.440   4.024   7.252 -1.0632  2.5901 -0.6818
   30MOL    H8516963   3.505   3.827   7.345  0.7849  1.5592 -0.2862
   30MOL    H8616964   3.482   3.809   7.582  0.4047  0.0493 -1.2514
   30MOL    H8716965   3.458   3.618   7.487 -0.5314 -0.6216  0.4333
   30MOL    H8816966   3.285   3.655   7.470 -0.3033  0.9514  0.7488
   30MOL    C8916967   3.455   3.483   7.292 -0.7113  0.4084 -0.1703
   30MOL    C9016968   3.417   3.360   7.381 -0.2587  0.4364  0.3639
   30MOL    O9116969   3.306   3.296   7.326 -0.1435 -0.1043 -0.5317
   30MOL    C9216970   3.522   3.252   7.414 -0.6372  0.5792 -0.2461
   30MOL    O9316971   3.628   3.314   7.481 -0.3003 -0.0801  0.6316
   30MOL    C9416972   3.742   3.230   7.498 -0.2257 -0.1665 -0.3285
   30MOL    C9516973   3.856   3.298   7.558 -0.1991 -0.4018  0.1803
   30MOL    C9616974   3.916   3.404   7.464  0.3133  0.4462 -0.3513
   30MOL    O9716975   4.019   3.471   7.546 -0.7534  0.1343  0.0767
   30MOL    C9816976   4.103   3.552   7.471  0.0420 -0.3253  0.8772
   30MOL    O9916977   4.035   3.657   7.410  0.3917  0.0849  0.9329
   30MOL   C10016978   4.207   3.610   7.570  0.0623 -0.1394  0.0461
   30MOL   O10116979   4.257   3.504   7.644 -0.0753  0.1258 -0.4898
   30MOL   H10216980   3.550   3.519   7.332 -0.3484 -0.1517 -0.5249
   30MOL   H10316981   3.450   3.452   7.188  1.2091  1.3712 -0.5748
   30MOL   H10416982   3.381   3.402   7.476 -2.3980  0.2837 -0.3409
   30MOL   H10516983   3.228   3.347   7.344  1.3609  1.0789  3.1871
   30MOL   H10616984   3.493   3.176   7.486 -2.2432  0.8236 -0.6313
   30MOL   H10716985   3.554   3.199   7.325  0.7912 -1.0475  1.2037
   30MOL   H10816986   3.768   3.181   7.405  1.8931  2.4586 -1.1570
   30MOL   H10916987   3.713   3.156   7.573  0.6122 -0.6095 -0.4427
   30MOL   H11016988   3.933   3.221   7.568 -0.5971 -0.8608 -0.3030
   30MOL   H11116989   3.835   3.336   7.658  1.1955 -1.8101  1.0235
   30MOL   H11216990   3.958   3.351   7.380  0.6606  1.9053 -1.1234
   30MOL   H11316991   3.848   3.473   7.415 -0.7732 -0.3725 -0.0127
   30MOL   H11416992   4.153   3.495   7.393  3.1018  0.8578  1.8956
   30MOL   H11516993   4.001   3.706   7.484 -1.9331 -3.0803  2.0810
   30MOL   H11616994   4.292   3.655   7.518 -0.1981 -0.8538 -1.0116
   30MOL   H11716995   4.163   3.692   7.626 -0.4901 -1.4476  1.5407
   30MOL   C11816996   4.330   3.551   0.061 -0.4726  0.6366 -0.6980
   30MOL   C11916997   4.369   3.434   0.151  0.2208 -1.0074 -0.1727
   30MOL   O12016998   4.488   3.376   0.089 -0.1830 -0.5126  0.8421
   30MOL   C12116999   4.254   3.336   0.186 -0.0894 -0.3706 -0.2620
   30MOL   O12217000   4.155   3.422   0.240 -0.0241  0.3717 -0.1984
   30MOL   C12317001   4.030   3.351   0.259 -0.5619  0.0840 -0.7889
   30MOL   C12417002   3.929   3.460   0.301 -0.3346  0.4562 -0.6119
   30MOL   C12517003   3.792   3.409   0.350 -0.4929 -0.8824 -0.2422
   30MOL   O12617004   3.734   3.314   0.262 -0.7849 -0.4975 -0.2405
   30MOL   C12717005   3.599   3.310   0.292 -0.0508 -0.4259 -0.0920
   30MOL   O12817006   3.568   3.228   0.406  0.1331 -0.4656 -0.6403
   30MOL   C12917007   3.521   3.252   0.172 -0.0158  0.6057 -1.0103
   30MOL   O13017008   3.403   3.325   0.144  0.2605 -0.0207 -0.2402
   30MOL   H13117009   4.405   3.619   0.021  0.5233 -1.3348 -2.2757
   30MOL   H13217010   4.259   3.616   0.112 -1.2533  1.8043 -3.2097
   30MOL   H13317011   4.415   3.475   0.241  1.2569 -1.3043 -0.5638
   30MOL   H13417012   4.455   3.354   0.003 -1.2553 -0.6253  1.2744
   30MOL   H13517013   4.222   3.275   0.101  0.4606  0.0826 -0.8035
   30MOL   H13617014   4.289   3.260   0.255 -3.2366 -0.8679  0.8383
   30MOL   H13717015   4.044   3.265   0.324 -0.4336 -0.2194 -1.2138
   30MOL   H13817016   3.997   3.313   0.163  0.8389 -4.0665  0.2619
   30MOL   H13917017   3.907   3.525   0.216  0.0996  1.2311 -0.1357
   30MOL   H14017018   3.964   3.524   0.382 -0.5118 -0.7072  0.3940
   30MOL   H14117019   3.794   3.370   0.452 -0.8921 -0.0065  0.1054
   30MOL   H14217020   3.734   3.500   0.364  0.9928  0.1319 -0.5578
   30MOL   H14317021   3.561   3.409   0.317 -5.0523 -2.3224  0.4610
   30MOL   H14417022   3.478   3.244   0.430  0.1134 -0.4459 -0.7256
   30MOL   H14517023   3.589   3.259   0.087 -0.0504  2.6020 -0.8950
   30MOL   H14617024   3.506   3.145   0.188  0.8398  0.8475  1.7210
   30MOL   C14717025   3.288   3.262   0.201  0.1327 -0.0549  0.5306
   30MOL   C14817026   3.164   3.358   0.209 -0.2377  0.2349  0.4636
   30MOL   O14917027   3.163   3.432   0.327 -0.1568  0.3005 -0.1866
   30MOL   C15017028   3.031   3.277   0.199  0.3017  0.1897 -0.1694
   30MOL   O15117029   2.974   3.275   0.063 -0.3887  0.1915 -0.3621
   30MOL   C15217030   3.032   3.162   7.684  0.6456  0.1784  0.6707
   30MOL   C15317031   2.965   3.136   7.550 -0.5552  0.1764 -0.4330
   30MOL   C15417032   2.982   3.002   7.485  1.0057  0.0042 -0.2864
   30MOL   O15517033   3.123   2.972   7.459 -0.1698 -0.1646  1.0519
   30MOL   C15617034   3.160   2.847   7.414  0.1067 -0.6078 -0.5388
   30MOL   O15717035   3.133   2.748   7.510 -0.2828 -0.4778 -0.1041
   30MOL   C15817036   3.314   2.849   7.378 -0.5489 -0.1080  0.5690
   30MOL   O15917037   3.333   2.858   7.240  0.0710  0.1563 -0.6003
   30MOL   H16017038   3.311   3.225   0.301 -3.4137  1.6431  2.0609
   30MOL   H16117039   3.265   3.178   0.137 -1.0193  0.9644 -0.4162
   30MOL   H16217040   3.171   3.420   0.119  1.9895 -2.5307 -1.3574
   30MOL   H16317041   3.076   3.461   0.351 -0.6950 -0.8381 -0.7171
   30MOL   H16417042   3.021   3.185   0.256 -0.3563  1.0725  1.1506
   30MOL   H16517043   2.956   3.329   0.258 -1.4857 -0.5228 -1.7741
   30MOL   H16617044   3.034   3.070   0.048 -3.0246 -0.1111  0.4531
   30MOL   H16717045   3.137   3.183   7.663  0.4711  0.6427  0.2484
   30MOL   H16817046   2.994   3.211   7.477  2.4002  1.1812  1.7077
   30MOL   H16917047   2.858   3.143   7.573 -0.2635  0.5356  0.8120
   30MOL   H17017048   2.945   2.925   7.552  0.5065 -0.5359 -1.1657
   30MOL   H17117049   2.917   2.987   7.399  0.3049  1.6140 -0.0496
   30MOL   H17217050   3.103   2.827   7.323  0.8284 -0.5347 -1.0118
   30MOL   H17317051   3.105   2.666   7.472 -0.6943 -1.2131  1.7322
   30MOL   H17417052   3.360   2.935   7.428  1.6197 -0.4786 -0.7203
   30MOL   H17517053   3.356   2.761   7.427  1.8924 -0.3504 -1.8358
   30MOL   C17617054   3.348   2.990   7.189 -0.3209  0.4833 -0.3377
   30MOL   C17717055   3.366   2.985   7.033 -0.6890 -0.4784  0.7149
   30MOL   O17817056   3.469   2.893   6.996  0.1225 -0.0326  0.2851
   30MOL   C17917057   3.369   3.129   6.960 -0.1556  0.3168  0.7034
   30MOL   O18017058   3.266   3.148   6.864 -0.0283  0.1899  0.4201
   30MOL   C18117059   3.279   3.083   6.736  0.1960 -0.0739 -0.5308
   30MOL   C18217060   3.134   3.100   6.683 -0.4843 -0.5829  0.2873
   30MOL   C18317061   3.106   3.003   6.568 -0.3072 -0.3965 -0.1024
   30MOL   O18417062   3.089   2.874   6.624  0.3064  0.1529 -0.5862
   30MOL   C18517063   3.062   2.775   6.540  0.4974  0.2296  0.5862
   30MOL   O18617064   3.160   2.758   6.445  0.0170 -0.1848  0.2731
   30MOL   C18717065   2.921   2.778   6.477 -0.7013  0.0439 -0.6186
   30MOL   O18817066   2.855   2.655   6.466  0.2486 -0.0772 -0.2140
   30MOL   H18917067   3.436   3.034   7.235  0.1953  0.6486 -1.4715
   30MOL   H19017068   3.266   3.055   7.219  0.3621  1.9823 -1.6489
   30MOL   H19117069   3.277   2.935   6.997 -0.0479  0.1555 -1.8466
   30MOL   H19217070   3.454   2.827   7.063  0.6982  2.0168  2.5115
   30MOL   H19317071   3.360   3.201   7.041  1.1858  1.1315  0.1568
   30MOL   H19417072   3.467   3.150   6.916 -0.8841 -0.5222 -1.4119
   30MOL   H19517073   3.317   2.981   6.733  1.1705  0.2763 -0.3713
   30MOL   H19617074   3.344   3.137   6.667 -0.2733  1.9324  0.5718
   30MOL   H19717075   3.112   3.203   6.657 -2.7942 -1.3536 -0.9512
   30MOL   H19817076   3.056   3.081   6.756  0.4748 -0.3389  1.3857
   30MOL   H19917077   3.010   3.025   6.522  1.0874  1.0860 -2.4194
   30MOL   H20017078   3.173   3.004   6.482 -2.3234 -0.1661 -1.7033
   30MOL   H20117079   3.056   2.690   6.608 -0.2715  0.7674  1.2077
   30MOL   H20217080   3.226   2.704   6.486 -0.4736 -0.4997  0.6604
   30MOL   H20317081   2.851   2.826   6.545  0.8013  0.9404  0.3010
   30MOL   H20417082   2.925   2.833   6.382  0.5855  3.1746  1.1878
   30MOL   C20517083   2.905   2.571   6.363  0.3688 -0.2362  0.0048
   30MOL   C20617084   2.845   2.427   6.375 -0.1298  0.3128  0.3458
   30MOL   O20717085   2.712   2.439   6.322 -0.3767 -0.1500  0.3126
   30MOL   C20817086   2.920   2.319   6.300  0.2328 -0.5360  0.7145
   30MOL   O20917087   3.054   2.284   6.333 -0.3366 -0.4090  0.2138
   30MOL   C21017088   3.072   2.202   6.443 -0.1455  0.1086  0.0690
   30MOL   C21117089   3.223   2.197   6.472 -0.5020 -0.0971  0.3939
   30MOL   C21217090   3.318   2.133   6.367  0.7147  0.1473 -0.0384
   30MOL   O21317091   3.437   2.113   6.436  0.0611  0.0712 -0.8295
   30MOL   C21417092   3.512   2.003   6.376  0.2908  0.0503  1.0478
   30MOL   O21517093   3.633   1.985   6.449  0.5788  0.2961 -0.0674
   30MOL   C21617094   3.544   2.037   6.233 -0.0568  0.5662  0.7131
   30MOL   O21717095   3.440   1.991   6.143  0.0404 -0.2908 -0.0492
   30MOL   H21817096   3.013   2.562   6.373  0.2954  0.6317  1.8047
   30MOL   H21917097   2.884   2.621   6.268  1.0799 -2.1231 -1.1704
   30MOL   H22017098   2.836   2.399   6.480 -0.5979  0.5783  0.3780
   30MOL   H22117099   2.670   2.513   6.365  1.2039  2.0282 -1.7670
   30MOL   H22217100   2.865   2.225   6.308 -1.7721  0.2106 -3.0065
   30MOL   H22317101   2.914   2.353   6.196  0.4496 -1.4148  0.4080
   30MOL   H22417102   3.024   2.108   6.413  3.3556 -1.8980  0.3872
   30MOL   H22517103   3.024   2.247   6.529 -2.2660 -2.0321  0.0701
   30MOL   H22617104   3.220   2.152   6.571 -2.3846 -2.1239 -0.5492
   30MOL   H22717105   3.260   2.299   6.482  1.1420 -0.5420 -0.8947
   30MOL   H22817106   3.270   2.042   6.332 -0.1988  0.3969  0.5319
   30MOL   H22917107   3.338   2.197   6.281 -0.3180 -0.2205 -0.5580
   30MOL   H23017108   3.450   1.914   6.385 -3.1640  2.0547 -1.7818
   30MOL   H23117109   3.675   1.913   6.403 -0.1010  0.7546 -1.4484
   30MOL   H23217110   3.550   2.146   6.225 -0.5946  0.7905  2.9141
   30MOL   H23317111   3.646   2.003   6.213 -0.4573 -0.1772 -0.0538
   30MOL   C23417112   3.465   2.014   6.004 -0.9016  0.9182 -0.4490
   30MOL   C23517113   3.330   2.017   5.934 -0.8472  0.3241  0.0182
   30MOL   O23617114   3.372   2.044   5.802  0.0013 -0.6362  0.2963
   30MOL   C23717115   3.233   2.122   5.985  0.1507 -0.2319 -0.3217
   30MOL   O23817116   3.119   2.129   5.896  0.1512 -0.1838 -0.2519
   30MOL   C23917117   2.998   2.150   5.961  0.4118  0.3078  0.0746
   30MOL   C24017118   2.920   2.023   5.986  0.0310  0.7729 -0.0279
   30MOL   C24117119   2.817   2.035   6.104 -0.0694 -0.3317  0.2455
   30MOL   O24217120   2.717   1.941   6.092  0.1711  0.4713  0.0547
   30MOL   C24317121   2.663   1.918   6.218  0.5792  0.7038 -0.3834
   30MOL   O24417122   2.750   1.837   6.298  0.4097 -0.5192 -0.0188
   30MOL   C24517123   2.527   1.834   6.196  0.3080  0.8634  0.3002
   30MOL   O24617124   2.413   1.915   6.192  0.2786  0.2567  0.7173
   30MOL   H24717125   3.509   2.113   5.993 -1.9792  1.1521 -3.1265
   30MOL   H24817126   3.537   1.945   5.961 -2.4209  0.4627 -2.3359
   30MOL   H24917127   3.291   1.916   5.924  1.2989 -0.7073  1.5104
   30MOL   H25017128   3.400   2.134   5.798 -0.6349 -0.3759  1.3608
   30MOL   H25117129   3.193   2.078   6.077  0.4472  1.4389  0.6241
   30MOL   H25217130   3.281   2.217   6.011  0.6354 -0.2341 -1.2184
   30MOL   H25317131   2.930   2.213   5.903 -0.0589  1.8926  2.2625
   30MOL   H25417132   3.008   2.191   6.062  1.3509 -2.3643  1.0919
   30MOL   H25517133   2.984   1.937   6.006 -1.6182 -0.3885  0.4231
   30MOL   H25617134   2.870   1.994   5.894 -0.3377  0.1110  0.3770
   30MOL   H25717135   2.869   2.020   6.199 -0.0071 -2.9748 -0.1508
   30MOL   H25817136   2.775   2.134   6.092 -2.7797 -1.6110 -1.1060
   30MOL   H25917137   2.641   2.007   6.277 -2.0008 -0.0018 -0.2394
   30MOL   H26017138   2.731   1.748   6.274  1.9656  0.1333 -4.0630
   30MOL   H26117139   2.539   1.779   6.102  0.9766 -2.5190  2.2819
   30MOL   H26217140   2.515   1.764   6.279 -1.1104  0.3295 -0.3440
   30MOL   C26317141   2.404   1.996   6.069 -0.3699  0.0353 -0.2176
   30MOL   C26417142   2.284   2.103   6.065 -0.7448  0.2766  0.4152
   30MOL   O26517143   2.272   2.140   5.930 -0.2859 -0.0491 -0.0088
   30MOL   C26617144   2.147   2.050   6.108 -0.1588  0.2392 -0.0547
   30MOL   O26717145   2.055   2.157   6.141  0.3298 -0.0683 -0.3648
   30MOL   C26817146   1.929   2.112   6.184  0.3667 -0.6309  0.3805
   30MOL   C26917147   1.861   2.202   6.281  0.7236 -0.0505 -0.4751
   30MOL   C27017148   1.734   2.137   6.352  0.0960 -0.0268  0.7850
   30MOL   O27117149   1.671   2.230   6.438  0.3736  0.2682 -0.0768
   30MOL   C27217150   1.575   2.176   6.521  0.2671  0.1268  0.4412
   30MOL   O27317151   1.635   2.079   6.603 -0.0900 -0.1777 -0.2823
   30MOL   C27417152   1.505   2.295   6.590 -0.6220  0.1082  0.0739
   30MOL   O27517153   1.602   2.390   6.639  0.0169  0.5905 -0.1144
   30MOL   H27617154   2.392   1.917   5.995 -0.3431 -0.2349  0.0647
   30MOL   H27717155   2.503   2.039   6.054 -0.5321  0.1901 -0.8640
   30MOL   H27817156   2.313   2.183   6.133  1.7378  1.6259 -2.1166
   30MOL   H27917157   2.346   2.189   5.899 -1.5805  0.9074 -1.7022
   30MOL   H28017158   2.105   1.973   6.044  3.4893 -0.7802 -1.3305
   30MOL   H28117159   2.171   1.999   6.202  0.1159  0.7478  0.1567
   30MOL   H28217160   1.927   2.012   6.226  0.8302 -0.8634 -0.1525
   30MOL   H28317161   1.867   2.108   6.094  1.0980 -0.2444 -0.1445
   30MOL   H28417162   1.841   2.296   6.228  3.4471  0.3074 -0.9322
   30MOL   H28517163   1.928   2.224   6.364 -2.0005 -0.0822  1.7893
   30MOL   H28617164   1.666   2.099   6.276  0.0525 -0.9018  1.2530
   30MOL   H28717165   1.762   2.047   6.406  0.6650 -0.1496  0.2939
   30MOL   H28817166   1.501   2.125   6.459 -0.1447  2.0548 -0.6962
   30MOL   H28917167   1.709   2.119   6.646  1.5408 -2.0320 -1.3173
   30MOL   H29017168   1.439   2.344   6.517  0.7203  0.3859 -0.9847
   30MOL   H29117169   1.445   2.249   6.668 -0.4760 -0.3022 -0.0545
   30MOL   C29217170   1.539   2.507   6.705  0.5381  0.3444 -0.3442
   30MOL   C29317171   1.634   2.632   6.705  0.2647  0.2758  1.0458
   30MOL   O29417172   1.636   2.683   6.573  0.4639 -0.1426 -0.0971
   30MOL   C29517173   1.573   2.741   6.801 -0.1282  0.3607 -0.3086
   30MOL   O29617174   1.663   2.844   6.821  0.5100  0.1405 -0.0581
   30MOL   C29717175   1.757   2.817   6.923 -0.0369  0.2351  0.1172
   30MOL   C29817176   1.876   2.906   6.895 -0.5982 -0.1730  0.1466
   30MOL   C29917177   1.976   2.908   6.999  0.2320 -1.2215 -0.1075
   30MOL   O30017178   2.033   2.782   6.997 -0.2267 -0.2928  0.6480
   30MOL   C30117179   2.163   2.779   7.055  0.1329  0.4534 -0.4425
   30MOL   O30217180   2.151   2.810   7.196  1.0482 -0.5077 -0.6274
   30MOL   C30317181   2.222   2.639   7.047  0.5376  0.3452  0.0805
   30MOL   O30417182   2.295   2.633   6.924  0.3749 -0.2812 -0.4650
   30MOL   H30517183   1.444   2.536   6.660 -0.2255  0.1746  1.1275
   30MOL   H30617184   1.511   2.482   6.807  1.4248 -0.7174 -0.3578
   30MOL   H30717185   1.732   2.603   6.741 -0.5384 -2.4425  1.1403
   30MOL   H30817186   1.547   2.711   6.557  0.2533 -0.5255  0.3935
   30MOL   H30917187   1.484   2.774   6.748 -0.6731 -0.7748 -0.1181
   30MOL   H31017188   1.556   2.694   6.897  0.1069 -0.4799 -0.6704
   30MOL   H31117189   1.786   2.713   6.942 -0.5967  0.1791  0.6785
   30MOL   H31217190   1.717   2.854   7.017  1.9488 -0.0047  1.0889
   30MOL   H31317191   1.847   3.010   6.883  0.1321 -0.1265 -1.3419
   30MOL   H31417192   1.925   2.876   6.802 -2.4930 -0.2902 -0.8373
   30MOL   H31517193   2.047   2.983   6.963 -1.5122  0.2426 -0.5450
   30MOL   H31617194   1.933   2.938   7.094  0.6546  0.2101 -0.3491
   30MOL   H31717195   2.223   2.861   7.016 -0.0895 -0.0546 -1.8924
   30MOL   H31817196   2.113   2.736   7.240  0.6808 -0.3267 -0.6393
   30MOL   H31917197   2.142   2.566   7.051  1.3909 -0.5779  0.8115
   30MOL   H32017198   2.291   2.608   7.126  0.0275 -1.9045 -0.3051
   30MOL   C32117199   2.336   2.507   6.889 -0.5161 -0.0267 -0.0665
   30MOL   C32217200   2.467   2.473   6.961  0.7859 -0.3519 -0.3652
   30MOL   O32317201   2.428   2.397   7.072 -0.3249  0.7085 -0.5280
   30MOL   C32417202   2.559   2.393   6.865  0.3227 -0.2550  0.0115
   30MOL   O32517203   2.672   2.354   6.939 -0.2433  0.6453 -0.2246
   30MOL   C32617204   2.774   2.451   6.937  0.2200 -0.1143  1.1272
   30MOL   C32717205   2.858   2.449   6.807 -0.3264  0.0296 -0.1346
   30MOL   C32817206   2.984   2.517   6.848 -0.1122 -0.7324 -0.0440
   30MOL   O32917207   2.941   2.648   6.886  0.1884  0.4388 -0.4715
   30MOL   C33017208   3.043   2.729   6.938 -0.3148  0.3629 -0.0707
   30MOL   O33117209   3.154   2.738   6.858 -0.2514 -0.5702  0.1499
   30MOL   C33217210   2.981   2.866   6.970  0.2467 -0.2107 -0.1914
   30MOL   O33317211   3.054   2.928   7.073 -0.0479 -0.5474  0.4677
   30MOL   H33417212   2.362   2.520   6.784  0.8163  1.0784  0.3876
   30MOL   H33517213   2.251   2.440   6.902 -1.2740  0.5837 -1.6001
   30MOL   H33617214   2.510   2.567   6.995  0.9029 -0.2840 -0.7006
   30MOL   H33717215   2.508   2.370   7.114 -1.9500 -2.4165  0.7208
   30MOL   H33817216   2.591   2.439   6.771  1.4766 -1.7282 -0.3368
   30MOL   H33917217   2.513   2.303   6.823  2.9007 -0.0991 -3.3690
   30MOL   H34017218   2.837   2.437   7.025  1.2174 -0.9832  0.2896
   30MOL   H34117219   2.728   2.550   6.937  0.4776  0.0303 -0.8635
   30MOL   H34217220   2.880   2.347   6.778 -0.2195 -0.3288  1.1481
   30MOL   H34317221   2.812   2.504   6.725 -0.6064 -0.4847 -0.3239
   30MOL   H34417222   3.030   2.467   6.933 -2.1489 -0.0127  1.5480
   30MOL   H34517223   3.065   2.527   6.776  0.7142  0.8585  1.0719
   30MOL   H34617224   3.080   2.684   7.031  2.7932  2.9809  0.0495
   30MOL   H34717225   3.123   2.788   6.784 -1.9153  0.3952  1.4667
   30MOL   H34817226   2.962   2.918   6.876 -1.8011 -0.8560 -0.1581
   30MOL   H34917227   2.886   2.836   7.013  0.4886 -1.4804 -0.5151
   30MOL   C35017228   2.984   3.032   7.135  0.6543 -0.8286 -0.4286
   30MOL   C35117229   2.978   3.158   7.049  0.1265  0.2133  0.5182
   30MOL   O35217230   2.856   3.166   6.985  0.1253  0.4231  0.0581
   30MOL   C35317231   2.987   3.294   7.131 -0.0256 -0.2871  0.0261
   30MOL   O35417232   2.899   3.308   7.242  0.1664 -0.0075  0.5027
   30MOL   C35517233   2.783   3.385   7.211  0.0581  0.5085  0.4321
   30MOL   C35617234   2.697   3.412   7.336  0.0872  0.5489 -0.1779
   30MOL   C35717235   2.636   3.278   7.399  0.7145  0.8589 -0.1458
   30MOL   O35817236   2.585   3.198   7.289  0.0965  0.4142 -0.2170
   30MOL   C35917237   2.563   3.064   7.316 -0.4782  0.1494 -0.0794
   30MOL   O36017238   2.470   3.040   7.418  0.4796  0.4682 -0.2011
   30MOL   C36117239   2.506   3.013   7.184 -0.6919 -0.0839 -0.1901
   30MOL   O36217240   2.617   2.956   7.110 -0.6113  0.0221  0.2119
   30MOL   H36317241   3.040   3.052   7.226  1.8401 -1.7580 -0.9419
   30MOL   H36417242   2.886   2.999   7.170  0.5734 -0.7894 -0.6170
   30MOL   H36517243   3.065   3.165   6.984 -0.6094  1.9635 -0.2920
   30MOL   H36617244   2.788   3.162   7.050  0.6075 -1.8827  0.4417
   30MOL   H36717245   3.086   3.310   7.173 -0.1746 -4.1569  2.0516
   30MOL   H36817246   2.973   3.379   7.064  0.7019 -1.5936 -1.7935
   30MOL   H36917247   2.726   3.329   7.137  0.9158 -1.6050  1.3664
   30MOL   H37017248   2.807   3.480   7.163 -0.2672 -0.2785 -1.3138
   30MOL   H37117249   2.610   3.473   7.313  1.0800  1.4809 -1.5126
   30MOL   H37217250   2.751   3.478   7.404 -0.7687  1.5238 -0.4260
   30MOL   H37317251   2.711   3.226   7.457  0.6662 -0.5247 -1.2859
   30MOL   H37417252   2.548   3.298   7.461 -1.2481 -1.1002 -2.1910
   30MOL   H37517253   2.652   3.011   7.349  0.5709  1.4067 -0.8891
   30MOL   H37617254   2.508   3.056   7.503  0.3909  1.2861 -0.3097
   30MOL   H37717255   2.430   2.938   7.206  0.6953 -0.7328  2.5447
   30MOL   H37817256   2.458   3.094   7.129  2.2568  0.5231 -1.9747
   30MOL   C37917257   2.557   2.882   6.999  0.2105 -0.0614  0.3891
   30MOL   C38017258   2.580   2.949   6.865  0.5993 -0.4420 -0.7108
   30MOL   O38117259   2.706   2.943   6.817  0.6088 -0.3539  0.3470
   30MOL   C38217260   2.485   2.897   6.757 -0.0306 -0.3288 -0.4453
   30MOL   O38317261   2.363   2.971   6.767 -0.1054  0.4456 -0.3542
   30MOL   C38417262   2.268   2.924   6.666 -0.9944 -0.3248 -0.0404
   30MOL   C38517263   2.152   3.026   6.659  0.6552 -0.0055  0.1413
   30MOL   C38617264   2.031   2.984   6.570 -0.0650 -0.4827  0.4296
   30MOL   O38717265   1.923   3.044   6.626  0.1629 -0.4569 -0.3350
   30MOL   C38817266   1.809   3.068   6.545  0.1904  0.4370 -0.0945
   30MOL   O38917267   1.754   2.942   6.501  0.1466 -0.0019 -0.3802
   30MOL   C39017268   1.702   3.132   6.638 -0.6721 -0.0971  0.5269
   30MOL   O39117269   1.734   3.276   6.659  0.2891  0.1517 -0.1105
   30MOL   H39217270   2.452   2.854   7.011  0.6267 -1.8460  0.0217
   30MOL   H39317271   2.600   2.782   6.996  0.6038  0.1115  0.2602
   30MOL   H39417272   2.561   3.056   6.880 -0.6813 -0.6912 -0.4513
   30MOL   H39517273   2.762   2.998   6.869 -1.1329  2.4328 -0.6501
   30MOL   H39617274   2.518   2.926   6.658 -2.7846  3.0868 -0.4474
   30MOL   H39717275   2.478   2.789   6.765 -1.3101 -0.2887 -0.9689
   30MOL   H39817276   2.215   2.836   6.704 -0.9824 -0.1570  0.3728
   30MOL   H39917277   2.311   2.894   6.571  0.5475 -2.7794  1.3623
   30MOL   H40017278   2.185   3.120   6.615  0.2599 -0.0847 -0.3294
   30MOL   H40117279   2.110   3.050   6.757  0.6458 -1.1022  0.4075
   30MOL   H40217280   2.052   3.007   6.465  1.0251 -0.4964  0.6355
   30MOL   H40317281   2.016   2.877   6.585  1.5722 -0.6126  1.2459
   30MOL   H40417282   1.832   3.132   6.460 -0.4880  0.4988 -0.2373
   30MOL   H40517283   1.755   2.876   6.569  2.0156  0.5232  0.1224
   30MOL   H40617284   1.611   3.129   6.578  0.0059  1.5919 -0.6215
   30MOL   H40717285   1.694   3.069   6.726  1.9508 -0.0427  0.8264
   30MOL   C40817286   1.667   3.336   6.768 -0.1831  0.8578 -0.1641
   30MOL   C40917287   1.705   3.488   6.768  0.3003  0.4919 -0.5091
   30MOL   O41017288   1.847   3.484   6.788  0.2121  0.3987 -0.3189
   30MOL   C41117289   1.640   3.566   6.883 -0.3412  0.0986  0.1356
   30MOL   O41217290   1.500   3.546   6.902 -0.3585  0.8486 -0.2188
   30MOL   C41317291   1.470   3.555   7.042 -0.5378  0.0765  0.1590
   30MOL   C41417292   1.326   3.528   7.066  0.0260  0.3141 -0.0735
   30MOL   C41517293   1.231   3.641   7.027 -0.3431  0.4276 -0.2603
   30MOL   O41617294   1.101   3.594   7.032 -0.7069  0.1443 -0.3683
   30MOL   C41717295   0.997   3.681   6.980 -0.7513 -0.0947  0.3071
   30MOL   O41817296   1.007   3.687   6.839 -0.5295 -0.2711  0.0134
   30MOL   C41917297   1.009   3.821   7.045  0.9806 -0.2960 -0.3657
   30MOL   O42017298   1.000   3.825   7.188  0.3866  0.2191  0.7075
   30MOL   H42117299   1.691   3.278   6.857  2.9659  2.2939 -0.0089
   30MOL   H42217300   1.562   3.320   6.743 -0.0402 -0.3727 -0.0130
   30MOL   H42317301   1.686   3.538   6.673  0.7360  0.5494 -0.5678
   30MOL   H42417302   1.871   3.417   6.725 -0.4822  1.5465 -1.8327
   30MOL   H42517303   1.689   3.538   6.977  1.5727 -1.4750 -1.2871
   30MOL   H42617304   1.651   3.674   6.880 -1.3728  0.2610  1.6813
   30MOL   H42717305   1.535   3.489   7.098 -0.2106  0.4270  0.1972
   30MOL   H42817306   1.485   3.659   7.073  0.1309  0.0245  0.0217
   30MOL   H42917307   1.314   3.504   7.172 -1.1037 -1.7278 -0.6334
   30MOL   H43017308   1.291   3.438   7.015 -2.6394 -0.2899  2.6856
   30MOL   H43117309   1.245   3.726   7.093  1.9488  0.8172 -1.2035
   30MOL   H43217310   1.255   3.687   6.931  1.3205  3.3943  1.5001
   30MOL   H43317311   0.903   3.633   7.008 -0.4895 -0.7460  0.0837
   30MOL   H43417312   0.985   3.602   6.804  1.5836 -0.2983 -1.3449
   30MOL   H43517313   1.095   3.876   7.008 -0.2778  1.6796 -0.3942
   30MOL   H43617314   0.922   3.869   7.002  0.1416  0.9575  2.5972
   30MOL   C43717315   0.999   3.949   7.251  0.0871 -0.3106 -0.0565
   30MOL   C43817316   1.048   3.910   7.390  0.7472 -0.1620 -0.3544
   30MOL   O43917317   0.960   3.809   7.438 -0.3880  0.0690 -0.5134
   30MOL   C44017318   1.035   4.021   7.495 -0.0639 -0.2480 -0.3243
   30MOL   O44117319   1.107   4.134   7.461  0.3245 -0.0692 -0.2613
   30MOL   C44217320   1.245   4.135   7.431  0.2442 -0.5944 -0.1546
   30MOL   C44317321   1.278   4.278   7.439  0.0619 -0.5864  0.1744
   30MOL   C44417322   1.427   4.302   7.471  0.0293 -0.0751 -0.2817
   30MOL   O44517323   1.510   4.277   7.363 -0.6786  0.4392 -0.4669
   30MOL   C44617324   1.644   4.284   7.393  0.1070 -0.1835 -0.9581
   30MOL   O44717325   1.695   4.417   7.394  0.1399  0.5456 -0.1481
   30MOL   C44817326   1.721   4.199   7.294 -0.9198 -0.3223  0.3230
   30MOL   O44917327   1.722   4.062   7.327  0.0553  0.2941 -0.1197
   30MOL   H45017328   1.065   4.022   7.205  3.0167 -2.6274  0.3178
   30MOL   H45117329   0.904   4.001   7.261  0.6014  0.5482  0.4712
   30MOL   H45217330   1.149   3.873   7.373  0.8512 -0.5212  0.9730
   30MOL   H45317331   0.989   3.730   7.394  0.5658  0.8374 -1.2599
   30MOL   H45417332   0.933   4.053   7.514 -0.2370  0.1708 -1.9008
   30MOL   H45517333   1.069   3.981   7.591  0.3633  0.4919 -0.1578
   30MOL   H45617334   1.258   4.092   7.331  0.8942  1.3300 -0.9072
   30MOL   H45717335   1.304   4.073   7.499  1.0385 -1.0289 -1.2253
   30MOL   H45817336   1.231   4.323   7.526  0.0411  0.1738 -0.2245
   30MOL   H45917337   1.242   4.309   7.340  2.9020  1.5426 -0.2965
   30MOL   H46017338   1.436   4.406   7.502 -0.8065  0.0971 -0.5969
   30MOL   H46117339   1.455   4.251   7.563  1.7774 -1.0739 -1.3424
   30MOL   H46217340   1.658   4.248   7.495 -0.6485  2.4288  0.1327
   30MOL   H46317341   1.780   4.411   7.436 -0.7476 -2.1118  1.3749
   30MOL   H46417342   1.688   4.218   7.191 -1.9953  0.4702  0.8008
   30MOL   H46517343   1.823   4.236   7.298 -1.4081  1.0392  0.4291
   30MOL   C46617344   1.609   3.989   7.289  0.3481  0.1028  0.4080
   30MOL   C46717345   1.619   3.838   7.317 -0.1893  0.0978  0.3572
   30MOL   O46817346   1.489   3.780   7.326 -0.8333  0.2708  0.3701
   30MOL   C46917347   1.706   3.761   7.216  0.4880  0.2092  0.5368
   30MOL   O47017348   1.850   3.764   7.234  0.4430 -0.2348 -0.6906
   30MOL   C47117349   1.917   3.852   7.153 -0.0686 -0.5100 -0.2368
   30MOL   C47217350   2.067   3.824   7.176 -0.2265  0.0723  0.8502
   30MOL   C47317351   2.114   3.847   7.315  0.0776 -0.0662  0.2009
   30MOL   O47417352   2.243   3.797   7.319 -0.2924 -0.6127  0.0058
   30MOL   C47517353   2.303   3.810   7.437 -0.7803  0.6973 -0.3968
   30MOL   O47617354   2.351   3.935   7.451 -0.1632 -0.7274  0.3829
   30MOL   C47717355   2.411   3.701   7.446 -0.7073 -0.0754  0.1958
   30MOL   O47817356   2.363   3.569   7.488  0.1600  0.5954 -0.1174
   30MOL   H47917357   1.594   4.010   7.183 -0.9099 -0.3655  0.4907
   30MOL   H48017358   1.529   4.043   7.338  0.4977  0.4869  0.2284
   30MOL   H48117359   1.644   3.833   7.423  2.2931 -1.7864 -0.2751
   30MOL   H48217360   1.463   3.804   7.414  0.2398 -1.3577  1.1490
   30MOL   H48317361   1.667   3.660   7.211 -0.7685  0.7767 -2.1140
   30MOL   H48417362   1.684   3.790   7.113  0.0878 -4.2418 -0.7109
   30MOL   H48517363   1.894   3.952   7.187  1.2783 -0.1560 -0.3524
   30MOL   H48617364   1.886   3.846   7.048 -0.5632  0.8804 -0.1756
   30MOL   H48717365   2.125   3.881   7.104  1.1973 -1.4274  0.7777
   30MOL   H48817366   2.094   3.719   7.163 -0.6956 -0.0468  0.8505
   30MOL   H48917367   2.111   3.952   7.343 -1.2652 -0.4846  1.7227
   30MOL   H49017368   2.054   3.792   7.388 -3.3816 -0.0140 -2.5155
   30MOL   H49117369   2.241   3.794   7.525 -1.0389  4.9591  0.3180
   30MOL   H49217370   2.416   3.942   7.382 -0.7744  0.3760 -0.1010
   30MOL   H49317371   2.471   3.694   7.355  0.4695  1.4088  0.8293
   30MOL   H49417372   2.481   3.739   7.521 -0.9426 -0.7272  0.7465
   30MOL   C49517373   2.296   3.507   7.377 -0.5126 -0.1035 -0.3172
   30MOL   C49617374   2.253   3.373   7.428 -0.4242 -0.7767 -0.0164
   30MOL   O49717375   2.137   3.384   7.503  0.4696 -0.0655  0.1585
   30MOL   C49817376   2.225   3.269   7.313 -0.2578 -0.5460 -0.0945
   30MOL   O49917377   2.106   3.310   7.249  0.1335 -0.5600  0.6598
   30MOL   C50017378   2.003   3.224   7.265  0.7848 -0.0077  0.3706
   30MOL   C50117379   1.875   3.280   7.192  0.2821 -0.0083  0.0854
   30MOL   C50217380   1.820   3.406   7.259  0.0846  0.6027 -0.5702
   30MOL   O50317381   1.808   3.389   7.400 -0.3817 -0.6877  0.1451
   30MOL   C50417382   1.780   3.495   7.476  0.3854  0.3190  0.8910
   30MOL   O50517383   1.868   3.604   7.469  0.9781 -0.7317  0.3946
   30MOL   C50617384   1.755   3.445   7.623  0.0918  0.8690  0.2040
   30MOL   O50717385   1.663   3.338   7.629  0.3233  0.1994  0.1171
   30MOL   H50817386   2.362   3.487   7.293  0.1699 -0.8510  0.3933
   30MOL   H50917387   2.209   3.566   7.349 -1.0065  0.4583  2.2842
   30MOL   H51017388   2.340   3.337   7.482  2.1288  1.6154 -2.3263
   30MOL   H51117389   2.077   3.405   7.434  1.8512  1.5008 -0.5914
   30MOL   H51217390   2.308   3.257   7.243  0.9811  2.7570  0.6967
   30MOL   H51317391   2.211   3.172   7.360  0.1398 -0.5424  0.0365
   30MOL   H51417392   1.978   3.201   7.369 -0.6675  0.4060  0.1176
   30MOL   H51517393   2.014   3.135   7.203 -1.9969  0.4053 -0.7923
   30MOL   H51617394   1.801   3.200   7.195  1.5262 -1.1652  0.3480
   30MOL   H51717395   1.896   3.310   7.089  1.0710  1.0844  0.5531
   30MOL   H51817396   1.898   3.478   7.231  0.3505  0.2092 -0.8547
   30MOL   H51917397   1.732   3.453   7.215 -0.8353 -0.9218 -0.3682
   30MOL   H52017398   1.680   3.526   7.445  0.6910 -3.3962 -4.3174
   30MOL   H52117399   1.866   3.649   7.386 -2.3463 -1.0572  0.2423
   30MOL   H52217400   1.853   3.413   7.658  0.1417 -1.2115 -1.7404
   30MOL   H52317401   1.713   3.526   7.683  1.0730  2.1338 -0.7885
   30MOL   C52417402   1.631   3.307   0.072 -0.6271 -0.3046  0.1176
   30MOL   C52517403   1.555   3.399   0.170 -0.4570 -0.5259  0.4822
   30MOL   O52617404   1.643   3.501   0.231  0.0171 -0.0903  0.4873
   30MOL   C52717405   1.507   3.318   0.284  0.6052  0.7488 -0.0497
   30MOL   O52817406   1.613   3.261   0.349  0.3665  0.5494 -0.1504
   30MOL   C52917407   1.578   3.164   0.449  0.4271  0.0552 -0.6807
   30MOL   C53017408   1.704   3.104   0.496  0.3999 -0.2247  1.0147
   30MOL   C53117409   1.684   3.003   0.606 -0.0069 -0.1523  0.6916
   30MOL   O53217410   1.803   3.003   0.684 -0.5242  0.3564  0.1998
   30MOL   C53317411   1.807   2.888   0.756 -1.0082 -0.1929 -0.4681
   30MOL   O53417412   1.854   2.781   0.686 -0.0835  0.1309  0.1937
   30MOL   C53517413   1.890   2.914   0.880  0.4055  0.6990 -0.0478
   30MOL   O53617414   1.814   2.890   1.004  0.4909 -0.2902  0.1925
   30MOL   H53717415   1.721   3.266   0.118 -0.4030 -0.2010 -0.2273
   30MOL   H53817416   1.565   3.221   0.057  0.7590 -1.1375 -1.4007
   30MOL   H53917417   1.481   3.449   0.108  1.0671 -0.1957 -1.1012
   30MOL   H54017418   1.702   3.461   0.293  0.3828 -0.1022  0.1365
   30MOL   H54117419   1.442   3.373   0.352 -0.1225 -0.7542  0.5009
   30MOL   H54217420   1.448   3.240   0.235 -0.7126  1.5400  0.2296
   30MOL   H54317421   1.511   3.081   0.424  0.1464 -0.0576  0.4297
   30MOL   H54417422   1.523   3.213   0.529 -0.3868 -1.0228 -0.5540
   30MOL   H54517423   1.772   3.184   0.525  0.8796 -0.5497  0.7947
   30MOL   H54617424   1.752   3.048   0.416 -1.5947 -0.5910  0.0379
   30MOL   H54717425   1.596   3.028   0.665 -0.9589  0.2361 -0.8657
   30MOL   H54817426   1.660   2.906   0.563 -1.6158  0.6477 -0.2687
   30MOL   H54917427   1.707   2.857   0.786  0.2776 -2.6601  1.4607
   30MOL   H55017428   1.938   2.802   0.646 -1.0581  0.4467 -1.7559
   30MOL   H55117429   1.982   2.855   0.877 -0.9030 -1.3856 -0.2692
   30MOL   H55217430   1.914   3.020   0.890 -0.9639  1.1116 -0.9636
   30MOL   C55317431   1.887   2.823   1.112 -0.1405  0.0858  0.1039
   30MOL   C55417432   1.987   2.907   1.195  0.2865 -0.4132  0.3115
   30MOL   O55517433   2.112   2.919   1.126 -0.0399 -0.2680  0.0915
   30MOL   C55617434   2.004   2.852   1.338 -0.0398 -0.2980  0.6228
   30MOL   O55717435   2.062   2.945   1.434 -0.0294 -0.2876 -0.0137
   30MOL   C55817436   2.124   2.884   1.543 -0.0675 -0.1865 -0.7695
   30MOL   C55917437   2.196   2.985   1.624  0.1480 -0.1231 -1.0113
   30MOL   C56017438   2.278   2.923   1.736 -0.0218 -0.4631  0.2552
   30MOL   O56117439   2.396   2.870   1.674  0.0647 -0.5549 -0.3633
   30MOL   C56217440   2.503   2.849   1.758 -0.0887 -0.1202  0.0602
   30MOL   O56317441   2.487   2.744   1.854  0.7355 -0.3294 -0.7546
   30MOL   C56417442   2.621   2.810   1.669  0.1492 -0.6599 -0.2330
   30MOL   O56517443   2.615   2.676   1.621 -0.3349  0.8047  0.2467
   30MOL   H56617444   1.931   2.731   1.072  1.4168  1.1806 -0.7489
   30MOL   H56717445   1.806   2.796   1.179  0.3236  1.0430  1.0566
   30MOL   H56817446   1.938   3.005   1.195  0.8333 -0.1399  0.1598
   30MOL   H56917447   2.170   2.847   1.144 -1.3422 -0.9297  1.8704
   30MOL   H57017448   1.909   2.818   1.378 -0.7889 -0.4351 -1.2398
   30MOL   H57117449   2.066   2.763   1.328 -1.5888 -1.4881  1.4278
   30MOL   H57217450   2.052   2.837   1.611  1.8983 -2.5643 -0.2492
   30MOL   H57317451   2.194   2.805   1.515 -0.6833 -1.8439  2.0899
   30MOL   H57417452   2.124   3.061   1.656 -2.1910 -2.8282  0.3039
   30MOL   H57517453   2.268   3.032   1.557 -1.0749  0.1816 -2.1361
   30MOL   H57617454   2.312   2.985   1.819  2.2172 -0.7091 -0.4445
   30MOL   H57717455   2.222   2.853   1.798 -0.6913  1.0030  1.3585
   30MOL   H57817456   2.521   2.934   1.824 -2.0949  0.3301  0.0479
   30MOL   H57917457   2.529   2.669   1.817 -0.7770 -0.2482 -2.7147
   30MOL   H58017458   2.623   2.881   1.587 -0.3234 -1.0422 -0.5750
   30MOL   H58117459   2.711   2.813   1.731 -0.6228 -2.6830  1.0279
   30MOL   H58217460   2.571   2.685   1.538  1.3764 -0.8562 -0.8607
   31MOL     C117461   6.007   4.817   0.564  0.0918 -0.0878  0.5536
   31MOL     C217462   5.992   4.720   0.682  0.0450  0.4000 -0.4360
   31MOL     O317463   6.011   4.593   0.626 -0.2477 -0.3093 -0.5131
   31MOL     C417464   6.079   4.754   0.804 -0.2661 -0.1655 -0.6765
   31MOL     O517465   6.032   4.878   0.860  0.3578 -0.2364 -0.5322
   31MOL     C617466   6.130   4.962   0.915  0.0740 -1.1388 -0.1881
   31MOL     C717467   6.059   5.075   0.995 -0.2257 -0.4958  0.6647
   31MOL     C817468   5.979   5.038   1.115 -0.6079 -1.0333 -0.4046
   31MOL     O917469   5.967   5.147   1.203  0.7839  0.3280 -0.5523
   31MOL    C1017470   5.914   5.131   1.332 -0.9602 -0.4464 -0.1027
   31MOL    O1117471   5.982   5.040   1.406  0.1132 -0.4172  0.3796
   31MOL    C1217472   5.755   5.114   1.330 -0.0195  0.3116 -0.6111
   31MOL    O1317473   5.691   5.238   1.280  0.0185  0.1703 -0.5253
   31MOL    H1417474   5.987   4.919   0.598 -0.4262  0.5071 -1.4342
   31MOL    H1517475   5.957   4.796   0.470 -2.1441  1.7098  1.3015
   31MOL    H1617476   5.890   4.703   0.717  0.3676 -0.3981  0.1284
   31MOL    H1717477   6.102   4.581   0.602 -0.0835  0.6802 -0.4125
   31MOL    H1817478   6.058   4.678   0.880 -0.5380 -0.4265 -1.0090
   31MOL    H1917479   6.185   4.741   0.780  0.0474 -1.0080  1.0631
   31MOL    H2017480   6.191   4.995   0.831 -1.3650  2.3833  0.0548
   31MOL    H2117481   6.191   4.899   0.980 -2.5354 -1.4742  2.0167
   31MOL    H2217482   6.003   5.130   0.919  1.2135 -1.8980 -1.4463
   31MOL    H2317483   6.147   5.129   1.032  1.2376 -0.8314 -2.1595
   31MOL    H2417484   5.881   4.998   1.088 -0.7766 -1.5500  0.9173
   31MOL    H2517485   6.032   4.960   1.169 -0.0167  0.2454  0.8889
   31MOL    H2617486   5.917   5.228   1.381 -5.4143  0.0676 -0.7032
   31MOL    H2717487   5.925   4.965   1.400  1.0238 -1.3056  2.3013
   31MOL    H2817488   5.723   5.026   1.275  0.3095 -1.1406  1.4611
   31MOL    H2917489   5.707   5.098   1.426  0.2913 -2.6645 -0.9038
   31MOL    H3017490   6.112   4.824   0.537 -0.0741  1.3303  0.2436
   31MOL    C3117491   5.553   5.229   1.250 -0.0969  0.0071  0.2576
   31MOL    C3217492   5.496   5.347   1.171 -0.3045 -0.1927  0.5593
   31MOL    O3317493   5.472   5.451   1.264 -0.7749 -0.5589  0.4328
   31MOL    C3417494   5.366   5.310   1.108  0.3369 -0.0290 -0.4937
   31MOL    O3517495   5.320   5.413   1.024  0.6671  0.0638 -0.0598
   31MOL    C3617496   5.229   5.377   0.915 -0.3727  0.2639 -0.3110
   31MOL    C3717497   5.195   5.507   0.844  0.0734 -0.2696  0.4028
   31MOL    C3817498   5.093   5.495   0.735  0.2133  0.3946 -0.1064
   31MOL    O3917499   5.058   5.625   0.680 -0.2111 -0.2291 -0.9963
   31MOL    C4017500   5.050   5.618   0.544  0.1660 -0.5953 -0.3420
   31MOL    O4117501   5.182   5.618   0.485  0.5824 -0.4417 -0.1149
   31MOL    C4217502   4.980   5.755   0.511  0.3813  0.2371  0.5187
   31MOL    O4317503   4.928   5.750   0.377  0.0525  0.3763  0.3014
   31MOL    H4417504   5.546   5.140   1.188 -0.9821 -0.2373  0.6899
   31MOL    H4517505   5.487   5.204   1.334  0.1413 -0.1214  0.4073
   31MOL    H4617506   5.565   5.383   1.095  0.3232 -1.4145  0.5404
   31MOL    H4717507   5.532   5.516   1.230 -0.2581  0.0623  2.4293
   31MOL    H4817508   5.377   5.219   1.048 -0.7047 -0.2915 -0.3056
   31MOL    H4917509   5.294   5.277   1.183  1.6210 -0.8467  0.3917
   31MOL    H5017510   5.143   5.316   0.943 -0.5723  0.8089  0.2898
   31MOL    H5117511   5.292   5.324   0.845 -1.6081  3.6311 -4.1762
   31MOL    H5217512   5.276   5.561   0.797 -1.1528  0.8336 -0.4811
   31MOL    H5317513   5.161   5.586   0.912 -0.0842 -0.8649  1.0242
   31MOL    H5417514   5.143   5.437   0.657 -1.7915 -0.1087 -1.0577
   31MOL    H5517515   4.999   5.448   0.762 -0.5174  1.3232 -1.0053
   31MOL    H5617516   4.995   5.530   0.511  0.2426 -0.8474  0.2028
   31MOL    H5717517   5.197   5.709   0.465 -4.2988  0.4909 -0.2227
   31MOL    H5817518   4.903   5.768   0.587  1.1970  1.0666  1.1992
   31MOL    H5917519   5.056   5.831   0.528 -0.3815  1.0851  0.1449
   31MOL    C6017520   4.806   5.692   0.352  1.1737 -0.2627  0.6202
   31MOL    C6117521   4.775   5.708   0.199 -0.1703  0.4429  0.9524
   31MOL    O6217522   4.882   5.638   0.136  0.1363 -0.2036  0.6281
   31MOL    C6317523   4.760   5.858   0.146 -0.1194 -0.2355  0.2912
   31MOL    O6417524   4.697   5.852   0.020  0.0595 -0.4535 -0.2688
   31MOL    C6517525   4.713   5.972   7.650 -0.2435  0.0964  1.4183
   31MOL    C6617526   4.632   6.089   0.024 -0.6437 -0.2484  0.3437
   31MOL    C6717527   4.634   6.214   7.624 -0.1533  0.3006 -0.9586
   31MOL    O6817528   4.564   6.327   7.687  0.0501  0.1989 -0.1102
   31MOL    C6917529   4.524   6.425   7.587 -0.6777  0.6879  0.2043
   31MOL    O7017530   4.417   6.371   7.501  0.5810  0.1060 -0.0875
   31MOL    C7117531   4.488   6.551   7.655 -0.5079  0.2771 -0.9773
   31MOL    O7217532   4.527   6.662   7.568  0.1491 -0.5161  0.5102
   31MOL    H7317533   4.733   5.739   0.417  0.9091 -0.1975  0.2830
   31MOL    H7417534   4.812   5.588   0.385  1.7017 -0.7014 -0.7724
   31MOL    H7517535   4.685   5.657   0.165  0.4569  0.0148 -0.0829
   31MOL    H7617536   4.950   5.648   0.201 -0.3876 -0.5032  1.2219
   31MOL    H7717537   4.706   5.916   0.220 -2.8397 -3.4497  0.9842
   31MOL    H7817538   4.863   5.890   0.140  0.3233 -1.9935 -2.5070
   31MOL    H7917539   4.676   5.957   7.549  1.9984 -1.6190  0.7974
   31MOL    H8017540   4.819   5.994   7.639 -0.4906  0.1286 -0.9900
   31MOL    H8117541   4.680   6.119   0.117 -2.8260  0.2755  1.3135
   31MOL    H8217542   4.531   6.056   0.045 -0.4079  0.3847  2.5263
   31MOL    H8317543   4.574   6.178   7.542 -0.8967 -0.6528 -0.0078
   31MOL    H8417544   4.726   6.234   7.569 -0.5026  0.6343 -1.4245
   31MOL    H8517545   4.614   6.440   7.528 -0.6885  1.0218  0.2716
   31MOL    H8617546   4.348   6.346   7.561  1.9588 -1.5629  0.8460
   31MOL    H8717547   4.383   6.565   7.682 -0.3504 -0.2174 -0.0954
   31MOL    H8817548   4.557   6.570   0.042  1.2505 -0.3117 -2.2998
   31MOL    C8917549   4.528   6.797   7.622 -0.4334  0.0370 -0.3052
   31MOL    C9017550   4.642   6.820   0.030 -0.5415 -0.5107 -0.0017
   31MOL    O9117551   4.771   6.780   7.679  0.4250 -0.4179 -0.0593
   31MOL    C9217552   4.650   6.967   0.076  0.5471  0.2567 -0.2749
   31MOL    O9317553   4.524   7.017   0.117 -0.1149 -0.0508  0.1407
   31MOL    C9417554   4.538   7.117   0.214  0.1214 -0.7642 -0.1859
   31MOL    C9517555   4.400   7.156   0.261  0.0504  0.2696  0.8169
   31MOL    C9617556   4.400   7.287   0.340 -0.0642 -0.4174  0.1958
   31MOL    O9717557   4.264   7.319   0.359 -0.1669 -0.0565 -0.4313
   31MOL    C9817558   4.242   7.437   0.433  0.4363 -0.6047  0.4324
   31MOL    O9917559   4.240   7.546   0.347  0.3042  0.4756 -0.0909
   31MOL   C10017560   4.116   7.434   0.519 -0.1853  0.3406  0.3988
   31MOL   O10117561   4.133   7.341   0.621 -0.5355 -0.1920  0.0553
   31MOL   H10217562   4.433   6.820   7.671 -1.1611 -0.3563 -1.5251
   31MOL   H10317563   4.547   6.865   7.539 -0.8619 -0.5337 -0.8719
   31MOL   H10417564   4.614   6.760   0.116  0.0913 -0.7280  0.0559
   31MOL   H10517565   4.776   6.807   7.589 -0.5021 -0.6576 -0.1902
   31MOL   H10617566   4.724   6.985   0.154 -1.2028  1.5118  1.1499
   31MOL   H10717567   4.678   7.038   7.692 -1.4533  0.7855 -0.5372
   31MOL   H10817568   4.582   7.211   0.180 -2.0239 -0.5157 -2.4203
   31MOL   H10917569   4.592   7.076   0.299  1.2741 -1.3975 -1.1971
   31MOL   H11017570   4.339   7.079   0.308  1.7934 -0.8579  1.2382
   31MOL   H11117571   4.334   7.170   0.175  0.6132 -0.6752  0.2189
   31MOL   H11217572   4.448   7.273   0.436  0.9384  0.1213 -0.2288
   31MOL   H11317573   4.458   7.356   0.278  0.6999  0.2735  1.6707
   31MOL   H11417574   4.329   7.452   0.497  0.2051  1.4557  0.3206
   31MOL   H11517575   4.226   7.625   0.397  0.0737  0.5831 -0.3227
   31MOL   H11617576   4.094   7.532   0.561 -1.0071 -0.3805  1.6700
   31MOL   H11717577   4.029   7.408   0.460  1.2564 -2.0534 -0.7476
   31MOL   C11817578   4.024   7.251   0.644  0.0466  0.5854 -0.0986
   31MOL   C11917579   4.056   7.111   0.570  0.9299  1.1745 -0.1585
   31MOL   O12017580   4.104   7.123   0.435  0.1791 -0.4794  0.1802
   31MOL   C12117581   3.944   7.009   0.580 -0.6393  0.6965 -0.7196
   31MOL   O12217582   3.917   6.979   0.720 -0.5073 -0.2239  0.0070
   31MOL   C12317583   3.802   6.892   0.733 -0.4843 -0.5409  0.1061
   31MOL   C12417584   3.786   6.846   0.877 -0.2059  0.1674 -0.7938
   31MOL   C12517585   3.658   6.763   0.896  0.1535  0.2080 -0.5653
   31MOL   O12617586   3.541   6.839   0.892 -0.0786 -0.3016  0.8263
   31MOL   C12717587   3.420   6.766   0.883 -0.0862 -0.0512 -0.1744
   31MOL   O12817588   3.406   6.706   0.755 -0.1767 -0.4316 -0.4903
   31MOL   C12917589   3.306   6.861   0.916  0.7433 -0.2763 -0.4479
   31MOL   O13017590   3.322   6.972   0.834 -0.1125 -0.3430  0.3945
   31MOL   H13117591   4.015   7.241   0.752 -0.0302  2.1447  0.0526
   31MOL   H13217592   3.930   7.292   0.610 -1.1322 -2.2807 -0.4102
   31MOL   H13317593   4.135   7.068   0.631 -0.3906  2.6702  2.7031
   31MOL   H13417594   4.153   7.202   0.419 -0.6836  0.2565  1.1327
   31MOL   H13517595   3.861   7.051   0.524 -1.0138  0.7054 -0.1657
   31MOL   H13617596   3.977   6.914   0.537 -2.3797 -0.0036 -0.5377
   31MOL   H13717597   3.798   6.815   0.655 -1.7669 -1.2878  0.8960
   31MOL   H13817598   3.714   6.955   0.718  0.0433  0.0511 -0.5461
   31MOL   H13917599   3.793   6.936   0.938  0.9194 -0.8123  0.5240
   31MOL   H14017600   3.872   6.782   0.892 -2.1002 -2.1074  0.8130
   31MOL   H14117601   3.661   6.677   0.829  2.4267  0.7329 -1.1646
   31MOL   H14217602   3.666   6.725   0.997 -0.7451 -0.1583 -0.6253
   31MOL   H14317603   3.429   6.688   0.959 -0.3083 -1.5953 -1.7213
   31MOL   H14417604   3.392   6.777   0.695  0.8592 -0.4938 -0.8170
   31MOL   H14517605   3.213   6.809   0.893 -0.5463  0.8144  2.0145
   31MOL   H14617606   3.313   6.901   1.018 -0.1990  3.1775 -1.6748
   31MOL   C14717607   3.229   7.078   0.848  0.3190  0.2345  0.4762
   31MOL   C14817608   3.102   7.047   0.765 -0.2774  0.7140  0.0243
   31MOL   O14917609   3.126   7.089   0.627 -0.3699  0.0548 -0.3074
   31MOL   C15017610   2.980   7.121   0.812 -0.3062  0.1269 -0.2877
   31MOL   O15117611   3.023   7.252   0.830  0.2774 -0.4115  0.2572
   31MOL   C15217612   2.929   7.312   0.918  1.0376  0.4441 -0.1374
   31MOL   C15317613   2.995   7.449   0.935  0.4309  0.0482 -0.2960
   31MOL   C15417614   3.135   7.441   0.995 -0.1644  0.2482 -0.4742
   31MOL   O15517615   3.130   7.353   1.107  0.2213  0.1969 -0.1720
   31MOL   C15617616   3.224   7.389   1.212  0.0989  0.1453 -0.2255
   31MOL   O15717617   3.359   7.390   1.174  0.2017  0.4580  0.0703
   31MOL   C15817618   3.203   7.288   1.324  0.4172  0.2937  0.0136
   31MOL   O15917619   3.196   7.159   1.265 -0.2406 -0.2283 -0.2930
   31MOL   H16017620   3.277   7.168   0.808 -0.5965 -0.0810 -1.3859
   31MOL   H16117621   3.221   7.095   0.955 -0.9110  0.8797  0.2887
   31MOL   H16217622   3.086   6.939   0.767 -0.2623  0.7222  1.0356
   31MOL   H16317623   3.131   7.183   0.634 -1.2424  0.0448  0.6556
   31MOL   H16417624   2.902   7.124   0.736 -0.7849  1.1221  0.2338
   31MOL   H16517625   2.940   7.071   0.901  1.6357  0.0638  0.5630
   31MOL   H16617626   2.925   7.268   1.018  2.9320 -1.9519 -1.0564
   31MOL   H16717627   2.828   7.321   0.879  1.4163  0.5508 -1.1123
   31MOL   H16817628   2.941   7.501   1.014  1.4343 -0.7374  0.9274
   31MOL   H16917629   3.009   7.513   0.848  0.3992  2.1452  1.2215
   31MOL   H17017630   3.205   7.388   0.931 -1.4876 -0.5865 -1.2516
   31MOL   H17117631   3.164   7.542   1.021 -0.4482  0.5005 -1.1461
   31MOL   H17217632   3.193   7.487   1.248 -1.1397  0.3203 -1.6785
   31MOL   H17317633   3.389   7.302   1.158  1.3377  0.2819  2.9625
   31MOL   H17417634   3.271   7.303   1.408  1.2972  0.9250 -0.8033
   31MOL   H17517635   3.104   7.314   1.364 -0.1874 -1.3947 -0.3623
   31MOL   C17617636   3.130   7.072   1.354 -0.4930 -0.3428  0.3055
   31MOL   C17717637   3.153   6.932   1.296  0.3005  0.0473  0.6917
   31MOL   O17817638   3.090   6.928   1.168  0.0921  0.4666  0.2439
   31MOL   C17917639   3.101   6.827   1.396  0.4567  0.7878  0.2545
   31MOL   O18017640   3.202   6.810   1.500  0.2253  0.5076  0.3674
   31MOL   C18117641   3.176   6.707   1.597 -0.4365  0.0469  0.4207
   31MOL   C18217642   3.312   6.660   1.657 -0.4829  0.7140  0.2434
   31MOL   C18317643   3.296   6.533   1.739 -0.4746 -0.6183 -0.0166
   31MOL   O18417644   3.226   6.571   1.861 -0.0203  0.3251 -0.3844
   31MOL   C18517645   3.221   6.463   1.952  0.1620 -0.1225  0.2747
   31MOL   O18617646   3.129   6.361   1.899 -0.2593 -0.5336 -0.0174
   31MOL   C18717647   3.166   6.515   2.087 -0.1701 -0.6638  0.1757
   31MOL   O18817648   3.269   6.552   2.172  0.1960 -0.4366 -0.0432
   31MOL   H18917649   3.023   7.089   1.364 -0.3738 -0.2385  1.4764
   31MOL   H19017650   3.177   7.072   1.453  0.7069 -1.2031 -0.2468
   31MOL   H19117651   3.261   6.924   1.286  0.2966  2.7058 -2.4950
   31MOL   H19217652   3.092   7.014   1.131 -0.2108  0.8753  1.1622
   31MOL   H19317653   3.005   6.846   1.444 -1.9370 -4.7828 -1.9339
   31MOL   H19417654   3.101   6.731   1.345 -1.2537  0.1263  1.4311
   31MOL   H19517655   3.140   6.618   1.546 -3.1869  0.4579  1.5580
   31MOL   H19617656   3.099   6.731   1.669 -0.8136 -0.4401  0.1799
   31MOL   H19717657   3.359   6.734   1.722  1.0080 -1.0554  1.2421
   31MOL   H19817658   3.386   6.641   1.579 -0.8377 -3.1859  0.7220
   31MOL   H19917659   3.225   6.470   1.685 -1.5146 -0.4668  1.1529
   31MOL   H20017660   3.385   6.471   1.748 -1.0556 -1.5189 -0.3968
   31MOL   H20117661   3.318   6.417   1.970 -0.8582 -1.8541  1.5464
   31MOL   H20217662   3.184   6.298   1.855  0.8219 -0.3031  1.0027
   31MOL   H20317663   3.098   6.598   2.067  1.1448  0.0440 -1.5385
   31MOL   H20417664   3.094   6.442   2.124 -2.1858  1.1041 -0.1989
   31MOL   C20517665   3.229   6.545   2.310  0.6808 -0.1016  0.0277
   31MOL   C20617666   3.347   6.604   2.395  0.0609  0.4542 -0.4667
   31MOL   O20717667   3.327   6.746   2.407 -0.8570  0.5409 -0.2761
   31MOL   C20817668   3.356   6.541   2.533 -0.1957 -0.1876  0.3720
   31MOL   O20917669   3.457   6.608   2.607  0.2996 -0.2331 -0.0078
   31MOL   C21017670   3.462   6.578   2.749 -0.3313  0.7316  0.5467
   31MOL   C21117671   3.532   6.444   2.772 -0.4476  0.2519  0.7508
   31MOL   C21217672   3.573   6.417   2.915 -0.6703  0.2883 -0.3148
   31MOL   O21317673   3.695   6.486   2.950  0.0049  1.0790 -0.0321
   31MOL   C21417674   3.742   6.452   3.082  0.4547 -0.2551 -0.2993
   31MOL   O21517675   3.642   6.478   3.185  0.4416 -0.6349 -0.1791
   31MOL   C21617676   3.868   6.526   3.122  0.2513 -0.3275  0.1374
   31MOL   O21717677   3.841   6.657   3.159 -0.2540 -0.3193  0.2338
   31MOL   H21817678   3.225   6.437   2.330 -0.7318  0.2163  1.5713
   31MOL   H21917679   3.137   6.595   2.338  1.2528  0.6392  0.6080
   31MOL   H22017680   3.441   6.587   2.342  0.5210  3.2320 -0.6196
   31MOL   H22117681   3.236   6.745   2.434 -1.2003 -0.1067 -1.3958
   31MOL   H22217682   3.261   6.540   2.587  0.1801  0.5935  1.0709
   31MOL   H22317683   3.383   6.437   2.515  0.2395  0.1713 -1.0996
   31MOL   H22417684   3.360   6.584   2.788 -1.1938  1.1095 -1.7155
   31MOL   H22517685   3.521   6.647   2.808  2.0762 -0.2747 -0.5950
   31MOL   H22617686   3.621   6.450   2.709 -1.5452  2.0700 -0.6528
   31MOL   H22717687   3.472   6.363   2.730 -0.9272  1.2434 -0.5120
   31MOL   H22817688   3.486   6.450   2.972 -0.8597 -1.1370  0.2557
   31MOL   H22917689   3.588   6.310   2.932 -0.8103  0.2109 -0.6623
   31MOL   H23017690   3.759   6.344   3.083  0.1341 -0.3323 -1.9071
   31MOL   H23117691   3.614   6.568   3.176 -3.3738 -1.7984 -0.9254
   31MOL   H23217692   3.895   6.479   3.216 -2.2036  0.7051  1.4120
   31MOL   H23317693   3.944   6.509   3.045 -0.2792 -1.7565 -0.0656
   31MOL   C23417694   3.822   6.748   3.052 -0.4107  0.0365 -0.1320
   31MOL   C23517695   3.778   6.890   3.093 -0.5738  0.2462  0.7321
   31MOL   O23617696   3.632   6.893   3.059  0.1415  0.1926  0.5909
   31MOL   C23717697   3.833   7.018   3.021  0.6514 -0.3815 -0.2969
   31MOL   O23817698   3.743   7.119   3.065  0.4570  0.4974  0.9879
   31MOL   C23917699   3.791   7.198   3.173 -0.0182 -0.8358 -0.1793
   31MOL   C24017700   3.688   7.308   3.204 -0.7339 -0.7265 -0.2144
   31MOL   C24117701   3.729   7.395   3.320 -0.1689 -0.0925  0.0022
   31MOL   O24217702   3.701   7.319   3.440  0.0349  0.1433  0.3118
   31MOL   C24317703   3.746   7.388   3.552 -0.4204  0.2612  0.6589
   31MOL   O24417704   3.890   7.396   3.561 -0.0717 -0.2831 -0.3953
   31MOL   C24517705   3.694   7.320   3.677  1.0860  0.4072 -0.3341
   31MOL   O24617706   3.664   7.427   3.770 -0.2491 -0.4551 -0.1684
   31MOL   H24717707   3.924   6.753   3.013 -0.2849 -1.5812 -0.0430
   31MOL   H24817708   3.753   6.701   2.984 -0.3352 -0.0321 -0.1620
   31MOL   H24917709   3.785   6.903   3.201  4.6227  0.9151  0.4216
   31MOL   H25017710   3.621   6.986   3.044  1.6525  0.3063  0.1139
   31MOL   H25117711   3.937   7.046   3.037 -0.0817  3.7160 -2.1743
   31MOL   H25217712   3.822   7.012   2.913  1.1072 -1.4551 -0.2955
   31MOL   H25317713   3.889   7.241   3.156  1.2406 -2.7771  1.8204
   31MOL   H25417714   3.797   7.126   3.256 -1.8794 -1.7294 -0.7725
   31MOL   H25517715   3.592   7.260   3.219 -0.3305 -1.0725  1.3762
   31MOL   H25617716   3.672   7.377   3.121  1.8407 -2.3870 -2.2093
   31MOL   H25717717   3.823   7.447   3.302 -1.2759  1.4884 -1.3256
   31MOL   H25817718   3.655   7.474   3.312 -2.9585 -2.4681  1.4111
   31MOL   H25917719   3.703   7.488   3.553  0.2576  0.5604  0.3881
   31MOL   H26017720   3.899   7.435   3.647 -1.5494 -2.2338  0.6837
   31MOL   H26117721   3.604   7.266   3.649  0.9713  0.1853  0.4529
   31MOL   H26217722   3.779   7.252   3.689  1.6497  1.0823 -0.4584
   31MOL   C26317723   3.635   7.387   3.899 -0.1688 -0.2022  0.8407
   31MOL   C26417724   3.569   7.497   3.983 -0.4610 -0.2606  0.9585
   31MOL   O26517725   3.449   7.515   3.924  0.3706 -0.2692  0.5869
   31MOL   C26617726   3.561   7.456   4.122  1.7122  0.0279 -0.3587
   31MOL   O26717727   3.551   7.564   4.214 -0.3276  0.2152  0.3704
   31MOL   C26817728   3.483   7.527   4.330  0.1764 -0.4723  0.6806
   31MOL   C26917729   3.442   7.661   4.398 -0.7411  0.3804  0.0810
   31MOL   C27017730   3.342   7.647   4.500 -0.2641 -0.4904 -0.2662
   31MOL   O27117731   3.325   0.073   4.586 -0.4261 -0.4851  0.9031
   31MOL   C27217732   3.425   0.095   4.675 -0.7681 -0.3556  0.1565
   31MOL   O27317733   3.520   0.186   4.624 -0.1746 -0.7045  0.5093
   31MOL   C27417734   3.354   0.148   4.797 -0.4086 -0.2737  1.1800
   31MOL   O27517735   3.325   0.051   4.893  0.2271  0.2469 -0.6206
   31MOL   H27617736   3.729   7.353   3.942 -0.1973 -0.5952  0.5835
   31MOL   H27717737   3.566   7.302   3.901 -0.8231  0.2489 -1.2930
   31MOL   H27817738   3.632   7.585   3.979  1.1295 -1.4719 -2.4900
   31MOL   H27917739   3.468   7.576   3.854 -2.2703 -0.4348 -0.3185
   31MOL   H28017740   3.477   7.387   4.120  0.9665  0.9300 -3.9026
   31MOL   H28117741   3.652   7.401   4.148  0.0363 -2.2389  0.8275
   31MOL   H28217742   3.548   7.466   4.392 -0.0587 -0.7651  0.6393
   31MOL   H28317743   3.399   7.459   4.313 -1.1978  0.8826  1.8092
   31MOL   H28417744   3.403   0.024   4.314  1.1050 -3.0573 -3.2807
   31MOL   H28517745   3.539   0.010   4.424 -0.9696  0.2527  1.1654
   31MOL   H28617746   3.244   7.622   4.459 -0.4364  0.7559 -0.6229
   31MOL   H28717747   3.382   7.564   4.559  2.3913  2.0224  1.6141
   31MOL   H28817748   3.477   0.005   4.708  2.8587  1.5083 -0.3204
   31MOL   H28917749   3.476   0.267   4.602 -0.8931 -1.4799 -0.9239
   31MOL   H29017750   3.428   0.207   4.850 -0.0477  1.4379 -1.1271
   31MOL   H29117751   3.268   0.210   4.773 -0.1237 -0.0950  0.6068
   31MOL   C29217752   3.205   7.685   4.867  0.7584 -0.4512  0.0213
   31MOL   C29317753   3.185   7.561   4.958 -0.7238 -0.0110 -0.0496
   31MOL   O29417754   3.044   7.524   4.971  0.5823 -0.5091 -0.4588
   31MOL   C29517755   3.267   7.436   4.914  0.0454  0.2688  0.4562
   31MOL   O29617756   3.235   7.423   4.776  0.1364  0.0113  0.0697
   31MOL   C29717757   3.304   7.303   4.726  0.1640  0.2438 -0.5808
   31MOL   C29817758   3.248   7.260   4.592 -0.2536  0.6506 -0.1645
   31MOL   C29917759   3.323   7.136   4.535 -0.1294  0.1142 -0.1148
   31MOL   O30017760   3.271   7.091   4.412  0.5209  0.1265  0.3837
   31MOL   C30117761   3.348   7.002   4.343 -0.2902 -0.0044 -0.0888
   31MOL   O30217762   3.358   6.873   4.400 -0.3605 -0.0478  0.2111
   31MOL   C30317763   3.297   6.980   4.202  0.0753 -0.1370 -0.2150
   31MOL   O30417764   3.339   7.080   4.106 -0.4070  0.9368  0.4757
   31MOL   H30517765   3.126   0.065   4.873  0.9763 -0.3085  1.3470
   31MOL   H30617766   3.203   7.650   4.764 -0.3468 -0.1521 -0.0621
   31MOL   H30717767   3.223   7.582   5.058 -1.7161  1.0067  0.1191
   31MOL   H30817768   3.044   7.456   4.905 -0.2536 -1.0518  0.0851
   31MOL   H30917769   3.368   7.474   4.930 -0.1128  0.7824  0.2405
   31MOL   H31017770   3.255   7.345   4.973 -0.9562 -0.5401 -0.9444
   31MOL   H31117771   3.294   7.230   4.806 -0.2336  2.8497  1.8535
   31MOL   H31217772   3.410   7.328   4.720  0.5462 -1.1498  0.1427
   31MOL   H31317773   3.258   7.335   4.513 -1.7523  2.0792  0.9566
   31MOL   H31417774   3.145   7.225   4.592  0.3022 -1.0400 -0.4835
   31MOL   H31517775   3.432   7.139   4.536  0.0132 -3.1514 -0.6160
   31MOL   H31617776   3.303   7.052   4.601  0.7636  1.4445  1.9263
   31MOL   H31717777   3.447   7.047   4.348  0.4792 -1.7599  0.8181
   31MOL   H31817778   3.281   6.822   4.382 -0.8340  0.3154  1.1574
   31MOL   H31917779   3.191   6.959   4.195 -0.4599  1.8307  1.3560
   31MOL   H32017780   3.350   6.890   4.171  0.7299 -0.2401  1.1595
   31MOL   C32117781   3.318   7.028   3.984 -0.0067  0.0533  0.7624
   31MOL   C32217782   3.313   7.139   3.876  0.0192  0.3812 -0.6654
   31MOL   O32317783   3.358   7.083   3.757 -0.0799 -0.0739 -0.0649
   31MOL   C32417784   3.166   7.169   3.853 -0.1489 -0.1457  0.2465
   31MOL   O32517785   3.153   7.254   3.744 -0.1607  0.1084 -0.2506
   31MOL   C32617786   3.027   7.286   3.702  0.4529  0.3127 -0.4076
   31MOL   C32717787   2.982   7.214   3.574  0.5938  0.1876 -0.0516
   31MOL   C32817788   2.842   7.242   3.521  0.7158 -0.2651  0.2303
   31MOL   O32917789   2.820   7.380   3.517 -0.2667  0.2726  0.2478
   31MOL   C33017790   2.697   7.428   3.478  0.2132  0.3048 -0.0449
   31MOL   O33117791   2.610   7.426   3.594  0.2722  0.5415 -0.0091
   31MOL   C33217792   2.710   7.580   3.436 -0.3238  0.2599  0.5741
   31MOL   O33317793   2.677   7.599   3.302  0.7956 -0.3481 -0.4682
   31MOL   H33417794   3.226   6.970   3.979 -0.9475  1.4934  1.0615
   31MOL   H33517795   3.403   6.962   3.965  0.3188  0.3717  1.1082
   31MOL   H33617796   3.376   7.227   3.894 -0.6766  0.9892 -1.1529
   31MOL   H33717797   3.337   7.151   3.695 -1.5077 -3.1098 -3.0805
   31MOL   H33817798   3.125   7.207   3.946  0.7162 -0.9709  0.9769
   31MOL   H33917799   3.112   7.083   3.814  1.0257 -0.1349 -1.4433
   31MOL   H34017800   3.000   7.390   3.685  0.5952  0.6424  1.3173
   31MOL   H34117801   2.956   7.257   3.780 -0.0828  0.1235 -0.9563
   31MOL   H34217802   3.057   7.245   3.501  1.5206 -1.4860  0.1744
   31MOL   H34317803   2.995   7.107   3.583 -1.7712 -0.2269 -1.1730
   31MOL   H34417804   2.822   7.204   3.421  1.0964 -0.1568  0.1110
   31MOL   H34517805   2.776   7.198   3.595  0.4240 -0.3406 -0.0748
   31MOL   H34617806   2.652   7.376   3.394  0.9967 -0.3973 -0.0287
   31MOL   H34717807   2.652   7.482   3.658  1.0717 -0.4611  0.3570
   31MOL   H34817808   2.636   7.642   3.487 -0.0945  0.8552  0.1783
   31MOL   H34917809   2.812   7.615   3.452 -1.2273  2.0345  2.8076
   31MOL   C35017810   2.770   7.552   3.209  0.0255  0.2444 -0.4932
   31MOL   C35117811   2.708   7.548   3.066  0.0722 -0.2936 -0.0167
   31MOL   O35217812   2.793   7.487   2.971  0.3412 -0.1621  0.2559
   31MOL   C35317813   2.566   7.486   3.056  0.2651  0.8494  0.3470
   31MOL   O35417814   2.561   7.361   3.115 -0.5377 -0.0632  0.2405
   31MOL   C35517815   2.434   7.301   3.109 -0.1133 -0.5098 -0.0056
   31MOL   C35617816   2.430   7.183   3.194 -0.7651  0.0073 -0.2809
   31MOL   C35717817   2.522   7.065   3.157  0.3014  0.3582  0.1508
   31MOL   O35817818   2.495   7.006   3.032  0.1498  0.3887  0.0519
   31MOL   C35917819   2.582   7.047   2.934  0.4118 -0.3785 -0.3113
   31MOL   O36017820   2.706   6.993   2.962 -0.2593  0.1143 -0.2965
   31MOL   C36117821   2.537   7.006   2.792  0.0602  0.0648  0.1722
   31MOL   O36217822   2.434   7.099   2.741 -0.8371  0.7549  0.1788
   31MOL   H36317823   2.798   7.451   3.237  1.4801  1.3069  2.2015
   31MOL   H36417824   2.851   7.624   3.222 -0.9745  1.6622 -1.8228
   31MOL   H36517825   2.691   7.653   3.040 -1.2751 -0.2037  1.1534
   31MOL   H36617826   2.804   7.532   2.889  0.5728 -0.6918 -0.0032
   31MOL   H36717827   2.497   7.559   3.097 -1.8317  0.2847 -2.0470
   31MOL   H36817828   2.527   7.472   2.955  2.2568 -3.7580  0.0885
   31MOL   H36917829   2.406   7.281   3.005 -0.3024  2.8345 -0.6408
   31MOL   H37017830   2.365   7.380   3.138  0.2746 -0.1097 -0.1817
   31MOL   H37117831   2.326   7.151   3.199 -0.9530  0.0305 -2.9297
   31MOL   H37217832   2.452   7.221   3.293  0.5021 -0.9377 -0.1822
   31MOL   H37317833   2.624   7.104   3.163  1.2115 -1.5905 -1.8482
   31MOL   H37417834   2.499   6.999   3.241  0.5545  1.0137  0.7416
   31MOL   H37517835   2.598   7.155   2.935  1.8340 -0.5664  3.1777
   31MOL   H37617836   2.758   7.047   3.019  0.9118 -0.1194 -1.1447
   31MOL   H37717837   2.622   7.011   2.724 -0.0403 -1.7485 -0.1216
   31MOL   H37817838   2.503   6.902   2.791  1.8525 -0.5370 -1.8327
   31MOL   C37917839   2.301   7.060   2.780 -0.3064  0.1614  0.1119
   31MOL   C38017840   2.248   6.958   2.676 -0.8258 -0.3361 -0.2112
   31MOL   O38117841   2.304   6.828   2.688 -0.3756  0.1417  0.0344
   31MOL   C38217842   2.098   6.937   2.690 -0.1027 -0.4071  1.0160
   31MOL   O38317843   2.059   6.856   2.580  0.4710  0.0340  0.2461
   31MOL   C38417844   1.922   6.838   2.572 -0.0944 -0.5251  0.1931
   31MOL   C38517845   1.886   6.746   2.459 -0.0010  0.4598 -0.3806
   31MOL   C38617846   1.752   6.768   2.417  0.1626  0.3760  0.1747
   31MOL   O38717847   1.727   6.667   2.308  0.5809  0.2759 -0.0254
   31MOL   C38817848   1.604   6.663   2.242 -0.1939 -0.2329  0.4434
   31MOL   O38917849   1.579   6.770   2.160  0.7846 -0.3806 -0.2489
   31MOL   C39017850   1.589   6.534   2.175 -0.6771 -0.0171  0.2352
   31MOL   O39117851   1.560   6.432   2.277  0.0149  0.1960  0.6835
   31MOL   H39217852   2.240   7.150   2.774 -1.2197 -0.6288 -3.2566
   31MOL   H39317853   2.307   7.034   2.886  1.1181 -1.0061 -0.2317
   31MOL   H39417854   2.275   6.999   2.579  0.7747 -1.0981 -0.0926
   31MOL   H39517855   2.279   6.770   2.618 -0.0635  0.5173 -0.3949
   31MOL   H39617856   2.084   6.888   2.787  1.5709  0.0595  1.5060
   31MOL   H39717857   2.059   7.039   2.692 -0.3175 -0.5033  2.6128
   31MOL   H39817858   1.875   6.936   2.564  1.6439  0.0778 -3.5491
   31MOL   H39917859   1.890   6.798   2.669  1.8243 -1.1025  0.6129
   31MOL   H40017860   1.892   6.639   2.482 -3.1011  0.3672  0.1332
   31MOL   H40117861   1.945   6.758   2.368 -0.2157  1.3518 -0.4013
   31MOL   H40217862   1.682   6.763   2.501  0.7914 -0.3664  0.6580
   31MOL   H40317863   1.738   6.871   2.385 -0.5737  0.5707  1.0843
   31MOL   H40417864   1.530   6.666   2.322 -1.0514  1.1185 -0.3795
   31MOL   H40517865   1.505   6.813   2.199  0.0272 -0.5004 -1.5344
   31MOL   H40617866   1.505   6.548   2.106 -2.2331 -1.2713  1.8212
   31MOL   H40717867   1.681   6.507   2.124  0.3028  1.6638  1.0743
   31MOL   C40817868   1.584   6.295   2.246 -0.1425  0.7083  0.3068
   31MOL   C40917869   1.487   6.217   2.327  0.6375  0.3105 -0.0741
   31MOL   O41017870   1.534   6.172   2.452  0.0212  0.7102  1.2330
   31MOL   C41117871   1.448   6.089   2.247  0.4059 -0.5589 -0.2876
   31MOL   O41217872   1.376   6.127   2.135 -0.3423  0.0355 -0.0012
   31MOL   C41317873   1.248   6.191   2.148 -0.6586  0.0531  0.2663
   31MOL   C41417874   1.178   6.180   2.020 -0.0639  0.6468  0.0506
   31MOL   C41517875   1.240   6.276   1.921  0.1068  0.2034 -0.0855
   31MOL   O41617876   1.173   6.402   1.936  0.7625 -0.0825 -0.1125
   31MOL   C41717877   1.221   6.496   1.851 -0.1367 -0.7528 -0.2680
   31MOL   O41817878   1.352   6.531   1.882  0.0631 -0.2954 -0.2554
   31MOL   C41917879   1.128   6.623   1.856  0.2275 -0.5570  0.5058
   31MOL   O42017880   1.156   6.686   1.982 -0.0118  0.1041  0.1305
   31MOL   H42117881   1.686   6.270   2.276 -0.6765  0.0760  1.6712
   31MOL   H42217882   1.577   6.282   2.138  1.6419  0.6743  0.1786
   31MOL   H42317883   1.400   6.280   2.349 -0.6104 -0.5643 -2.2557
   31MOL   H42417884   1.609   6.120   2.426  0.7245  2.5183 -0.4755
   31MOL   H42517885   1.538   6.036   2.218  0.6270 -1.3247  1.7306
   31MOL   H42617886   1.384   6.023   2.305  0.2240 -0.5382 -0.4640
   31MOL   H42717887   1.194   6.129   2.220  1.6455  0.3692  2.3237
   31MOL   H42817888   1.258   6.296   2.173  1.5683  0.0543 -0.5166
   31MOL   H42917889   1.075   6.204   2.046 -0.5653  1.2667 -2.3747
   31MOL   H43017890   1.175   6.078   1.981 -2.9334  1.1391 -1.1795
   31MOL   H43117891   1.347   6.288   1.939  0.1941  0.4650 -0.7422
   31MOL   H43217892   1.235   6.234   1.820  1.3848  1.0848 -0.5290
   31MOL   H43317893   1.205   6.457   1.751 -0.7046 -0.1514 -0.4133
   31MOL   H43417894   1.343   6.591   1.954  2.3231  0.2436 -0.3608
   31MOL   H43517895   1.128   6.682   1.765 -0.9812  0.0101  0.8643
   31MOL   H43617896   1.026   6.586   1.866  0.4339 -2.0904 -2.4696
   31MOL   C43717897   1.085   6.807   1.998 -0.0093  0.5859  0.4147
   31MOL   C43817898   1.143   6.882   2.108 -0.3457  0.2753 -0.9161
   31MOL   O43917899   1.065   6.995   2.122  0.0204 -0.6627  0.5751
   31MOL   C44017900   1.294   6.926   2.088  0.0002 -0.5451 -0.2884
   31MOL   O44117901   1.368   6.919   2.210 -0.7002 -0.2365 -0.0796
   31MOL   C44217902   1.341   7.028   2.301  0.3146 -0.0850  0.0484
   31MOL   C44317903   1.453   7.017   2.406 -1.1903 -0.1030  0.3056
   31MOL   C44417904   1.434   7.105   2.529 -0.0875  0.1927 -0.2622
   31MOL   O44517905   1.448   7.238   2.482  0.3856 -0.0073 -0.1911
   31MOL   C44617906   1.444   7.345   2.575  0.3659 -0.6790  0.1498
   31MOL   O44717907   1.318   7.344   2.642  0.2586 -0.2264 -0.1546
   31MOL   C44817908   1.451   7.476   2.497 -0.5544 -0.2487  0.0332
   31MOL   O44917909   1.584   7.489   2.448  0.1063  0.2064  0.8013
   31MOL   H45017910   1.085   6.872   1.911 -0.5568  1.9670  1.4381
   31MOL   H45117911   0.980   6.780   2.008  0.3932 -2.2309 -2.0904
   31MOL   H45217912   1.136   6.814   2.193  0.8849 -0.6428 -1.5401
   31MOL   H45317913   1.062   7.038   2.038  0.5568 -0.7486  0.5163
   31MOL   H45417914   1.342   6.851   2.025  0.8355 -0.9005  0.7605
   31MOL   H45517915   1.318   7.009   2.021  0.7999 -1.2736 -0.9149
   31MOL   H45617916   1.243   7.029   2.348  0.3323  1.2865  0.0737
   31MOL   H45717917   1.354   7.126   2.255  1.5619  0.0533  0.6638
   31MOL   H45817918   1.552   7.039   2.366 -1.8128 -1.6250 -2.1615
   31MOL   H45917919   1.457   6.913   2.437 -3.1767 -0.0853  0.6955
   31MOL   H46017920   1.342   7.084   2.584  0.2005  1.2149  0.6335
   31MOL   H46117921   1.517   7.086   2.598 -0.1526 -1.0984 -0.5220
   31MOL   H46217922   1.520   7.352   2.652 -0.0712  1.1722  0.4206
   31MOL   H46317923   1.250   7.339   2.577  1.5075  3.2954 -1.8644
   31MOL   H46417924   1.376   7.472   2.419 -0.0754  0.6458 -0.4864
   31MOL   H46517925   1.432   7.561   2.564  1.5919  0.1827  0.1522
   31MOL   C46617926   1.604   7.445   2.318 -0.2228  0.4071  0.2070
   31MOL   C46717927   1.760   7.439   2.274  0.2032  0.2990 -0.8923
   31MOL   O46817928   1.834   7.349   2.358 -0.1876  0.0839  0.5655
   31MOL   C46917929   1.782   7.398   2.129  0.2717  0.1470  0.2170
   31MOL   O47017930   1.726   7.268   2.126 -0.0850 -0.2922 -0.1237
   31MOL   C47117931   1.709   7.200   1.998  0.1874 -1.1267  0.5113
   31MOL   C47217932   1.627   7.072   2.033 -0.0762  0.2769 -0.1743
   31MOL   C47317933   1.601   6.987   1.903  0.6558  0.5561 -0.2157
   31MOL   O47417934   1.724   6.931   1.848  0.4632 -0.0030  0.0588
   31MOL   C47517935   1.711   6.853   1.733  0.4043 -0.6108  0.6606
   31MOL   O47617936   1.644   6.734   1.756  0.1228 -0.5385  0.2173
   31MOL   C47717937   1.858   6.821   1.684  0.1686  0.2719  0.4854
   31MOL   O47817938   1.883   6.893   1.566  0.6018  0.0419  0.1126
   31MOL   H47917939   1.544   7.508   2.252  0.8467  1.5796  0.3350
   31MOL   H48017940   1.569   7.343   2.301 -1.8268  1.0470 -0.4516
   31MOL   H48117941   1.802   7.539   2.290 -0.0099  0.4149 -1.0440
   31MOL   H48217942   1.795   7.264   2.352 -0.7565  0.3936 -0.2047
   31MOL   H48317943   1.738   7.463   2.053  0.3813 -1.0475 -0.8961
   31MOL   H48417944   1.890   7.396   2.117  0.3699 -0.6590  1.1895
   31MOL   H48517945   1.813   7.185   1.970  0.2740  1.7490 -0.9342
   31MOL   H48617946   1.661   7.265   1.925 -1.1537 -1.6652  0.9017
   31MOL   H48717947   1.537   7.091   2.092  0.9048  0.7836  1.1660
   31MOL   H48817948   1.682   7.014   2.107  1.5706  2.1187  0.0586
   31MOL   H48917949   1.527   6.908   1.915 -0.6507  2.0199  1.4771
   31MOL   H49017950   1.557   7.055   1.831 -2.4820  0.4717  1.5667
   31MOL   H49117951   1.655   6.904   1.654  0.7008  0.0152  0.8522
   31MOL   H49217952   1.692   6.678   1.815 -0.9080 -1.5693  0.0805
   31MOL   H49317953   1.932   6.848   1.759 -0.4093  2.3765  0.3157
   31MOL   H49417954   1.860   6.713   1.667 -0.9389  0.6233 -2.0748
   31MOL   C49517955   2.012   6.861   1.511 -0.1435 -0.9593  0.0695
   31MOL   C49617956   2.029   6.966   1.396 -0.4631 -0.8452  0.1071
   31MOL   O49717957   2.080   7.089   1.464  0.0521 -0.0777 -0.2590
   31MOL   C49817958   2.124   6.931   1.278 -0.0097  0.2242 -0.2046
   31MOL   O49917959   2.082   6.805   1.218  0.1402 -0.2635  0.1035
   31MOL   C50017960   2.137   6.767   1.097 -0.6159 -0.3532  0.5120
   31MOL   C50117961   2.094   6.848   0.976  0.4823  0.1137 -0.0564
   31MOL   C50217962   1.940   6.871   0.968 -0.2651  0.4976  0.1527
   31MOL   O50317963   1.914   6.947   0.845  0.0227  0.7265  0.4407
   31MOL   C50417964   1.787   6.984   0.814  0.0244 -0.2706  0.4426
   31MOL   O50517965   1.702   6.875   0.789 -0.3128 -0.4677  0.8541
   31MOL   C50617966   1.793   7.093   0.701 -0.1831  1.0683 -0.3859
   31MOL   O50717967   1.795   7.218   0.751 -0.1074  0.0392  0.1039
   31MOL   H50817968   2.018   6.766   1.459  0.3120  0.0979 -1.8666
   31MOL   H50917969   2.091   6.866   1.586 -1.3802  1.2951  1.2749
   31MOL   H51017970   1.932   6.980   1.348 -0.3701 -0.0106  0.1602
   31MOL   H51117971   2.029   7.104   1.542 -0.3157 -1.0758 -0.2962
   31MOL   H51217972   2.114   7.006   1.200 -1.2919 -0.0675 -0.3408
   31MOL   H51317973   2.231   6.945   1.288 -0.0885  1.5354 -0.9997
   31MOL   H51417974   2.132   6.661   1.074 -1.8636 -0.3653  0.8039
   31MOL   H51517975   2.242   6.782   1.122 -0.8498 -0.4810  1.6181
   31MOL   H51617976   2.116   6.792   0.885 -0.1902  1.9417 -1.3625
   31MOL   H51717977   2.139   6.947   0.972  0.9686 -0.1113 -0.3466
   31MOL   H51817978   1.896   6.772   0.956 -1.4614  0.8778  1.2111
   31MOL   H51917979   1.889   6.921   1.051  1.7386 -0.1884  1.8471
   31MOL   H52017980   1.743   7.032   0.902 -0.2260  0.7809 -0.2359
   31MOL   H52117981   1.615   6.897   0.817 -0.7599 -0.1784 -0.7335
   31MOL   H52217982   1.886   7.089   0.644 -0.0983 -1.1726 -0.1683
   31MOL   H52317983   1.703   7.086   0.640 -0.9908 -1.6664  1.0078
   31MOL   C52417984   1.895   7.243   0.851 -0.4669 -0.2768  0.3231
   31MOL   C52517985   1.906   7.398   0.867 -0.3456 -0.6798 -0.3640
   31MOL   O52617986   1.957   7.461   0.746  0.3315 -0.3767  0.3710
   31MOL   C52717987   2.019   7.433   0.968  0.7066  0.1552  0.0882
   31MOL   O52817988   1.978   7.416   1.103 -0.0378 -0.6989 -0.0288
   31MOL   C52917989   2.062   7.472   1.203 -0.1679 -0.0338  0.1682
   31MOL   C53017990   2.150   7.370   1.272 -0.0504  0.4661  0.4700
   31MOL   C53117991   2.226   7.438   1.383 -0.8166 -0.0865  0.5411
   31MOL   O53217992   2.307   7.538   1.325 -0.4098 -0.0270 -0.9514
   31MOL   C53317993   2.359   7.634   1.417  0.7037  0.5273 -0.5349
   31MOL   O53417994   2.440   7.575   1.517 -0.0262 -0.7833 -0.1511
   31MOL   C53517995   2.446   0.029   1.327  0.1531  0.3225 -0.2664
   31MOL   O53617996   2.467   0.160   1.391 -0.0536 -0.1537  0.0676
   31MOL   H53717997   1.988   7.189   0.835  0.9543  2.2157  0.0008
   31MOL   H53817998   1.855   7.204   0.945  1.0632 -0.0305  1.0813
   31MOL   H53917999   1.815   7.442   0.909 -1.0074 -1.8351 -0.5882
   31MOL   H54018000   2.040   7.498   0.769  0.2485  0.0744 -0.0612
   31MOL   H54118001   2.108   7.375   0.946  1.5949  0.8246  1.7750
   31MOL   H54218002   2.057   7.535   0.958  3.4135 -0.8315 -0.0762
   31MOL   H54318003   1.998   7.528   1.272  1.3882 -0.0170  1.6300
   31MOL   H54418004   2.123   7.549   1.156 -1.0457  0.6786  0.1812
   31MOL   H54518005   2.202   7.310   1.197  1.2199  0.8821  1.0076
   31MOL   H54618006   2.076   7.298   1.308 -0.9087 -0.1643 -2.4328
   31MOL   H54718007   2.159   7.485   1.455 -0.0306 -0.0622  1.2785
   31MOL   H54818008   2.283   7.360   1.434 -0.6307 -1.1685 -1.2854
   31MOL   H54918009   2.284   7.693   1.471  1.0539 -0.0856  0.6556
   31MOL   H55018010   2.527   7.568   1.482 -0.0996  2.3735 -1.0848
   31MOL   H55118011   2.538   7.668   1.313 -0.0568 -0.4399  1.2113
   31MOL   H55218012   2.390   0.048   1.236 -1.5357  1.6081  0.9776
   31MOL   C55318013   2.552   0.255   1.327 -0.5077  0.0464 -0.3064
   31MOL   C55418014   2.556   0.383   1.419  0.3280  0.0369  0.0106
   31MOL   O55518015   2.646   0.474   1.364 -0.0129 -0.1325 -0.0365
   31MOL   C55618016   2.623   0.349   1.553  0.3056  0.5544 -0.3888
   31MOL   O55718017   2.555   0.430   1.643 -0.1889  0.0586 -0.4009
   31MOL   C55818018   2.613   0.437   1.765 -0.4530  0.0020 -0.2546
   31MOL   C55918019   2.502   0.486   1.861 -0.4683 -0.6048  1.0137
   31MOL   C56018020   2.387   0.386   1.870 -0.2223  0.5273  1.0214
   31MOL   O56118021   2.345   0.373   2.000 -0.5423 -0.2687 -0.5306
   31MOL   C56218022   2.295   0.488   2.067 -0.6555 -0.2513 -0.0279
   31MOL   O56318023   2.174   0.549   2.015 -0.5501  0.3929 -0.2396
   31MOL   C56418024   2.283   0.444   2.213  0.3530 -0.2809 -0.4371
   31MOL   O56518025   2.410   0.389   2.252 -0.2136  0.5432 -0.3472
   31MOL   H56618026   2.515   0.265   1.225  0.6439 -1.2624 -0.8547
   31MOL   H56718027   2.644   0.197   1.331  0.4798  1.6126  0.0063
   31MOL   H56818028   2.455   0.422   1.413  0.6079  0.4973 -2.1889
   31MOL   H56918029   2.632   0.559   1.403 -0.9891 -0.9363  1.4130
   31MOL   H57018030   2.604   0.247   1.586  0.4744  0.4813 -0.5136
   31MOL   H57118031   2.729   0.371   1.546 -0.0110  2.8911  1.6582
   31MOL   H57218032   2.666   0.345   1.790  0.4495  0.2318 -1.2830
   31MOL   H57318033   2.694   0.509   1.776 -0.3551 -0.4512  2.2452
   31MOL   H57418034   2.459   0.583   1.837 -0.9506 -1.3725 -1.3368
   31MOL   H57518035   2.553   0.494   1.957  1.0733 -0.2160  0.1628
   31MOL   H57618036   2.299   0.415   1.812  0.6001 -0.4748 -0.7679
   31MOL   H57718037   2.415   0.289   1.829 -2.0608 -0.5809  2.2971
   31MOL   H57818038   2.363   0.574   2.065  0.2674 -0.9032  2.0016
   31MOL   H57918039   2.134   0.593   2.089  2.0045  1.8228  0.3517
   31MOL   H58018040   2.249   0.521   2.282  0.3951 -0.7405  0.1013
   31MOL   H58118041   2.219   0.356   2.215  0.2212 -0.1886 -0.6104
   31MOL   H58218042   2.417   0.323   2.185  0.0590  1.3995 -1.1710
   32MOL     C118043   3.941   7.642   2.844 -0.0923  0.7935  0.3994
   32MOL     C218044   3.890   0.051   2.942  0.7906  0.1116 -0.0649
   32MOL     O318045   3.774   0.114   2.885  0.2943  0.0753 -0.8153
   32MOL     C418046   3.847   0.000   3.075 -0.0434  0.3366 -0.4192
   32MOL     O518047   3.835   0.115   3.160 -0.4109  0.1241 -0.6226
   32MOL     C618048   3.813   0.076   3.297 -0.2487 -0.4263  0.4289
   32MOL     C718049   3.944   0.060   3.378  0.7412 -0.0492 -0.1088
   32MOL     C818050   3.908   0.069   3.527 -0.0421  0.1616  0.3086
   32MOL     O918051   4.014   0.012   3.610 -0.3846  0.0336 -0.1847
   32MOL    C1018052   3.981   0.026   3.747  0.4141  0.1754  0.5279
   32MOL    O1118053   4.011   0.149   3.791 -0.6636  0.2101 -0.1187
   32MOL    C1218054   4.066   7.616   3.824  0.3823 -0.2697 -0.4087
   32MOL    O1318055   4.020   7.481   3.803 -0.0271 -0.3506  0.7047
   32MOL    H1418056   3.988   7.554   2.887 -2.0556 -1.1932 -1.3767
   32MOL    H1518057   4.007   7.682   2.768 -0.0041  1.5142  0.8519
   32MOL    H1618058   3.966   0.125   2.968 -1.0595  1.8506  0.4791
   32MOL    H1718059   3.734   0.167   2.953  0.5162 -0.3519 -0.3510
   32MOL    H1818060   3.763   7.626   3.062 -0.2455  1.1538 -3.9583
   32MOL    H1918061   3.927   7.637   3.122 -2.6428 -1.9368  1.3349
   32MOL    H2018062   3.740   7.690   3.303 -1.7177  0.7608 -1.0865
   32MOL    H2118063   3.751   0.158   3.332  0.0019 -0.5316  1.1267
   32MOL    H2218064   4.016   0.135   3.345  0.6824  0.7590  1.5634
   32MOL    H2318065   3.990   7.659   3.351  0.6276  0.3764 -1.8971
   32MOL    H2418066   3.893   0.171   3.563  1.7620  0.1130  1.2952
   32MOL    H2518067   3.817   0.010   3.535 -1.3632  2.0048 -0.8116
   32MOL    H2618068   3.875   0.003   3.760 -0.0547  2.9920  1.9775
   32MOL    H2718069   4.103   0.165   3.779 -0.8465  2.6328  1.3509
   32MOL    H2818070   4.174   7.620   3.809  0.5105 -0.9801  0.2795
   32MOL    H2918071   4.059   7.639   3.930  1.1281 -1.8004 -0.0086
   32MOL    H3018072   3.857   7.600   2.788  0.7822  0.3669 -0.6041
   32MOL    C3118073   4.086   7.391   3.883  0.0670 -0.9339  0.0872
   32MOL    C3218074   4.050   7.247   3.849 -0.1425  0.3362  0.0799
   32MOL    O3318075   3.944   7.201   3.924  0.3767  0.0048  0.0576
   32MOL    C3418076   4.160   7.148   3.878 -0.1587  0.1934  0.0472
   32MOL    O3518077   4.121   7.029   3.813  0.2147  0.1118 -0.3328
   32MOL    C3618078   4.212   6.925   3.820  0.0919  0.0323  0.2757
   32MOL    C3718079   4.242   6.865   3.959 -0.4528  0.7132  0.2688
   32MOL    C3818080   4.318   6.726   3.961  0.0148  0.1303 -0.0789
   32MOL    O3918081   4.370   6.706   4.086 -0.0229 -0.1603 -0.1823
   32MOL    C4018082   4.295   6.616   4.171 -0.0352 -1.3160  0.1933
   32MOL    O4118083   4.166   6.666   4.200 -0.8459  0.2725  0.2547
   32MOL    C4218084   4.376   6.596   4.301  0.0071 -0.2934  0.2048
   32MOL    O4318085   4.417   6.725   4.349 -0.8001  0.1157 -0.3040
   32MOL    H4418086   4.194   7.401   3.876  0.4706 -2.6706  2.7888
   32MOL    H4518087   4.067   7.421   3.987 -1.0914  1.5241 -0.8018
   32MOL    H4618088   4.034   7.235   3.742 -1.5392  0.7666  0.2356
   32MOL    H4718089   3.938   7.107   3.914 -1.5439 -0.3366  3.7264
   32MOL    H4818090   4.252   7.190   3.838 -0.0195  0.5181  0.7135
   32MOL    H4918091   4.161   7.133   3.986 -1.1197 -0.0930  0.0234
   32MOL    H5018092   4.302   6.954   3.767 -0.8949 -1.2819 -2.1974
   32MOL    H5118093   4.184   6.845   3.753 -1.5671 -0.3495  1.3862
   32MOL    H5218094   4.145   6.851   4.007 -0.6447  0.5553 -0.1643
   32MOL    H5318095   4.283   6.946   4.019 -1.9707  1.7791 -0.1189
   32MOL    H5418096   4.263   6.639   3.924  2.1561 -1.0382 -0.6142
   32MOL    H5518097   4.400   6.728   3.889  0.9337  1.9871  0.9816
   32MOL    H5618098   4.286   6.517   4.125  1.4222 -2.1395  1.6301
   32MOL    H5718099   4.188   6.738   4.257 -1.3462  1.5178 -1.0958
   32MOL    H5818100   4.336   6.521   4.369  2.7437 -3.3142 -1.3890
   32MOL    H5918101   4.463   6.547   4.259  0.0961  0.7815 -0.8825
   32MOL    C6018102   4.489   6.722   4.473 -0.5212 -0.2812 -0.5886
   32MOL    C6118103   4.513   6.862   4.532  0.0192  0.0457 -0.0089
   32MOL    O6218104   4.580   6.849   4.651  0.2858 -0.2262 -0.0954
   32MOL    C6318105   4.386   6.936   4.563 -0.2575  0.2406  0.4521
   32MOL    O6418106   4.300   6.940   4.440  0.2027  0.2424 -0.4614
   32MOL    C6518107   4.181   7.009   4.458  0.0646 -0.1828 -0.4649
   32MOL    C6618108   4.089   6.973   4.344 -0.6467 -0.6873 -0.3151
   32MOL    C6718109   3.961   7.066   4.344 -0.6612  0.4713 -0.2235
   32MOL    O6818110   3.866   7.009   4.258  0.0743 -0.2361 -0.4781
   32MOL    C6918111   3.753   7.093   4.240 -0.4786 -1.0209  0.2073
   32MOL    O7018112   3.793   7.214   4.184  0.2630  0.1186  0.0749
   32MOL    C7118113   3.666   7.006   4.147  0.6128  0.1578  0.5344
   32MOL    O7218114   3.739   6.975   4.033  0.3529 -0.2849  0.0175
   32MOL    H7318115   4.593   6.697   4.451  0.0626  0.6045  1.0503
   32MOL    H7418116   4.438   6.643   4.529 -2.2305  1.3142  0.1405
   32MOL    H7518117   4.573   6.921   4.462  1.9955 -1.0922  0.6701
   32MOL    H7618118   4.533   6.781   4.698 -0.4461 -1.7780 -2.9619
   32MOL    H7718119   4.340   6.875   4.641  0.5999  0.3497  1.0518
   32MOL    H7818120   4.398   7.037   4.601  1.0613 -0.5068  2.0632
   32MOL    H7918121   4.202   7.115   4.445  1.1330  0.2300  3.8802
   32MOL    H8018122   4.133   6.996   4.555  0.6154  1.4441  0.0469
   32MOL    H8118123   4.057   6.870   4.363 -1.7088 -0.4565 -0.8050
   32MOL    H8218124   4.141   6.982   4.249  2.0082  1.7405  1.3102
   32MOL    H8318125   3.997   7.163   4.308 -0.7197  0.1426 -1.1677
   32MOL    H8418126   3.913   7.070   4.442  0.4867  1.6395  0.3107
   32MOL    H8518127   3.693   7.107   4.330  0.1754 -0.3434  0.5378
   32MOL    H8618128   3.841   7.194   4.105 -0.0886 -0.9689  0.1286
   32MOL    H8718129   3.637   6.921   4.207 -0.8529  2.2815  2.9254
   32MOL    H8818130   3.580   7.061   4.109  1.9135  1.0305 -1.2772
   32MOL    C8918131   3.716   6.844   3.980  0.4430  1.1191 -0.7313
   32MOL    C9018132   3.857   6.772   3.953  0.3135 -0.5319 -0.5554
   32MOL    O9118133   3.905   6.714   4.069 -0.4956 -0.1412 -0.2079
   32MOL    C9218134   3.843   6.658   3.858  0.3368  0.8896 -0.4255
   32MOL    O9318135   3.958   6.606   3.800 -0.0574 -0.1943 -0.0246
   32MOL    C9418136   4.015   6.496   3.868 -0.1593 -1.1647 -0.1357
   32MOL    C9518137   3.930   6.365   3.853  0.5968 -0.2389  0.2864
   32MOL    C9618138   3.980   6.227   3.907  0.0914 -0.0880 -0.0779
   32MOL    O9718139   3.862   6.145   3.928  0.2212 -0.5359 -0.0184
   32MOL    C9818140   3.876   6.027   4.003 -0.5647 -0.1842  0.5146
   32MOL    O9918141   3.890   6.047   4.143 -0.6502 -0.6108  0.1205
   32MOL   C10018142   3.748   5.948   3.992 -0.9732 -0.2189  0.6364
   32MOL   O10118143   3.760   5.872   3.879  0.5904  0.6327 -0.6657
   32MOL   H10218144   3.670   6.863   3.883  1.2645  2.7865 -0.8113
   32MOL   H10318145   3.645   6.789   4.041 -0.7765  2.7941 -0.6018
   32MOL   H10418146   3.935   6.837   3.913  0.7898 -1.0933 -0.5467
   32MOL   H10518147   3.998   6.703   4.059 -0.5316 -0.0780 -0.6367
   32MOL   H10618148   3.777   6.581   3.897  0.8836  1.5476  1.8670
   32MOL   H10718149   3.781   6.675   3.770 -2.2398 -0.0275  1.1527
   32MOL   H10818150   4.020   6.526   3.973 -0.9528 -1.6277  0.0372
   32MOL   H10918151   4.115   6.491   3.823  0.3366  2.6439  0.4023
   32MOL   H11018152   3.901   6.349   3.749  0.1313  0.9212  0.2305
   32MOL   H11118153   3.829   6.377   3.893  0.2442 -1.2325 -0.2678
   32MOL   H11218154   4.047   6.181   3.834  0.7311  0.7077 -0.0024
   32MOL   H11318155   4.037   6.252   3.997 -1.2255 -1.9505  1.2941
   32MOL   H11418156   3.966   5.971   3.976  0.0848  1.0852  0.0602
   32MOL   H11518157   3.811   6.085   4.178 -0.0098 -0.2206  1.1905
   32MOL   H11618158   3.744   5.876   4.074 -1.3241  1.1857  1.8843
   32MOL   H11718159   3.665   6.018   4.004 -0.5441  0.2623  0.8159
   32MOL   C11818160   3.626   5.850   3.823 -0.1965  0.2184  0.1679
   32MOL   C11918161   3.644   5.780   3.690  0.8749 -0.6683 -0.1880
   32MOL   O12018162   3.728   5.859   3.606  0.5570  0.1946 -0.8174
   32MOL   C12118163   3.515   5.759   3.615 -0.5124  0.6538 -1.0300
   32MOL   O12218164   3.520   5.641   3.539  0.8107  0.1907  0.6489
   32MOL   C12318165   3.559   5.662   3.404 -0.0994  0.1972  0.6913
   32MOL   C12418166   3.460   5.596   3.306 -0.5420 -0.4142 -0.5001
   32MOL   C12518167   3.312   5.605   3.348  0.0319  0.1204  0.1414
   32MOL   O12618168   3.233   5.564   3.233  0.7679 -0.1257 -0.1750
   32MOL   C12718169   3.108   5.503   3.262  0.5219  0.2494  0.3338
   32MOL   O12818170   3.131   5.372   3.320 -0.5411 -0.6394 -0.3346
   32MOL   C12918171   3.025   5.497   3.132 -0.1362 -0.5983  0.5287
   32MOL   O13018172   2.923   5.598   3.125  0.1655  0.2859 -0.0965
   32MOL   H13118173   3.564   5.796   3.893  0.1956 -1.1188 -0.4967
   32MOL   H13218174   3.575   5.941   3.790 -1.5190 -0.4991  0.1977
   32MOL   H13318175   3.701   5.689   3.707  0.8573 -0.8136 -0.8928
   32MOL   H13418176   3.808   5.863   3.656  0.8497 -0.3171 -1.2366
   32MOL   H13518177   3.442   5.738   3.694  0.6981  2.1105  0.5196
   32MOL   H13618178   3.465   5.838   3.560  0.2085  0.4332 -2.0147
   32MOL   H13718179   3.654   5.624   3.367  0.1731  2.8246 -1.4662
   32MOL   H13818180   3.552   5.767   3.377  0.4253  0.2192  0.6325
   32MOL   H13918181   3.485   5.490   3.314  2.0470  0.2654  1.0288
   32MOL   H14018182   3.478   5.634   3.206  1.2415  0.4634  0.1345
   32MOL   H14118183   3.299   5.525   3.421  0.1737 -0.1683 -0.1497
   32MOL   H14218184   3.277   5.703   3.381 -1.4784  0.4744 -2.3462
   32MOL   H14318185   3.046   5.557   3.334 -2.8487 -0.8401 -1.6569
   32MOL   H14418186   3.170   5.319   3.252  1.1451 -0.1676  0.2547
   32MOL   H14518187   3.097   5.507   3.050 -0.8830 -1.5247 -0.2447
   32MOL   H14618188   2.970   5.403   3.129  3.0065 -2.4807 -1.1806
   32MOL   C14718189   2.979   5.717   3.068 -0.1655  0.9731 -0.0380
   32MOL   C14818190   2.887   5.841   3.100 -0.2825  0.1625 -0.4929
   32MOL   O14918191   2.937   5.963   3.044  0.6406  0.8786 -0.7819
   32MOL   C15018192   2.896   5.866   3.254 -0.0162  0.3067  0.5715
   32MOL   O15118193   3.025   5.891   3.299  0.1275 -0.6818 -0.7110
   32MOL   C15218194   3.019   5.899   3.439 -0.3928 -0.2938 -0.1881
   32MOL   C15318195   3.145   5.978   3.486 -0.0846 -0.6014  0.2380
   32MOL   C15418196   3.140   5.986   3.638 -0.1064  0.0758 -0.4844
   32MOL   O15518197   3.163   5.847   3.683 -0.2120 -0.4029 -0.0543
   32MOL   C15618198   3.134   5.819   3.811 -0.4577 -0.2066 -0.1819
   32MOL   O15718199   3.214   5.888   3.909  0.5683  0.0038 -0.3765
   32MOL   C15818200   3.150   5.670   3.838 -0.6015  0.0786 -0.9278
   32MOL   O15918201   3.062   5.591   3.753 -0.0348 -0.2175 -0.0988
   32MOL   H16018202   2.982   5.719   2.959  0.4047 -0.7147 -0.0596
   32MOL   H16118203   3.079   5.726   3.110 -0.6430  1.3239  1.0450
   32MOL   H16218204   2.783   5.823   3.074 -0.9594  1.1363  1.4808
   32MOL   H16318205   2.996   6.006   3.104 -0.1352  1.1954 -0.2390
   32MOL   H16418206   2.828   5.945   3.285  0.4406  0.4140  1.3096
   32MOL   H16518207   2.848   5.780   3.302  1.0362 -1.4706 -1.4680
   32MOL   H16618208   3.011   5.802   3.488 -0.6847 -0.2680 -0.1875
   32MOL   H16718209   2.932   5.955   3.473  0.1099  0.7129 -0.5376
   32MOL   H16818210   3.149   6.076   3.439  0.7315  0.4544  2.4127
   32MOL   H16918211   3.235   5.926   3.453  0.7431  0.1444  1.2490
   32MOL   H17018212   3.214   6.055   3.677  1.1962 -1.0490 -0.9048
   32MOL   H17118213   3.045   6.023   3.674 -0.5534  1.9104 -3.3926
   32MOL   H17218214   3.028   5.836   3.827 -0.2988  0.1527  0.5192
   32MOL   H17318215   3.191   5.851   3.993 -0.0885  0.5850 -0.2946
   32MOL   H17418216   3.256   5.648   3.828 -0.0141  2.1986  0.4054
   32MOL   H17518217   3.126   5.651   3.943 -1.8366  0.8290 -1.0642
   32MOL   C17618218   3.087   5.451   3.741  0.0257 -0.2497  0.3023
   32MOL   C17718219   3.002   5.405   3.629  0.0563  0.2548 -0.1574
   32MOL   O17818220   2.864   5.411   3.662  0.2394 -0.0443  0.6280
   32MOL   C17918221   3.028   5.253   3.583 -0.1930  0.2218 -0.5856
   32MOL   O18018222   2.992   5.179   3.695  0.7097  0.3730 -0.5769
   32MOL   C18118223   2.982   5.040   3.662 -0.6052  0.9714 -0.7846
   32MOL   C18218224   2.900   4.962   3.766 -0.0560 -0.9073  0.2549
   32MOL   C18318225   2.866   4.819   3.709 -0.1124 -0.4984 -0.1422
   32MOL   O18418226   2.754   4.824   3.619 -0.2383  0.1498 -0.9353
   32MOL   C18518227   2.769   4.752   3.508 -0.3074 -0.0492  0.3049
   32MOL   O18618228   2.871   4.797   3.420 -0.4913 -0.1848 -0.0296
   32MOL   C18718229   2.636   4.739   3.442 -0.7568  0.4347  0.0599
   32MOL   O18818230   2.564   4.641   3.506  0.2552 -0.1780 -0.2130
   32MOL   H18918231   3.052   5.397   3.829  1.0420  2.4042  2.4245
   32MOL   H19018232   3.194   5.429   3.737 -0.2729 -1.3932 -1.7797
   32MOL   H19118233   3.014   5.468   3.541  2.8370 -1.1384 -0.8398
   32MOL   H19218234   2.841   5.340   3.719 -1.0808 -0.3388 -0.2450
   32MOL   H19318235   2.964   5.232   3.497  1.6917 -0.1105 -1.9399
   32MOL   H19418236   3.129   5.233   3.547 -1.2700  0.3754 -3.8738
   32MOL   H19518237   3.081   4.994   3.657 -1.7024 -1.5116 -0.3723
   32MOL   H19618238   2.939   5.022   3.564  0.8591  0.3713 -1.3341
   32MOL   H19718239   2.815   5.022   3.798 -0.1542 -1.8635  1.8635
   32MOL   H19818240   2.946   4.952   3.865 -2.1648 -0.7957  1.2679
   32MOL   H19918241   2.952   4.772   3.662 -0.0854  0.2458 -0.8427
   32MOL   H20018242   2.827   4.761   3.793  0.3395 -2.1710 -1.0793
   32MOL   H20118243   2.793   4.649   3.537 -0.6816 -0.3920 -0.5702
   32MOL   H20218244   2.841   4.861   3.357  1.8090 -0.9535 -1.9817
   32MOL   H20318245   2.591   4.838   3.448 -1.6143  0.0367  0.3586
   32MOL   H20418246   2.649   4.704   3.340 -3.8563 -1.4451  0.2352
   32MOL   C20518247   2.429   4.648   3.460  0.1633  0.3681 -0.3855
   32MOL   C20618248   2.355   4.531   3.548 -0.1720 -1.1063 -0.2172
   32MOL   O20718249   2.289   4.587   3.663 -0.0678 -0.6334 -0.0285
   32MOL   C20818250   2.245   4.458   3.481  0.3809 -0.5687  0.3031
   32MOL   O20918251   2.199   4.346   3.552  0.5214  0.1754 -0.1551
   32MOL   C21018252   2.116   4.270   3.465 -0.1683 -0.8203  0.7036
   32MOL   C21118253   2.086   4.135   3.526  0.1176  0.0935  0.3963
   32MOL   C21218254   1.979   4.055   3.447  0.3730  0.2756  0.4322
   32MOL   O21318255   1.993   3.925   3.497 -0.1688 -0.2244  0.2255
   32MOL   C21418256   1.932   3.834   3.416 -0.3559  0.6519  0.4363
   32MOL   O21518257   1.796   3.859   3.409 -0.0994  0.4372  0.1587
   32MOL   C21618258   1.954   3.692   3.463  0.0132 -0.2502 -0.2041
   32MOL   O21718259   1.916   3.685   3.599 -0.4881 -0.1085  0.1935
   32MOL   H21818260   2.415   4.623   3.355  2.5721  1.4003 -0.9996
   32MOL   H21918261   2.381   4.744   3.480 -2.0815 -0.5929 -0.9893
   32MOL   H22018262   2.428   4.459   3.585  1.0187  0.2710  0.1480
   32MOL   H22118263   2.256   4.517   3.717  0.1430 -1.2442 -0.6876
   32MOL   H22218264   2.156   4.517   3.458 -0.3817 -2.4100 -1.6051
   32MOL   H22318265   2.295   4.437   3.387 -0.4185 -1.4900  0.0758
   32MOL   H22418266   2.143   4.264   3.359 -1.2584 -1.7246  0.4619
   32MOL   H22518267   2.017   4.315   3.458  0.0814 -0.2306  1.0174
   32MOL   H22618268   2.037   4.152   3.621 -0.9727  0.1548 -0.1702
   32MOL   H22718269   2.179   4.081   3.545 -0.0908 -1.8859 -3.6723
   32MOL   H22818270   1.885   4.107   3.459 -0.0286 -0.0488 -1.2181
   32MOL   H22918271   1.997   4.074   3.341 -0.8096  0.9239  0.3445
   32MOL   H23018272   1.966   3.843   3.313 -0.7175  0.2604  0.2811
   32MOL   H23118273   1.764   3.817   3.487 -0.1757  2.0692  1.0229
   32MOL   H23218274   1.905   3.617   3.399  1.4950 -0.4272 -1.1635
   32MOL   H23318275   2.062   3.677   3.462  0.1340  0.4081  1.3890
   32MOL   C23418276   1.937   3.549   3.658  0.3731  0.2826  0.1685
   32MOL   C23518277   1.823   3.516   3.742  0.4237 -0.0211 -0.2949
   32MOL   O23618278   1.857   3.416   3.839  0.1277 -0.2328  0.0191
   32MOL   C23718279   1.703   3.464   3.661  0.1371 -0.1819  0.0028
   32MOL   O23818280   1.586   3.499   3.738 -0.2413 -0.8582  0.5767
   32MOL   C23918281   1.463   3.470   3.677 -0.3060 -0.4602  0.1598
   32MOL   C24018282   1.350   3.552   3.742  0.5021  0.0067 -0.2312
   32MOL   C24118283   1.391   3.695   3.777 -0.1841 -0.1383  0.2051
   32MOL   O24218284   1.406   3.758   3.654 -0.7593 -0.3812  0.9369
   32MOL   C24318285   1.505   3.853   3.641 -0.2349 -0.0928 -0.9933
   32MOL   O24418286   1.486   3.965   3.725 -0.1469  0.2090 -0.3452
   32MOL   C24518287   1.496   3.907   3.495  0.1304  0.3039  0.0365
   32MOL   O24618288   1.364   3.949   3.462  0.0699 -0.0137 -0.6357
   32MOL   H24718289   1.974   3.474   3.589  0.6281  0.2226  0.3705
   32MOL   H24818290   2.023   3.555   3.724 -0.1287  2.1215  0.6856
   32MOL   H24918291   1.794   3.605   3.798 -2.4628 -0.5621 -0.8560
   32MOL   H25018292   1.781   3.416   3.895 -0.9851  1.5618 -1.4254
   32MOL   H25118293   1.695   3.520   3.568  4.3033 -1.1729 -1.0816
   32MOL   H25218294   1.711   3.358   3.637  1.2973 -0.1057 -0.0107
   32MOL   H25318295   1.450   3.362   3.682 -0.8026 -0.4692 -1.0697
   32MOL   H25418296   1.470   3.499   3.572  1.8597  0.4610  0.5247
   32MOL   H25518297   1.335   3.498   3.836 -1.7074 -1.8887 -1.6383
   32MOL   H25618298   1.256   3.557   3.688 -0.3155  1.6743  1.2651
   32MOL   H25718299   1.314   3.750   3.831 -0.1042  0.6037 -0.4368
   32MOL   H25818300   1.486   3.686   3.830 -1.2795 -0.2822  2.1814
   32MOL   H25918301   1.599   3.803   3.664  0.2455  1.8033  1.3647
   32MOL   H26018302   1.437   4.030   3.677 -1.6954  1.5631  2.9118
   32MOL   H26118303   1.583   3.963   3.461  0.9198 -1.1327 -0.3593
   32MOL   H26218304   1.510   3.819   3.432 -0.9755 -0.9176  1.4554
   32MOL   C26318305   1.329   3.942   3.331 -0.1586 -0.0734  0.1532
   32MOL   C26418306   1.205   4.036   3.314  0.6165  0.1235 -0.2061
   32MOL   O26518307   1.238   4.170   3.336 -0.3098 -0.1977  0.6799
   32MOL   C26618308   1.142   4.028   3.171 -0.0828  0.1684  0.3471
   32MOL   O26718309   1.003   4.057   3.174  0.3333 -0.1738  0.3948
   32MOL   C26818310   0.966   4.193   3.196 -0.3762 -0.3980  0.1007
   32MOL   C26918311   0.809   4.212   3.177 -0.7197 -0.8395 -0.2726
   32MOL   C27018312   0.751   4.148   3.050  0.1840  0.1416  0.1336
   32MOL   O27118313   0.619   4.183   3.029  0.0600  0.5836 -0.7667
   32MOL   C27218314   0.554   4.111   2.929  0.7341  0.4318  0.5212
   32MOL   O27318315   0.515   3.989   2.977  0.0475  0.1066  0.0823
   32MOL   C27418316   0.430   4.192   2.888  0.6580  0.0757  0.5814
   32MOL   O27518317   0.459   4.263   2.768  0.2655 -0.1693  0.2921
   32MOL   H27618318   1.296   3.839   3.315 -0.7234  0.1151  0.0767
   32MOL   H27718319   1.416   3.961   3.269  0.6600 -1.1639  0.9510
   32MOL   H27818320   1.128   4.002   3.383 -1.1056 -0.5282 -2.3923
   32MOL   H27918321   1.288   4.167   3.415 -1.6207 -3.1765  1.4578
   32MOL   H28018322   1.206   4.093   3.111  0.7882  0.1582  1.2343
   32MOL   H28118323   1.164   3.933   3.122  1.8612  0.7257  0.0869
   32MOL   H28218324   1.019   4.255   3.124 -2.4208  0.2325 -0.8947
   32MOL   H28318325   1.010   4.224   3.291  1.0796 -0.4365 -0.5387
   32MOL   H28418326   0.788   4.319   3.177  2.4423 -0.1541 -1.1585
   32MOL   H28518327   0.749   4.172   3.258  2.1379  0.4813  2.6162
   32MOL   H28618328   0.811   4.164   2.960 -0.7779  0.0397 -0.5310
   32MOL   H28718329   0.754   4.040   3.054 -0.8599  0.1808  4.4464
   32MOL   H28818330   0.616   4.096   2.841  3.1262  1.0763  2.0634
   32MOL   H28918331   0.591   3.933   2.972 -0.3678 -0.3057 -1.7410
   32MOL   H29018332   0.343   4.128   2.874  0.1641  0.8894 -0.1277
   32MOL   H29118333   0.407   4.255   2.974  0.8965 -1.7315  2.0147
   32MOL   C29218334   0.581   4.352   2.783  0.0585  0.7108  0.0180
   32MOL   C29318335   0.563   4.473   2.871 -0.7608 -0.5241 -0.3717
   32MOL   O29418336   0.596   4.447   3.007  0.5222 -0.3187 -0.1023
   32MOL   C29518337   0.650   4.596   2.836 -0.1128 -0.2676 -0.7223
   32MOL   O29618338   0.779   4.564   2.787  0.1341  0.2860  0.2693
   32MOL   C29718339   0.879   4.564   2.894  0.1222 -0.1422 -0.3765
   32MOL   C29818340   1.004   4.496   2.855  0.3797  0.3835  0.1992
   32MOL   C29918341   1.072   4.551   2.729 -0.2391  1.1883 -0.1251
   32MOL   O30018342   1.193   4.477   2.693 -0.4150 -0.0845 -0.0003
   32MOL   C30118343   1.251   4.515   2.576 -0.2848 -0.7089  0.1645
   32MOL   O30218344   1.322   4.641   2.596  0.2049  0.4128  0.2531
   32MOL   C30318345   1.350   4.403   2.530  0.0161 -0.8624 -0.6505
   32MOL   O30418346   1.301   4.327   2.421 -0.6607  0.2725  0.7286
   32MOL   H30518347   0.673   4.300   2.810 -0.1490  0.3665  0.0702
   32MOL   H30618348   0.614   4.382   2.684  4.2259  0.3591  1.1911
   32MOL   H30718349   0.458   4.499   2.855 -0.4129  0.7637 -0.5819
   32MOL   H30818350   0.577   4.355   3.017  0.4367 -0.3849 -0.8259
   32MOL   H30918351   0.607   4.640   2.746 -0.8981  1.3109  0.4099
   32MOL   H31018352   0.650   4.682   2.902 -0.6968  0.2471 -1.3764
   32MOL   H31118353   0.840   4.534   2.992  2.5414 -0.6784  0.4643
   32MOL   H31218354   0.905   4.665   2.925  1.3611 -0.2018 -1.1926
   32MOL   H31318355   0.983   4.390   2.837 -0.7998  0.5315  0.7046
   32MOL   H31418356   1.076   4.489   2.937  0.6110  0.7607  0.0298
   32MOL   H31518357   1.005   4.539   2.644 -0.6510  0.8444  0.2462
   32MOL   H31618358   1.099   4.655   2.744 -0.7041  1.3496 -0.4035
   32MOL   H31718359   1.178   4.532   2.497 -0.9536  0.5202  1.0388
   32MOL   H31818360   1.415   4.624   2.601  0.1851  0.7091  2.0808
   32MOL   H31918361   1.366   4.338   2.616 -1.2909  0.5831  0.6987
   32MOL   H32018362   1.438   4.456   2.492 -1.0276  1.1756 -0.2821
   32MOL   C32118363   1.398   4.232   2.379  0.1240  0.2591  0.1030
   32MOL   C32218364   1.349   4.159   2.256 -0.1456  0.1408 -0.2978
   32MOL   O32318365   1.349   4.235   2.141  0.2716 -0.3568 -0.2250
   32MOL   C32418366   1.447   4.044   2.217 -0.1004  0.1795 -0.1395
   32MOL   O32518367   1.382   3.929   2.256 -0.1716  0.3980  0.8539
   32MOL   C32618368   1.439   3.810   2.208  0.5655  0.1331 -0.4127
   32MOL   C32718369   1.326   3.703   2.185  0.0870 -0.4328 -0.2800
   32MOL   C32818370   1.228   3.688   2.304 -0.3173 -0.4544  0.2704
   32MOL   O32918371   1.135   3.585   2.256 -0.0813 -0.1462  0.3326
   32MOL   C33018372   1.075   3.510   2.358  0.0203 -0.1530  0.1445
   32MOL   O33118373   0.981   3.588   2.427 -0.0293  0.8797  0.4867
   32MOL   C33218374   1.015   3.386   2.294  0.3831  0.6356  0.4292
   32MOL   O33318375   1.123   3.300   2.266 -0.1972  0.1098 -0.5094
   32MOL   H33418376   1.409   4.151   2.451 -1.1436  1.0348  1.2053
   32MOL   H33518377   1.491   4.282   2.354  0.2014  0.8381  1.4606
   32MOL   H33618378   1.246   4.125   2.264 -0.0475 -0.5683 -1.8236
   32MOL   H33718379   1.436   4.271   2.139  0.4146 -0.7178 -0.5256
   32MOL   H33818380   1.538   4.057   2.276  0.6123  0.3272 -1.2649
   32MOL   H33918381   1.476   4.048   2.112  1.0219 -0.7109  0.1268
   32MOL   H34018382   1.504   3.779   2.290 -1.3797  1.2679  1.6304
   32MOL   H34118383   1.508   3.812   2.124  2.6398  1.7536  1.2839
   32MOL   H34218384   1.272   3.731   2.094  0.0130 -0.6875 -0.3166
   32MOL   H34318385   1.363   3.604   2.158  1.0406  0.0739 -0.8495
   32MOL   H34418386   1.277   3.660   2.397  0.6731 -0.1999 -0.1669
   32MOL   H34518387   1.169   3.779   2.314  0.8434  0.5843 -1.9210
   32MOL   H34618388   1.147   3.468   2.429  0.6309  0.2525 -0.2284
   32MOL   H34718389   0.909   3.599   2.367 -0.2294  0.4092  0.6304
   32MOL   H34818390   0.955   3.332   2.367  0.6331 -1.7721 -1.0644
   32MOL   H34918391   0.950   3.414   2.210  0.6787 -0.8516 -0.3141
   32MOL   C35018392   1.172   3.298   2.131  0.0638 -0.3230 -0.4957
   32MOL   C35118393   1.275   3.184   2.105  0.2555 -0.0833 -0.5189
   32MOL   O35218394   1.213   3.067   2.080  0.0557 -0.0954  0.0305
   32MOL   C35318395   1.355   3.224   1.975 -0.3808 -0.8174 -0.1702
   32MOL   O35418396   1.406   3.356   1.979 -0.5891 -0.2449 -0.0059
   32MOL   C35518397   1.543   3.354   1.930  0.7573  0.0741 -0.2834
   32MOL   C35618398   1.630   3.477   1.953 -0.1699  0.5679  0.0408
   32MOL   C35718399   1.667   3.496   2.101  0.0924  0.5994 -0.0211
   32MOL   O35818400   1.769   3.411   2.141 -0.0756 -0.3538  0.2520
   32MOL   C35918401   1.761   3.370   2.272 -0.4504 -0.5375  0.0418
   32MOL   O36018402   1.658   3.286   2.292 -0.2625  0.0146  0.0223
   32MOL   C36118403   1.897   3.308   2.316 -0.6882  0.1482  0.2865
   32MOL   O36218404   1.978   3.416   2.364 -0.3146 -0.3765 -0.7186
   32MOL   H36318405   1.218   3.396   2.122 -0.4258 -0.0264  0.1522
   32MOL   H36418406   1.080   3.291   2.073 -0.7656  2.8915  0.3077
   32MOL   H36518407   1.353   3.189   2.181 -0.2556  1.7419 -0.0805
   32MOL   H36618408   1.130   3.074   2.125  0.1690  0.2390  0.1968
   32MOL   H36718409   1.430   3.152   1.943  0.2727  0.6403 -1.9551
   32MOL   H36818410   1.287   3.220   1.890  1.3426  0.8619 -1.6500
   32MOL   H36918411   1.544   3.308   1.831 -0.4897 -0.7526  0.0801
   32MOL   H37018412   1.602   3.277   1.981 -2.1978 -1.3601  1.0479
   32MOL   H37118413   1.569   3.555   1.909 -0.5163  1.0856  1.4155
   32MOL   H37218414   1.717   3.479   1.888 -0.5758  0.4006 -0.5162
   32MOL   H37318415   1.705   3.597   2.112  0.4346  0.5348 -0.5811
   32MOL   H37418416   1.576   3.480   2.158  0.1325 -0.3979 -0.2219
   32MOL   H37518417   1.742   3.455   2.339 -0.0629 -0.1748 -0.3008
   32MOL   H37618418   1.673   3.209   2.238  0.4822  0.5994 -0.6217
   32MOL   H37718419   1.878   3.247   2.405  0.2520 -0.1598  0.2866
   32MOL   H37818420   1.952   3.255   2.238  0.0234 -1.4441  1.8205
   32MOL   C37918421   2.083   3.373   2.441 -0.5889 -0.2670  0.3229
   32MOL   C38018422   2.177   3.494   2.469 -0.5489  0.2795  0.0987
   32MOL   O38118423   2.229   3.473   2.598 -0.0878  0.2668  0.4500
   32MOL   C38218424   2.292   3.486   2.369 -0.3445  0.1560 -0.0682
   32MOL   O38318425   2.376   3.599   2.374  0.0652 -0.2568 -0.1174
   32MOL   C38418426   2.471   3.610   2.478  0.4854 -0.4836 -0.2159
   32MOL   C38518427   2.578   3.714   2.446 -0.7614 -0.0554 -0.0762
   32MOL   C38618428   2.708   3.709   2.524  0.2510  0.6525 -0.3696
   32MOL   O38718429   2.675   3.788   2.636  0.4386  0.3355 -0.4002
   32MOL   C38818430   2.763   3.771   2.745 -0.7180  0.0942  0.2615
   32MOL   O38918431   2.885   3.842   2.730 -0.0044  0.4990  0.6367
   32MOL   C39018432   2.700   3.826   2.866  1.0112 -0.1471 -0.2380
   32MOL   O39118433   2.674   3.959   2.838 -0.0575 -0.0545  0.2530
   32MOL   H39218434   2.130   3.297   2.378  0.5830  0.5110  0.2526
   32MOL   H39318435   2.048   3.322   2.531 -0.5444 -2.3345 -0.7918
   32MOL   H39418436   2.131   3.591   2.450 -0.2352  0.4527  0.2277
   32MOL   H39518437   2.157   3.492   2.657 -1.1824 -0.5275 -0.5787
   32MOL   H39618438   2.351   3.394   2.368 -2.3613 -1.1800 -1.9126
   32MOL   H39718439   2.258   3.479   2.266  0.1623  0.3907 -0.2544
   32MOL   H39818440   2.515   3.511   2.487  0.4526 -0.5659 -0.9839
   32MOL   H39918441   2.415   3.631   2.569  1.2756 -3.7247  1.0767
   32MOL   H40018442   2.539   3.815   2.437  1.8195  1.1671  1.8044
   32MOL   H40118443   2.604   3.695   2.342 -0.9562  0.9250 -0.3048
   32MOL   H40218444   2.735   3.606   2.547 -0.0752  0.2085 -1.9151
   32MOL   H40318445   2.790   3.762   2.476 -0.4050  1.2210 -0.8747
   32MOL   H40418446   2.772   3.664   2.759  1.3899  0.0470 -1.2972
   32MOL   H40518447   2.860   3.933   2.738  0.5991  0.6398  0.9481
   32MOL   H40618448   2.608   3.769   2.879  1.9107 -1.8511 -1.1083
   32MOL   H40718449   2.764   3.798   2.950 -0.7352  0.7312  1.4391
   32MOL   C40818450   2.594   4.023   2.936 -0.4281  0.0090 -0.1909
   32MOL   C40918451   2.595   4.174   2.899 -0.1511 -0.2305 -0.4175
   32MOL   O41018452   2.538   4.235   3.012 -0.2696 -0.0504 -0.4794
   32MOL   C41118453   2.523   4.186   2.769  0.9926 -0.0836 -0.6661
   32MOL   O41218454   2.546   4.311   2.724 -0.2226  0.1983  0.1687
   32MOL   C41318455   2.464   4.346   2.610  0.6430  0.5795 -0.5037
   32MOL   C41418456   2.547   4.345   2.484  0.1929 -0.3279  0.4635
   32MOL   C41518457   2.570   4.205   2.419 -0.5198 -0.2950 -0.3259
   32MOL   O41618458   2.631   4.236   2.298 -0.0437 -0.1127  0.4302
   32MOL   C41718459   2.591   4.161   2.190  0.1890  0.0811  0.4798
   32MOL   O41818460   2.648   4.034   2.189 -0.0989  0.5781 -0.2907
   32MOL   C41918461   2.611   4.235   2.052 -0.1947 -0.1744 -0.1672
   32MOL   O42018462   2.495   4.321   2.023 -0.3374 -0.5115 -0.8325
   32MOL   H42118463   2.625   4.016   3.040  2.6277 -1.1830 -1.1311
   32MOL   H42218464   2.487   3.999   2.937 -1.0719  2.6613 -1.0510
   32MOL   H42318465   2.701   4.202   2.893 -0.6451  1.4849 -1.5958
   32MOL   H42418466   2.446   4.215   3.020 -0.5495  0.9783 -0.9361
   32MOL   H42518467   2.552   4.112   2.694 -0.0066  0.2720 -1.4249
   32MOL   H42618468   2.415   4.185   2.786  0.7467 -1.7804 -2.1239
   32MOL   H42718469   2.365   4.303   2.596  1.0744 -0.8149  0.6642
   32MOL   H42818470   2.437   4.450   2.628 -1.3611  0.0482 -0.3681
   32MOL   H42918471   2.636   4.408   2.489  0.1304 -0.0420 -1.5017
   32MOL   H43018472   2.488   4.399   2.411 -0.6923 -2.1722 -0.2101
   32MOL   H43118473   2.639   4.144   2.477 -1.3801 -1.1762 -0.2297
   32MOL   H43218474   2.478   4.147   2.414 -0.6674 -0.0718 -0.2617
   32MOL   H43318475   2.485   4.142   2.202  0.0055 -0.6147 -1.9349
   32MOL   H43418476   2.741   4.042   2.172 -0.0198 -0.1479 -0.2089
   32MOL   H43518477   2.700   4.293   2.075 -0.3152 -0.6519  1.6613
   32MOL   H43618478   2.635   4.157   1.980  0.7354 -0.9240  0.9417
   32MOL   C43718479   2.516   4.451   2.088 -0.3091 -0.6278 -0.0512
   32MOL   C43818480   2.397   4.546   2.066  0.6511  0.2446 -0.0400
   32MOL   O43918481   2.424   4.646   1.968 -0.2258 -0.0255  0.0831
   32MOL   C44018482   2.352   4.624   2.197  0.0273  0.0341  0.2850
   32MOL   O44118483   2.215   4.659   2.186 -1.0799  0.3095 -0.0215
   32MOL   C44218484   2.163   4.726   2.298  0.3424 -0.0216 -0.5287
   32MOL   C44318485   2.054   4.821   2.264  0.0721 -0.1929 -0.5364
   32MOL   C44418486   2.097   4.957   2.216 -0.7862 -0.1208  0.3531
   32MOL   O44518487   1.975   5.019   2.177 -0.3403 -0.2028  0.4937
   32MOL   C44618488   1.986   5.154   2.141  0.0962 -0.4339 -0.0036
   32MOL   O44718489   2.023   5.236   2.252 -0.3010  0.0021  0.4150
   32MOL   C44818490   1.846   5.184   2.077  1.0086 -0.0793 -0.1039
   32MOL   O44918491   1.873   5.266   1.963  0.1799  0.2732 -0.0023
   32MOL   H45018492   2.529   4.418   2.191 -0.9989  0.9202  0.5326
   32MOL   H45118493   2.601   4.507   2.049  0.5161 -0.7411  1.5534
   32MOL   H45218494   2.319   4.487   2.020  0.3766  1.4135 -1.1149
   32MOL   H45318495   2.343   4.679   1.934 -0.4848  0.6517  1.3267
   32MOL   H45418496   2.361   4.575   2.294  0.5161  1.2863  0.8859
   32MOL   H45518497   2.401   4.720   2.209  2.2448 -0.6897 -2.4256
   32MOL   H45618498   2.249   4.774   2.345  0.0555 -0.2551  0.2297
   32MOL   H45718499   2.130   4.658   2.376 -1.3242 -0.7734 -1.8609
   32MOL   H45818500   1.984   4.846   2.344 -0.0544  0.5132 -0.8632
   32MOL   H45918501   1.992   4.784   2.182 -0.3943 -0.1704 -0.1967
   32MOL   H46018502   2.145   5.016   2.293 -0.2575 -0.1332  0.0359
   32MOL   H46118503   2.169   4.952   2.134 -0.9441  2.0254  0.0510
   32MOL   H46218504   2.069   5.169   2.071  0.1453  1.9919  0.5222
   32MOL   H46318505   1.944   5.244   2.302 -0.7172 -1.0530 -0.0543
   32MOL   H46418506   1.788   5.097   2.048  1.8132 -0.4523 -0.6162
   32MOL   H46518507   1.776   5.236   2.143  0.3380  0.6759 -1.3900
   32MOL   C46618508   1.875   5.200   1.842  0.1400  0.2827 -0.8887
   32MOL   C46718509   1.928   5.284   1.727  0.4085  0.4961  0.4786
   32MOL   O46818510   2.068   5.300   1.757  1.2527  0.1613  0.1651
   32MOL   C46918511   1.912   5.217   1.590 -0.2012  0.7521  0.5733
   32MOL   O47018512   1.926   5.304   1.485 -0.2502 -0.1804 -0.2914
   32MOL   C47118513   1.897   5.244   1.355 -0.2771  0.7467 -0.0587
   32MOL   C47218514   1.745   5.250   1.319  0.0605 -0.5418  0.0719
   32MOL   C47318515   1.716   5.214   1.171 -1.0313 -0.1203 -0.4854
   32MOL   O47418516   1.679   5.079   1.181 -0.1075 -0.1227 -0.2360
   32MOL   C47518517   1.613   5.029   1.074  0.2173  0.0544 -0.8555
   32MOL   O47618518   1.483   5.074   1.057  0.2665 -0.0688  0.5461
   32MOL   C47718519   1.600   4.874   1.101  0.3163 -0.9563  0.5442
   32MOL   O47818520   1.717   4.804   1.064  0.5425 -0.1237  0.1857
   32MOL   H47918521   1.773   5.168   1.826 -0.3015  0.9626  0.4560
   32MOL   H48018522   1.942   5.115   1.850 -2.7710 -1.9803  0.1941
   32MOL   H48118523   1.879   5.381   1.734  1.0417  0.7919  0.9785
   32MOL   H48218524   2.071   5.359   1.831 -0.4489  1.3812 -0.6971
   32MOL   H48318525   1.982   5.133   1.588 -3.3872 -2.0097  0.5751
   32MOL   H48418526   1.815   5.167   1.590  0.6575 -0.9757 -0.4253
   32MOL   H48518527   1.933   5.141   1.351 -0.5041  0.7012 -1.0170
   32MOL   H48618528   1.949   5.304   1.280  0.4564  0.5586  0.2858
   32MOL   H48718529   1.703   5.347   1.346  0.9798  0.3100 -1.4959
   32MOL   H48818530   1.689   5.186   1.387 -0.4935 -0.5590 -0.3991
   32MOL   H48918531   1.630   5.258   1.121 -1.3867 -0.5997 -0.3005
   32MOL   H49018532   1.807   5.230   1.113  0.3634  1.2926  2.0291
   32MOL   H49118533   1.665   5.045   0.980 -0.2865  1.0928 -0.9665
   32MOL   H49218534   1.438   5.080   1.140 -2.6199 -2.7619 -0.7160
   32MOL   H49318535   1.556   4.853   1.198 -0.8929 -2.0490 -0.2309
   32MOL   H49418536   1.537   4.843   1.018  1.2559 -1.0468 -0.1441
   32MOL   C49518537   1.719   4.669   1.102 -0.2184 -0.0260 -0.3979
   32MOL   C49618538   1.740   4.646   1.256 -0.5662  0.3381  0.0634
   32MOL   O49718539   1.624   4.658   1.325  0.2165  0.3797  0.4140
   32MOL   C49818540   1.778   4.506   1.287 -0.2937  0.2023 -0.1084
   32MOL   O49918541   1.788   4.479   1.427  0.0351 -0.6945 -0.4223
   32MOL   C50018542   1.803   4.341   1.452 -0.7093  0.4940  0.1322
   32MOL   C50118543   1.828   4.313   1.600 -0.1007 -1.1308 -0.5270
   32MOL   C50218544   1.963   4.360   1.659  0.0122 -0.9074  0.1276
   32MOL   O50318545   1.952   4.334   1.804 -0.1225  0.4415  0.5114
   32MOL   C50418546   2.041   4.394   1.895  0.5988 -0.0937  0.6586
   32MOL   O50518547   2.164   4.326   1.884 -0.1783  0.2723 -0.1095
   32MOL   C50618548   1.984   4.376   2.037  0.3842  0.3938 -0.1331
   32MOL   O50718549   1.855   4.439   2.053  0.0628  0.3935 -0.1998
   32MOL   H50818550   1.814   4.636   1.059  0.5144  1.5701 -0.0086
   32MOL   H50918551   1.634   4.625   1.050  1.0149 -0.4915 -2.0888
   32MOL   H51018552   1.814   4.713   1.300 -0.0083  0.4846 -1.0681
   32MOL   H51118553   1.626   4.595   1.396 -1.1833 -0.9192 -0.6895
   32MOL   H51218554   1.704   4.441   1.241  1.0865 -1.0096 -0.6379
   32MOL   H51318555   1.871   4.489   1.232 -0.8878 -0.2790 -0.9717
   32MOL   H51418556   1.885   4.294   1.396 -1.5819  0.2111 -0.9403
   32MOL   H51518557   1.709   4.297   1.419 -0.3119  0.0130 -0.3750
   32MOL   H51618558   1.827   4.206   1.618 -1.0671 -1.4194 -2.1487
   32MOL   H51718559   1.751   4.361   1.661  2.3835 -0.6625  2.3278
   32MOL   H51818560   2.051   4.302   1.629  0.0130  0.3435 -2.4040
   32MOL   H51918561   1.990   4.465   1.649 -3.2049 -0.1201 -0.6442
   32MOL   H52018562   2.049   4.499   1.866  2.7407 -0.5051 -0.3043
   32MOL   H52118563   2.158   4.256   1.947  0.9071 -1.4202 -1.8203
   32MOL   H52218564   1.981   4.269   2.059  1.3691  0.6686  1.4137
   32MOL   H52318565   2.060   4.416   2.105  1.5616 -1.0505 -0.5744
   32MOL   C52418566   1.804   4.426   2.192  0.9592  0.1864  0.1592
   32MOL   C52518567   1.654   4.454   2.205 -0.1306 -0.3126 -0.1989
   32MOL   O52618568   1.578   4.368   2.125  0.5874  0.2667  0.0009
   32MOL   C52718569   1.622   4.596   2.176 -0.4008 -0.0184 -0.0675
   32MOL   O52818570   1.621   4.669   2.297  0.0995 -0.3657 -0.2797
   32MOL   C52918571   1.609   4.808   2.264  0.2002  0.0635 -0.0254
   32MOL   C53018572   1.578   4.898   2.389  0.7292 -0.2947  0.1486
   32MOL   C53118573   1.672   5.015   2.387 -1.0770 -0.1863  0.5049
   32MOL   O53218574   1.650   5.101   2.502 -0.0278 -0.1440 -0.2756
   32MOL   C53318575   1.761   5.175   2.542  0.5663  0.1645 -0.2850
   32MOL   O53418576   1.809   5.267   2.442 -0.0062 -0.1887 -0.2752
   32MOL   C53518577   1.724   5.257   2.667  0.2806 -0.1323  0.2120
   32MOL   O53618578   1.623   5.352   2.631 -0.3251  0.9583 -0.1703
   32MOL   H53718579   1.868   4.484   2.259  0.6421  0.7224 -0.0014
   32MOL   H53818580   1.817   4.323   2.225 -0.1170  0.5345  1.6871
   32MOL   H53918581   1.640   4.437   2.312  0.9307  1.7438  0.2921
   32MOL   H54018582   1.593   4.389   2.034 -0.3027 -2.5576 -0.8630
   32MOL   H54118583   1.679   4.642   2.096 -0.4108  3.3506  1.7633
   32MOL   H54218584   1.521   4.608   2.137  0.2361  2.3397 -1.0645
   32MOL   H54318585   1.523   4.815   2.198 -0.0593 -1.1114  0.1768
   32MOL   H54418586   1.696   4.848   2.211  0.5647  1.0090  1.2488
   32MOL   H54518587   1.589   4.842   2.482 -0.9929  1.0930  1.2232
   32MOL   H54618588   1.474   4.929   2.400  0.8986  0.5400 -0.6759
   32MOL   H54718589   1.771   4.971   2.398  0.4664  3.1604  0.7047
   32MOL   H54818590   1.667   5.077   2.298  1.7210  0.7554  0.9516
   32MOL   H54918591   1.837   5.104   2.575  0.5994 -0.9673 -2.7048
   32MOL   H55018592   1.737   5.326   2.424 -0.5075 -0.9241 -0.7124
   32MOL   H55118593   1.676   5.195   2.742  1.0481 -3.4354 -1.9228
   32MOL   H55218594   1.812   5.312   2.702 -1.0612  2.9784 -1.1527
   32MOL   C55318595   1.576   5.438   2.739 -0.0524  0.5794 -0.1560
   32MOL   C55418596   1.466   5.365   2.829  0.2199  0.1141  0.7674
   32MOL   O55518597   1.349   5.370   2.759  0.3192 -0.4080  0.7126
   32MOL   C55618598   1.439   5.442   2.958  0.3190  0.0819 -0.4484
   32MOL   O55718599   1.545   5.433   3.056  1.1265 -0.1655  0.2553
   32MOL   C55818600   1.528   5.510   3.178 -0.1771 -0.4075 -0.3031
   32MOL   C55918601   1.620   5.473   3.288 -0.2836  0.5177  0.2300
   32MOL   C56018602   1.593   5.341   3.366 -0.0555 -0.5906 -0.2141
   32MOL   O56118603   1.594   5.234   3.276 -0.3376  0.1299 -0.2356
   32MOL   C56218604   1.583   5.103   3.330  0.4420 -0.1926  0.2518
   32MOL   O56318605   1.464   5.086   3.402  0.0333 -0.1609  0.0426
   32MOL   C56418606   1.590   5.009   3.217 -0.4795  0.1496 -0.2184
   32MOL   O56518607   1.476   5.051   3.140  0.1879  0.1856  0.0449
   32MOL   H56618608   1.531   5.522   2.687 -0.3201  0.9485  0.6619
   32MOL   H56718609   1.667   5.466   2.793  0.6347 -0.7284 -0.5963
   32MOL   H56818610   1.481   5.260   2.852  0.3969 -0.1433 -0.4630
   32MOL   H56918611   1.355   5.297   2.700  1.5125 -1.4881  2.1038
   32MOL   H57018612   1.412   5.542   2.926 -0.3018  0.7060  1.9292
   32MOL   H57118613   1.349   5.407   3.009 -0.8491  0.9434 -1.8849
   32MOL   H57218614   1.540   5.616   3.155 -2.3299 -0.0626  0.0138
   32MOL   H57318615   1.423   5.494   3.203 -0.5636  0.8646 -1.0649
   32MOL   H57418616   1.609   5.558   3.355 -1.0862  2.0211 -1.7777
   32MOL   H57518617   1.721   5.460   3.250  0.3875  0.1982  2.0793
   32MOL   H57618618   1.668   5.335   3.445  0.7699 -2.0430 -1.0708
   32MOL   H57718619   1.499   5.358   3.417  1.3458 -0.9730  2.6012
   32MOL   H57818620   1.661   5.092   3.405 -0.5883 -1.0510  1.2009
   32MOL   H57918621   1.395   5.078   3.338  0.4439  0.6271 -0.5042
   32MOL   H58018622   1.688   5.020   3.171  0.0905  0.2442  0.9869
   32MOL   H58118623   1.590   4.906   3.254 -3.1704 -0.2072 -1.0857
   32MOL   H58218624   1.483   5.145   3.129  0.1047  0.0375 -1.5003
   33MOL     C118625   7.007   6.519   1.281  0.0996 -0.6014  0.2795
   33MOL     C218626   6.890   6.623   1.257  0.2273 -0.4792 -0.0652
   33MOL     O318627   6.815   6.629   1.377 -0.4986  0.1818  0.1272
   33MOL     C418628   6.947   6.758   1.222 -0.3653 -0.5623 -0.0410
   33MOL     O518629   7.031   6.753   1.103 -0.1370  0.2645 -0.0977
   33MOL     C618630   7.109   6.866   1.083  0.5010  0.1237  0.6714
   33MOL     C718631   7.182   6.853   0.948 -0.4915 -0.2246  0.3134
   33MOL     C818632   7.272   6.977   0.933  0.4406 -0.7947 -0.8900
   33MOL     O918633   7.200   7.090   0.873 -0.1044 -0.0001  0.0677
   33MOL    C1018634   7.275   7.203   0.848  0.1389  0.2754 -0.1609
   33MOL    O1118635   7.288   7.280   0.957  0.5509 -0.3492 -0.2060
   33MOL    C1218636   7.217   7.290   0.733  1.2737  0.5022  0.2052
   33MOL    O1318637   7.102   7.349   0.780 -0.1187  0.1825  0.0019
   33MOL    H1418638   7.046   6.504   1.181 -0.3176  1.4463 -0.2278
   33MOL    H1518639   6.970   6.422   1.314  0.7810 -1.0188 -0.1850
   33MOL    H1618640   6.827   6.585   1.176 -0.2102  1.9501 -0.8992
   33MOL    H1718641   6.722   6.631   1.358 -0.0020  1.1074 -2.3689
   33MOL    H1818642   6.862   6.824   1.208 -1.7988 -2.8083 -2.4570
   33MOL    H1918643   7.000   6.801   1.308  1.6890 -2.8170 -0.1090
   33MOL    H2018644   7.178   6.893   1.163  0.9133  0.0856  0.3301
   33MOL    H2118645   7.035   6.946   1.074 -1.4691 -1.5565  1.6274
   33MOL    H2218646   7.115   6.854   0.862 -0.2427 -0.1194  0.1205
   33MOL    H2318647   7.242   6.763   0.946 -1.1595 -0.7515  2.4763
   33MOL    H2418648   7.312   6.996   1.032  0.4578 -0.2928 -0.9950
   33MOL    H2518649   7.343   6.948   0.855  2.5482 -2.4938  1.5855
   33MOL    H2618650   7.372   7.167   0.811 -0.3790 -2.7030  1.2211
   33MOL    H2718651   7.209   7.331   0.949 -0.1630 -1.3897  0.0394
   33MOL    H2818652   7.295   7.359   0.702  1.2626 -0.7584 -2.7162
   33MOL    H2918653   7.189   7.227   0.649  2.3402 -0.8651  0.8570
   33MOL    H3018654   7.079   6.556   1.354  0.9941 -1.7151 -0.0330
   33MOL    C3118655   7.076   7.476   0.722  0.2957  0.5671 -0.4607
   33MOL    C3218656   6.998   7.448   0.595  0.2060 -0.4517  0.2647
   33MOL    O3318657   7.069   7.429   0.472  0.1748 -0.1921  0.0376
   33MOL    C3418658   6.900   7.571   0.567  0.8770  0.4633  0.1190
   33MOL    O3518659   6.989   7.680   0.568  0.1922  0.1046  0.2155
   33MOL    C3618660   6.919   0.103   0.557 -0.2244 -0.3449  0.2666
   33MOL    C3718661   6.978   0.209   0.654  0.1239  1.1423  0.0445
   33MOL    C3818662   7.126   0.231   0.640 -0.4127 -0.3624 -0.0860
   33MOL    O3918663   7.165   0.312   0.746 -0.0191  0.1807 -0.6439
   33MOL    C4018664   7.271   0.391   0.717 -0.5973  0.6134 -0.1734
   33MOL    O4118665   7.381   0.319   0.662  0.1232 -0.2847 -0.4682
   33MOL    C4218666   7.309   0.456   0.855  0.1233 -0.0467  0.1139
   33MOL    O4318667   7.296   0.363   0.966  0.0566  0.1039 -0.2927
   33MOL    H4418668   7.013   7.517   0.801 -0.4504 -1.1103 -0.1486
   33MOL    H4518669   7.171   7.529   0.724  1.5268 -1.5901 -0.7058
   33MOL    H4618670   6.925   7.368   0.601 -1.2191  0.7964 -0.2211
   33MOL    H4718671   7.063   7.507   0.420 -0.8263  2.0306  3.2725
   33MOL    H4818672   6.847   7.570   0.472 -0.7504  0.9626  0.9977
   33MOL    H4918673   6.821   7.581   0.642  2.5518  1.4532  1.7926
   33MOL    H5018674   6.810   0.099   0.558 -0.2258 -3.1386 -2.6392
   33MOL    H5118675   6.934   0.147   0.458  3.1810 -1.5147  0.2123
   33MOL    H5218676   6.962   0.173   0.755  1.6646  1.3078  0.3606
   33MOL    H5318677   6.927   0.306   0.645  0.0580  1.2035  1.1207
   33MOL    H5418678   7.189   0.145   0.663  0.8987  0.0008 -2.2404
   33MOL    H5518679   7.158   0.274   0.545 -0.7103 -0.8165 -0.3933
   33MOL    H5618680   7.232   0.464   0.647  0.5119 -0.5028 -1.9994
   33MOL    H5718681   7.395   0.246   0.719  0.2732  1.3670  1.6685
   33MOL    H5818682   7.404   0.509   0.863 -0.0182 -0.1920  3.4308
   33MOL    H5918683   7.240   0.538   0.874 -0.5558 -0.5584 -0.1493
   33MOL    C6018684   7.417   0.308   1.020  0.2435 -0.1599  0.1751
   33MOL    C6118685   7.392   0.191   1.116 -0.2533 -0.0016 -0.4656
   33MOL    O6218686   7.328   0.248   1.233 -0.5639  0.4420  0.3486
   33MOL    C6318687   7.524   0.118   1.151 -0.4046  0.0302  0.5804
   33MOL    O6418688   7.569   0.036   1.039  0.1796 -0.2807  0.2609
   33MOL    C6518689   7.494   7.608   1.044  0.1365 -0.6977  0.1325
   33MOL    C6618690   7.558   7.516   0.941  0.3082 -0.4002 -0.1544
   33MOL    C6718691   7.519   7.535   0.791  0.4497  0.6583  0.4960
   33MOL    O6818692   7.595   7.452   0.713  0.3198 -1.0439  0.5219
   33MOL    C6918693   7.564   7.465   0.578 -0.4445  0.4475 -0.0726
   33MOL    O7018694   7.609   7.583   0.521 -0.3569 -0.8559 -0.0532
   33MOL    C7118695   7.632   7.351   0.503  0.1517  0.5055 -0.1955
   33MOL    O7218696   0.079   7.367   0.512 -0.4555 -0.1840 -0.0726
   33MOL    H7318697   7.483   0.384   1.062 -1.2854 -0.1193  2.5690
   33MOL    H7418698   7.465   0.256   0.937  1.2062  0.5985  0.2511
   33MOL    H7518699   7.328   0.120   1.064 -0.8754 -0.2738  0.6682
   33MOL    H7618700   7.251   0.294   1.203  0.5321  1.4285 -1.0532
   33MOL    H7718701   7.597   0.198   1.165  0.7391 -0.6470 -1.2263
   33MOL    H7818702   7.499   0.059   1.239  3.1194 -1.8337  0.4515
   33MOL    H7918703   7.390   7.622   1.015  0.7591  2.7700 -0.6980
   33MOL    H8018704   7.505   7.556   1.139  0.4614 -1.0382 -0.0919
   33MOL    H8118705   7.523   7.415   0.961 -0.1856 -0.2736 -0.3937
   33MOL    H8218706   7.666   7.521   0.954  0.0471  2.7689  1.2257
   33MOL    H8318707   7.523   7.643   0.773 -0.7729  0.5875 -0.3205
   33MOL    H8418708   7.413   7.508   0.787  1.1233 -2.4588  2.2764
   33MOL    H8518709   7.456   7.452   0.565 -0.2641 -2.1167  0.6686
   33MOL    H8618710   0.008   7.573   0.516 -0.2586 -0.8355  1.3767
   33MOL    H8718711   7.597   7.260   0.551 -1.1111  0.8004 -0.5322
   33MOL    H8818712   7.605   7.344   0.398  0.3598 -0.6305 -0.1802
   33MOL    C8918713   0.152   7.374   0.389 -0.5689  0.5096  0.0155
   33MOL    C9018714   0.157   7.230   0.323  1.0616 -0.6173  0.0956
   33MOL    O9118715   0.164   7.243   0.182 -0.6171  0.1857 -0.3321
   33MOL    C9218716   0.271   7.151   0.383 -0.1551 -0.1798 -0.5912
   33MOL    O9318717   0.243   7.017   0.341 -0.0243 -0.2189 -0.4303
   33MOL    C9418718   0.307   6.917   0.420 -0.4089 -0.0085  0.1761
   33MOL    C9518719   0.259   6.787   0.358 -0.2006 -0.0098  0.5730
   33MOL    C9618720   0.103   6.786   0.343  0.7569  0.5499 -0.0015
   33MOL    O9718721   0.053   6.671   0.282 -1.0424  0.3328 -0.5841
   33MOL    C9818722   7.608   6.646   0.291  0.0165 -0.1951 -0.2590
   33MOL    O9918723   7.553   6.758   0.216 -0.0161  0.4107  0.3509
   33MOL   C10018724   7.575   6.508   0.252 -0.1635  0.3716 -0.8761
   33MOL   O10118725   7.546   6.429   0.367 -0.0298  0.2637  0.4838
   33MOL   H10218726   0.255   7.408   0.402  0.2127 -1.6402 -0.2968
   33MOL   H10318727   0.107   7.445   0.320 -1.3278  0.9360  0.9453
   33MOL   H10418728   0.064   7.176   0.340 -0.0928  0.8034 -1.4931
   33MOL   H10518729   0.126   7.168   0.139  0.0659 -0.7505  0.6620
   33MOL   H10618730   0.370   7.178   0.347 -1.2997  2.8555 -1.6687
   33MOL   H10718731   0.274   7.155   0.492  1.1084  0.2259 -0.6339
   33MOL   H10818732   0.279   6.935   0.524 -0.3811  1.0775 -0.0010
   33MOL   H10918733   0.415   6.929   0.416 -0.4469  0.8290  1.5134
   33MOL   H11018734   0.287   6.703   0.422  1.5580  1.2792  1.5300
   33MOL   H11118735   0.305   6.764   0.262  1.5433  1.7000  0.9643
   33MOL   H11218736   0.053   6.789   0.440 -0.5651  1.6802 -0.7065
   33MOL   H11318737   0.069   6.870   0.282 -3.0644 -0.5331  0.5431
   33MOL   H11418738   7.579   6.647   0.396 -0.8466  0.1042 -0.4980
   33MOL   H11518739   7.475   6.727   0.172 -0.6008 -0.2034  1.7700
   33MOL   H11618740   7.482   6.518   0.197 -1.1946  0.0358  0.7583
   33MOL   H11718741   7.631   6.455   0.176  0.0072  0.0226 -0.5119
   33MOL   C11818742   7.474   6.299   0.333 -0.7610 -0.0370  0.0790
   33MOL   C11918743   7.418   6.237   0.470 -0.7404 -0.0874 -0.2861
   33MOL   O12018744   7.302   6.305   0.514 -0.5480  0.3189 -0.7980
   33MOL   C12118745   7.531   6.223   0.574 -0.2739 -0.0999 -0.0004
   33MOL   O12218746   7.507   6.121   0.661 -0.0987  0.2210  0.0000
   33MOL   C12318747   7.615   6.097   0.756 -0.3892 -0.0910 -0.2748
   33MOL   C12418748   7.684   5.964   0.715  0.3687 -0.1370 -0.4336
   33MOL   C12518749   0.103   5.930   0.813 -1.0069 -1.1997 -0.6225
   33MOL   O12618750   0.199   5.852   0.746  0.2320  0.2808 -0.2515
   33MOL   C12718751   0.268   5.776   0.835 -0.3419 -0.3086  1.2573
   33MOL   O12818752   0.334   5.851   0.934 -0.2796  0.1625 -0.2763
   33MOL   C12918753   0.372   5.702   0.749  0.6602 -0.2452 -0.1786
   33MOL   O13018754   0.428   5.793   0.658  0.1203  0.5535  0.0423
   33MOL   H13118755   7.392   6.317   0.263  0.3688 -0.0223 -1.2659
   33MOL   H13218756   7.549   6.232   0.291 -1.8102 -1.0391 -0.2254
   33MOL   H13318757   7.387   6.135   0.449  2.6752 -1.2463  0.0586
   33MOL   H13418758   7.268   6.261   0.590 -1.1349 -0.5100 -1.5369
   33MOL   H13518759   7.616   6.189   0.515  0.3217  2.1712 -0.4977
   33MOL   H13618760   7.560   6.318   0.620  0.4782 -0.2474 -0.1699
   33MOL   H13718761   7.563   6.087   0.851  0.5528  0.1375  0.2619
   33MOL   H13818762   7.682   6.180   0.777 -1.9801  0.5351  2.5372
   33MOL   H13918763   0.038   5.977   0.618 -0.3473  0.3844 -0.7242
   33MOL   H14018764   7.614   5.880   0.717  0.2030  0.0183  0.9930
   33MOL   H14118765   0.145   6.026   0.845 -1.7114 -1.2022  0.3519
   33MOL   H14218766   0.047   5.890   0.897  0.2110 -0.2408  0.6900
   33MOL   H14318767   0.195   5.713   0.885 -1.6273 -0.5395 -0.8412
   33MOL   H14418768   0.406   5.900   0.897 -0.2791  0.7496  0.4730
   33MOL   H14518769   0.444   5.666   0.822 -0.7672  1.6924  2.2662
   33MOL   H14618770   0.328   5.614   0.702  0.9870  0.1234 -1.2091
   33MOL   C14718771   0.551   5.750   0.598 -0.1717  1.0364 -0.3147
   33MOL   C14818772   0.673   5.776   0.696  0.0335  0.7356  0.3570
   33MOL   O14918773   0.687   5.914   0.687  0.0120 -0.6123  0.7273
   33MOL   C15018774   0.805   5.708   0.657 -0.3681  0.5592 -0.4981
   33MOL   O15118775   0.791   5.571   0.714  0.4860  0.1153  0.3570
   33MOL   C15218776   0.916   5.506   0.730 -0.0228  0.6539 -0.4382
   33MOL   C15318777   0.973   5.552   0.866 -0.4041 -0.7051 -0.8487
   33MOL   C15418778   1.110   5.486   0.893  0.4627  0.2352  0.2658
   33MOL   O15518779   1.171   5.510   1.015  1.1094  0.5817  0.5620
   33MOL   C15618780   1.283   5.431   1.043 -0.3387  0.4138  0.0611
   33MOL   O15718781   1.244   5.310   1.091 -0.1154 -0.0254 -0.1424
   33MOL   C15818782   1.372   5.501   1.144  0.5466 -1.6162  0.3194
   33MOL   O15918783   1.290   5.543   1.255 -0.1177 -0.2693  0.0198
   33MOL   H16018784   0.564   5.794   0.499  0.1565 -0.1658 -0.8113
   33MOL   H16118785   0.557   5.641   0.593 -0.6705  0.9148  1.6705
   33MOL   H16218786   0.642   5.750   0.797  0.7489  2.2872  0.9920
   33MOL   H16318787   0.618   5.948   0.742 -0.5551 -1.7979  0.7552
   33MOL   H16418788   0.824   5.700   0.550  3.8899 -0.6219  0.2750
   33MOL   H16518789   0.895   5.751   0.701  0.0009 -2.2016  1.5785
   33MOL   H16618790   0.992   5.529   0.656  0.2371  0.6326 -0.1790
   33MOL   H16718791   0.886   5.401   0.723  0.8346  0.3075  0.8595
   33MOL   H16818792   0.902   5.529   0.945  0.1554  0.4552  0.0088
   33MOL   H16918793   0.980   5.661   0.874  0.2976 -0.7568 -0.7028
   33MOL   H17018794   1.098   5.378   0.883 -0.4057  0.3560 -0.0424
   33MOL   H17118795   1.171   5.520   0.809  0.2505 -0.2771 -0.0965
   33MOL   H17218796   1.346   5.409   0.957 -0.2279 -0.1937  0.2982
   33MOL   H17318797   1.186   5.334   1.162  1.0410 -0.3042  0.9007
   33MOL   H17418798   1.439   5.427   1.188  3.1891  0.2312 -0.4942
   33MOL   H17518799   1.437   5.577   1.101 -1.6407  0.4043  0.4637
   33MOL   C17618800   1.337   5.659   1.319  0.5886  0.4599  0.0477
   33MOL   C17718801   1.258   5.691   1.450  0.4429  0.0313  0.2947
   33MOL   O17818802   1.120   5.710   1.412  0.2647 -0.4399 -0.5679
   33MOL   C17918803   1.316   5.811   1.530 -0.0150 -0.5321  0.4691
   33MOL   O18018804   1.442   5.774   1.585  0.4255 -0.0356  0.4107
   33MOL   C18118805   1.516   5.884   1.633  0.2038 -0.5529  0.5272
   33MOL   C18218806   1.446   5.963   1.748  0.3745  0.6418  0.1462
   33MOL   C18318807   1.541   6.070   1.798  0.4089  0.4514 -0.1999
   33MOL   O18418808   1.646   6.009   1.866  0.1946  0.1092 -0.0904
   33MOL   C18518809   1.767   6.081   1.880  0.4399 -0.0100 -0.1606
   33MOL   O18618810   1.843   6.083   1.761 -0.9896  1.3162 -0.0104
   33MOL   C18718811   1.860   6.028   1.997 -0.2166  0.2354  0.6321
   33MOL   O18818812   1.846   6.089   2.121 -0.0860 -0.7866 -0.6095
   33MOL   H18918813   1.340   5.746   1.254 -1.4555  0.7119  0.2497
   33MOL   H19018814   1.439   5.659   1.359  1.0426  3.3909 -1.0728
   33MOL   H19118815   1.272   5.611   1.523  0.2485 -0.0597  0.2321
   33MOL   H19218816   1.093   5.631   1.368  1.8052 -1.0031 -0.5277
   33MOL   H19318817   1.332   5.897   1.465 -0.5879 -1.4287 -0.8972
   33MOL   H19418818   1.246   5.837   1.609 -0.8691  3.1128 -1.3684
   33MOL   H19518819   1.538   5.951   1.550 -0.6067  0.1600  0.8830
   33MOL   H19618820   1.615   5.853   1.666  0.5998  1.9200  1.8051
   33MOL   H19718821   1.414   5.902   1.832  3.0705 -3.2403 -1.4762
   33MOL   H19818822   1.360   6.021   1.713 -1.0213 -1.0725  0.6715
   33MOL   H19918823   1.574   6.132   1.714 -0.4389  0.1076 -0.7959
   33MOL   H20018824   1.483   6.134   1.864 -1.2283  1.2212 -2.3031
   33MOL   H20118825   1.732   6.180   1.909  0.3089  0.1984 -1.0161
   33MOL   H20218826   1.862   5.993   1.740 -0.6991  1.3009  0.3373
   33MOL   H20318827   1.835   5.922   1.998 -1.0435  0.3969 -1.0139
   33MOL   H20418828   1.963   6.038   1.962  0.1227 -1.9669  0.9531
   33MOL   C20518829   1.906   6.025   2.229 -0.0732 -0.1983 -0.3354
   33MOL   C20618830   1.867   6.074   2.369  0.2833 -0.7031 -0.2987
   33MOL   O20718831   1.744   6.011   2.400  0.0303  0.1644 -0.8722
   33MOL   C20818832   1.966   6.042   2.480 -0.0394  0.9961 -0.1605
   33MOL   O20918833   2.099   6.103   2.470  0.4464  0.0895  0.1935
   33MOL   C21018834   2.188   6.058   2.568 -0.2009  0.3262  0.0840
   33MOL   C21118835   2.222   5.909   2.549  0.2965 -0.6598  0.0175
   33MOL   C21218836   2.279   5.861   2.417  0.2209 -0.5739  0.3520
   33MOL   O21318837   2.302   5.719   2.406  0.2249  0.2067  0.1177
   33MOL   C21418838   2.398   5.681   2.308 -0.4064 -0.0911 -0.3381
   33MOL   O21518839   2.355   5.679   2.177 -0.0382 -0.1403 -0.0423
   33MOL   C21618840   2.451   5.540   2.343  0.1759 -0.2861  0.2577
   33MOL   O21718841   2.552   5.553   2.439  0.1978  0.0441 -0.0558
   33MOL   H21818842   2.012   6.043   2.211 -0.3504  1.2078 -0.5851
   33MOL   H21918843   1.889   5.917   2.220 -0.6337 -0.0121 -1.5391
   33MOL   H22018844   1.859   6.182   2.365  0.4724 -0.7099 -0.9563
   33MOL   H22118845   1.747   5.917   2.394  0.2274  0.0421  0.8634
   33MOL   H22218846   1.918   6.061   2.576 -1.0463 -0.3240 -0.3845
   33MOL   H22318847   1.979   5.935   2.464 -1.1255  1.0180 -1.3224
   33MOL   H22418848   2.154   6.082   2.669 -0.3146  0.3887  0.0312
   33MOL   H22518849   2.281   6.109   2.542 -0.2548  1.0355  1.2479
   33MOL   H22618850   2.132   5.852   2.574  0.4572  0.2020  2.7103
   33MOL   H22718851   2.296   5.884   2.626  0.0692  1.8111  1.0768
   33MOL   H22818852   2.229   5.896   2.327 -0.8994 -0.3514  1.0478
   33MOL   H22918853   2.375   5.910   2.405 -0.1209  0.7282  2.5690
   33MOL   H23018854   2.478   5.754   2.314 -0.4495 -0.0199 -0.6501
   33MOL   H23118855   2.436   5.685   2.130  0.3283 -2.4744  0.2304
   33MOL   H23218856   2.363   5.483   2.375 -1.5832  2.2607  0.0974
   33MOL   H23318857   2.475   5.495   2.247 -0.9650 -1.1148  0.3444
   33MOL   C23418858   2.644   5.439   2.450 -0.5630 -0.2912 -0.1058
   33MOL   C23518859   2.772   5.471   2.370  0.3071  0.1427  0.1633
   33MOL   O23618860   2.846   5.345   2.358 -0.0922 -0.0631  0.2187
   33MOL   C23718861   2.859   5.583   2.431  0.7436 -0.3678 -0.2083
   33MOL   O23818862   2.934   5.630   2.317 -0.1034  0.1606 -0.2863
   33MOL   C23918863   3.022   5.742   2.341  0.4856 -0.1067 -0.0972
   33MOL   C24018864   3.144   5.700   2.423 -0.2473  0.5169  0.2991
   33MOL   C24118865   3.203   5.581   2.357 -0.2710 -0.1803  0.0580
   33MOL   O24218866   3.324   5.546   2.426  1.0503 -0.1165  0.0056
   33MOL   C24318867   3.383   5.426   2.380  0.2574  0.7192  0.1441
   33MOL   O24418868   3.292   5.320   2.385  0.0534  0.0080  0.4529
   33MOL   C24518869   3.499   5.393   2.473  0.3000 -0.5682 -0.1299
   33MOL   O24618870   3.612   5.469   2.420  0.0199 -0.2101 -0.0905
   33MOL   H24718871   2.657   5.410   2.555  0.3768 -0.4653 -0.2682
   33MOL   H24818872   2.598   5.351   2.405  0.3848 -0.9036  0.1083
   33MOL   H24918873   2.740   5.496   2.269  0.6884  3.1863  0.7494
   33MOL   H25018874   2.909   5.330   2.427  0.6702  3.0094  0.2587
   33MOL   H25118875   2.796   5.663   2.468 -1.9976 -3.6471  2.5564
   33MOL   H25218876   2.916   5.554   2.520 -0.6386  2.6334  1.7412
   33MOL   H25318877   2.960   5.817   2.390 -0.6337  0.4240 -2.2564
   33MOL   H25418878   3.052   5.783   2.245  2.7606 -1.1635  0.1384
   33MOL   H25518879   3.112   5.682   2.525  0.2376  1.0780  0.5562
   33MOL   H25618880   3.219   5.779   2.426  0.3082  0.0197 -0.3160
   33MOL   H25718881   3.131   5.499   2.362 -1.2843  0.5333 -1.8560
   33MOL   H25818882   3.223   5.600   2.251 -1.0702 -1.4400 -0.3321
   33MOL   H25918883   3.425   5.435   2.279 -0.6139  1.1061 -0.1870
   33MOL   H26018884   3.281   5.304   2.292 -0.4588 -0.8662  0.6558
   33MOL   H26118885   3.463   5.420   2.572 -0.8740 -0.8696 -0.4636
   33MOL   H26218886   3.515   5.285   2.469 -1.0292 -0.8388  1.2364
   33MOL   C26318887   3.633   5.595   2.485  0.5347  0.2838 -0.1828
   33MOL   C26418888   3.696   5.599   2.627 -0.4217 -0.3318 -1.0941
   33MOL   O26518889   3.830   5.550   2.613  0.0723  0.3663 -0.0113
   33MOL   C26618890   3.684   5.743   2.693 -0.7571  0.0826  0.0055
   33MOL   O26718891   3.550   5.756   2.746 -0.2125  0.9153  0.0240
   33MOL   C26818892   3.494   5.883   2.740  1.1519 -0.0427 -0.7089
   33MOL   C26918893   3.352   5.851   2.717 -0.2326  0.2191  0.5179
   33MOL   C27018894   3.265   5.971   2.717  0.4342  0.1339 -0.1503
   33MOL   O27118895   3.130   5.949   2.661 -0.0160  0.1856 -0.1316
   33MOL   C27218896   3.033   6.039   2.706 -0.6345 -0.1592 -0.9040
   33MOL   O27318897   3.037   6.160   2.635  0.4658 -0.2219  0.6597
   33MOL   C27418898   2.898   5.977   2.673  0.1545  1.0403 -0.0016
   33MOL   O27518899   2.884   5.975   2.533 -0.0871 -0.7000 -0.4070
   33MOL   H27618900   3.542   5.654   2.485 -0.7089 -1.5956 -1.5637
   33MOL   H27718901   3.710   5.646   2.427  0.7488 -1.4122 -1.4365
   33MOL   H27818902   3.641   5.522   2.681  0.2129  0.9330  1.4232
   33MOL   H27918903   3.827   5.475   2.555 -0.7336 -1.2627  2.0511
   33MOL   H28018904   3.745   5.767   2.780  0.2605 -0.9932 -0.4053
   33MOL   H28118905   3.703   5.827   2.626 -1.3841  0.3364  0.1469
   33MOL   H28218906   3.529   5.946   2.659  0.1236 -0.5708 -1.5815
   33MOL   H28318907   3.501   5.941   2.832 -1.3505 -0.2927 -0.3156
   33MOL   H28418908   3.310   5.782   2.791  0.1569 -1.5224 -0.8463
   33MOL   H28518909   3.339   5.792   2.626 -1.9463  1.1050  0.1748
   33MOL   H28618910   3.269   6.027   2.811 -0.3577  1.1335 -0.7117
   33MOL   H28718911   3.319   6.042   2.656  1.4005  0.0482  0.5836
   33MOL   H28818912   3.036   6.069   2.811 -1.2850 -0.6388 -0.7408
   33MOL   H28918913   3.005   6.140   2.548 -1.9734  1.8033  1.0436
   33MOL   H29018914   2.885   5.877   2.715  2.7568 -1.2256 -4.2460
   33MOL   H29118915   2.822   6.034   2.727 -1.3292 -1.5348  0.7013
   33MOL   C29218916   2.750   5.948   2.485  0.8952 -0.1356 -0.3811
   33MOL   C29318917   2.691   6.081   2.456  0.7250  0.4062  0.2751
   33MOL   O29418918   2.570   6.048   2.389 -0.2527  0.5317 -0.2098
   33MOL   C29518919   2.656   6.185   2.564  0.0443 -0.5366 -0.3347
   33MOL   O29618920   2.609   6.310   2.507  0.2572  0.3608  0.3187
   33MOL   C29718921   2.576   6.405   2.618  0.5212 -0.9787  0.4499
   33MOL   C29818922   2.438   6.378   2.692 -0.2651 -0.1666  0.5037
   33MOL   C29918923   2.329   6.478   2.664 -0.0600 -0.2888  0.2356
   33MOL   O30018924   2.271   6.444   2.537  0.5061 -0.0876 -0.4863
   33MOL   C30118925   2.204   6.549   2.482  0.6202 -0.2413 -0.6857
   33MOL   O30218926   2.288   6.663   2.463 -0.1121  0.1154 -0.3274
   33MOL   C30318927   2.156   6.507   2.347  0.7795  0.5099  0.4032
   33MOL   O30418928   2.266   6.457   2.273 -0.2459  0.2618  0.1580
   33MOL   H30518929   2.751   5.889   2.393  0.9939  0.8805 -1.0410
   33MOL   H30618930   2.695   5.887   2.557  4.4703 -2.6780  0.3662
   33MOL   H30718931   2.757   6.119   2.378 -0.1186 -1.6397 -1.5243
   33MOL   H30818932   2.519   6.127   2.381 -1.3599 -0.2228 -0.6239
   33MOL   H30918933   2.588   6.139   2.636 -1.1881  4.7802  2.1814
   33MOL   H31018934   2.740   6.209   2.629 -1.7988  0.0510  1.9420
   33MOL   H31118935   2.559   6.498   2.565 -1.6086 -1.1825  0.7367
   33MOL   H31218936   2.663   6.407   2.684  0.3125  0.7803  0.6946
   33MOL   H31318937   2.449   6.392   2.800 -1.3616 -0.3063  0.6400
   33MOL   H31418938   2.398   6.277   2.690 -0.1887 -0.2255  1.4473
   33MOL   H31518939   2.246   6.494   2.733 -2.3181 -2.0030 -1.9803
   33MOL   H31618940   2.376   6.576   2.666 -2.9895  1.1732 -0.0190
   33MOL   H31718941   2.120   6.577   2.545  1.0484 -2.4614  0.9574
   33MOL   H31818942   2.325   6.654   2.376 -1.9424 -0.0847 -1.1199
   33MOL   H31918943   2.109   6.588   2.292  1.8566  1.6942  1.1839
   33MOL   H32018944   2.072   6.440   2.365  0.6158  1.1517  2.2058
   33MOL   C32118945   2.240   6.338   2.213  0.5110  0.3152  0.4492
   33MOL   C32218946   2.377   6.280   2.168  0.0509  0.3097  0.4030
   33MOL   O32318947   2.462   6.276   2.276  0.3200  0.0657  0.5160
   33MOL   C32418948   2.360   6.139   2.109 -0.7937  0.4438 -0.0384
   33MOL   O32518949   2.302   6.140   1.976 -0.1102  0.0599 -0.8193
   33MOL   C32618950   2.295   6.009   1.926 -0.0735  0.9237  0.0930
   33MOL   C32718951   2.277   6.024   1.776 -0.0696 -0.5368 -0.0537
   33MOL   C32818952   2.275   5.893   1.697  0.5570  0.1962 -0.2112
   33MOL   O32918953   2.265   5.919   1.554 -0.6191  0.6720  0.1284
   33MOL   C33018954   2.242   5.803   1.481 -0.3556  0.4239 -0.6755
   33MOL   O33118955   2.103   5.772   1.476 -0.1250 -0.3229  0.1097
   33MOL   C33218956   2.295   5.822   1.332  0.8108  0.1671 -0.5416
   33MOL   O33318957   2.222   5.928   1.287 -0.1345  0.6371 -0.3447
   33MOL   H33418958   2.179   6.359   2.125  0.7491 -0.7725  0.0090
   33MOL   H33518959   2.188   6.274   2.285 -2.6539  1.4344 -0.7650
   33MOL   H33618960   2.416   6.352   2.096 -3.5547  0.5797 -1.3728
   33MOL   H33718961   2.415   6.328   2.340  1.5005  1.7439  0.0495
   33MOL   H33818962   2.303   6.074   2.176  1.1466 -0.2014  1.0310
   33MOL   H33918963   2.463   6.113   2.082 -1.4155  0.6490 -2.7138
   33MOL   H34018964   2.217   5.945   1.966  0.2410  0.2286 -0.3919
   33MOL   H34118965   2.391   5.957   1.928 -0.8444 -0.5516 -0.6625
   33MOL   H34218966   2.190   6.086   1.755 -0.8576 -0.6559  2.6885
   33MOL   H34318967   2.358   6.087   1.739  1.7964 -2.3072  0.8732
   33MOL   H34418968   2.369   5.842   1.719 -0.5045 -1.3651  0.7921
   33MOL   H34518969   2.196   5.831   1.740  1.1288 -0.6898 -0.4260
   33MOL   H34618970   2.292   5.718   1.528 -1.8650 -0.4555 -0.6367
   33MOL   H34718971   2.054   5.812   1.405  1.8478 -0.3107 -1.2757
   33MOL   H34818972   2.398   5.856   1.331  1.0268 -0.4784 -0.2935
   33MOL   H34918973   2.281   5.731   1.274 -3.4005 -0.6837  1.5460
   33MOL   C35018974   2.192   5.944   1.148  0.1045  0.5274 -0.2578
   33MOL   C35118975   2.285   6.043   1.080  0.5842 -0.4245  0.2271
   33MOL   O35218976   2.281   6.169   1.155 -0.4041 -0.6767 -0.2733
   33MOL   C35318977   2.433   5.994   1.079  0.7123  0.2819 -0.5941
   33MOL   O35418978   2.431   5.859   1.036 -0.3602 -0.2272  0.1530
   33MOL   C35518979   2.562   5.805   1.022  0.1552 -0.4948  0.5070
   33MOL   C35618980   2.552   5.650   1.006 -0.5918 -0.1641 -0.1122
   33MOL   C35718981   2.532   5.568   1.132  0.0459 -0.9850 -0.5374
   33MOL   O35818982   2.644   5.594   1.222  0.0755 -0.2083 -0.0490
   33MOL   C35918983   2.644   5.530   1.346 -0.3847 -0.7900 -0.3517
   33MOL   O36018984   2.695   5.398   1.331  0.3051 -0.0805  0.1517
   33MOL   C36118985   2.724   5.615   1.448  0.5148 -0.4635  0.7048
   33MOL   O36218986   2.654   5.714   1.517  0.3108  0.4253  0.0319
   33MOL   H36318987   2.089   5.978   1.142  0.3344  1.0658 -1.5244
   33MOL   H36418988   2.196   5.845   1.103  0.3971  0.4128  0.0216
   33MOL   H36518989   2.251   6.072   0.981  1.4619  2.8303  0.8131
   33MOL   H36618990   2.288   6.141   1.245  0.2375 -2.3523 -0.8306
   33MOL   H36718991   2.498   6.057   1.019 -0.9698  1.7799 -0.9081
   33MOL   H36818992   2.477   6.004   1.179 -1.1398  0.1813  0.2602
   33MOL   H36918993   2.632   5.829   1.102 -0.4651 -1.6488  1.4144
   33MOL   H37018994   2.608   5.847   0.933  1.0535  0.3134  1.3476
   33MOL   H37118995   2.645   5.617   0.960 -0.1382 -0.2449  0.8375
   33MOL   H37218996   2.479   5.624   0.929 -2.0886  1.9032  0.5549
   33MOL   H37318997   2.437   5.587   1.183  0.8704  0.4781  0.4973
   33MOL   H37418998   2.537   5.462   1.110 -0.2464 -0.7315 -1.9149
   33MOL   H37518999   2.541   5.528   1.382 -0.1048  2.9152  0.8313
   33MOL   H37619000   2.635   5.344   1.280  0.4284  0.7912 -0.9473
   33MOL   H37719001   2.754   5.550   1.530 -0.7424 -0.9170  0.8153
   33MOL   H37819002   2.810   5.651   1.391 -1.1624  1.4223 -0.7023
   33MOL   C37919003   2.749   5.801   1.578  1.0222  0.3711 -0.1069
   33MOL   C38019004   2.675   5.921   1.624  0.1242 -0.7466 -0.6855
   33MOL   O38119005   2.759   5.985   1.718  0.1916 -0.4330 -0.1263
   33MOL   C38219006   2.627   6.017   1.513 -0.1789  0.7983  0.0405
   33MOL   O38319007   2.532   6.107   1.567 -0.2667 -0.2261 -0.2817
   33MOL   C38419008   2.474   6.186   1.466  0.8701 -0.3038  0.5372
   33MOL   C38519009   2.425   6.314   1.544  0.4718 -0.6820 -0.1244
   33MOL   C38619010   2.350   6.420   1.456  0.0800 -0.8068 -0.4197
   33MOL   O38719011   2.222   6.358   1.429  0.7689  0.4956 -0.1560
   33MOL   C38819012   2.144   6.435   1.339  0.2990 -0.4816 -0.4307
   33MOL   O38919013   2.196   6.443   1.210  0.2673  0.0188 -0.8334
   33MOL   C39019014   2.006   6.379   1.335  0.2595 -0.3549 -0.0261
   33MOL   O39119015   2.013   6.243   1.299 -0.5255  0.0272  0.1394
   33MOL   H39219016   2.821   5.831   1.501  1.4359 -0.9663 -0.2454
   33MOL   H39319017   2.812   5.754   1.653  2.0217 -0.1710 -1.2556
   33MOL   H39419018   2.596   5.886   1.691 -0.0431 -0.3564 -0.6759
   33MOL   H39519019   2.726   6.071   1.737  2.0028  0.2013  0.3259
   33MOL   H39619020   2.710   6.069   1.464  0.0922  1.2912  0.9992
   33MOL   H39719021   2.585   5.960   1.431 -1.0460  0.6578  0.5776
   33MOL   H39819022   2.386   6.137   1.427  1.1582 -0.0599 -0.4478
   33MOL   H39919023   2.543   6.203   1.383  1.0151 -1.3941  0.4371
   33MOL   H40019024   2.519   6.360   1.578 -0.1765  0.7839 -0.2552
   33MOL   H40119025   2.360   6.283   1.626  1.4757  0.3281  1.0955
   33MOL   H40219026   2.337   6.520   1.497  0.2600  0.3508 -3.1151
   33MOL   H40319027   2.409   6.431   1.365  0.7497  1.9029  0.3016
   33MOL   H40419028   2.144   6.534   1.385  1.3339 -1.4963  1.8115
   33MOL   H40519029   2.208   6.354   1.179  2.5061  0.2546 -0.7308
   33MOL   H40619030   1.974   6.382   1.440 -1.2084 -0.5543 -0.4533
   33MOL   H40719031   1.938   6.441   1.278 -2.6233 -1.1173  2.3976
   33MOL   C40819032   1.888   6.194   1.261  0.0384 -0.2305  0.0414
   33MOL   C40919033   1.854   6.085   1.363  0.1752  0.2038  0.6843
   33MOL   O41019034   1.944   5.981   1.342 -0.4616  0.7793 -0.2625
   33MOL   C41119035   1.712   6.036   1.324 -0.0234  0.4771  0.1948
   33MOL   O41219036   1.621   6.135   1.367  0.0497  0.0211  0.6999
   33MOL   C41319037   1.493   6.123   1.303  0.0281  0.2573 -0.5333
   33MOL   C41419038   1.398   6.235   1.332  0.0737 -0.2390 -0.1533
   33MOL   C41519039   1.266   6.233   1.249  0.0279 -0.4775  0.8315
   33MOL   O41619040   1.158   6.185   1.330  0.2102  0.0332 -0.2146
   33MOL   C41719041   1.124   6.054   1.314 -0.3814  0.0305 -0.3119
   33MOL   O41819042   1.089   6.029   1.180  0.5314 -0.4252 -1.1525
   33MOL   C41919043   1.001   6.023   1.401 -0.9548  0.1450  0.1361
   33MOL   O42019044   1.044   5.990   1.531 -0.0760 -0.4136 -0.1861
   33MOL   H42119045   1.889   6.146   1.163  0.8896 -0.1575  0.0123
   33MOL   H42219046   1.807   6.267   1.251 -1.0468 -1.4431 -0.2865
   33MOL   H42319047   1.854   6.119   1.467  1.5288  1.1868  0.3791
   33MOL   H42419048   2.017   6.031   1.309 -0.1349  0.9117  0.6465
   33MOL   H42519049   1.714   6.014   1.217 -1.1093 -2.7557  0.7758
   33MOL   H42619050   1.688   5.941   1.370 -1.9493  1.0619  0.4289
   33MOL   H42719051   1.510   6.135   1.196 -0.7458  0.8828 -0.5918
   33MOL   H42819052   1.454   6.023   1.322  2.1178 -0.3446  0.8398
   33MOL   H42919053   1.451   6.329   1.314 -0.3709 -0.0464 -0.4890
   33MOL   H43019054   1.368   6.241   1.436  1.8101  1.2096  0.2877
   33MOL   H43119055   1.245   6.338   1.226  1.5564 -0.1541  0.8538
   33MOL   H43219056   1.287   6.194   1.150  0.7195  2.6294 -0.2966
   33MOL   H43319057   1.208   5.987   1.336 -0.2488  0.3518  0.1699
   33MOL   H43419058   1.014   6.083   1.163  0.4118 -0.4087 -0.5787
   33MOL   H43519059   0.945   6.115   1.391 -0.0839  0.5968 -0.7085
   33MOL   H43619060   0.953   5.940   1.349 -3.4963 -0.4967  3.3402
   33MOL   C43719061   0.949   5.992   1.636 -0.2209 -1.0126 -0.4057
   33MOL   C43819062   1.001   5.905   1.751 -0.1145 -0.5940 -0.2992
   33MOL   O43919063   0.986   5.780   1.694  0.5796 -0.1328  0.0812
   33MOL   C44019064   0.922   5.918   1.877  0.3901  0.2156 -0.3908
   33MOL   O44119065   0.991   5.883   1.992  0.2972  0.0485  0.2333
   33MOL   C44219066   0.924   5.907   2.116  0.6092 -0.6145  0.9659
   33MOL   C44319067   1.010   5.876   2.238 -0.2375 -0.1475 -0.3124
   33MOL   C44419068   0.959   5.935   2.369  0.4061 -0.1499  0.0746
   33MOL   O44519069   0.849   5.862   2.419  0.3366 -0.0381 -0.2318
   33MOL   C44619070   0.784   5.912   2.538 -0.3129 -0.0885  0.1210
   33MOL   O44719071   0.732   5.811   2.612 -0.8434  0.3751 -1.0436
   33MOL   C44819072   0.674   6.014   2.490 -0.3582 -0.0085  0.7847
   33MOL   O44919073   0.665   6.095   2.593 -0.0990  0.1767 -0.3922
   33MOL   H45019074   0.919   6.091   1.671 -0.0713 -1.2130  0.3034
   33MOL   H45119075   0.853   5.951   1.605 -0.7648 -0.4180  0.4795
   33MOL   H45219076   1.105   5.928   1.775 -0.3327 -0.9236  0.9832
   33MOL   H45319077   1.032   5.793   1.612 -1.4236  0.8995 -0.9106
   33MOL   H45419078   0.893   6.022   1.893  2.2352  0.4825  1.5741
   33MOL   H45519079   0.833   5.857   1.892  0.0196  0.8940  0.2229
   33MOL   H45619080   0.820   5.874   2.120  0.2417  0.0837 -1.7654
   33MOL   H45719081   0.897   6.013   2.111  1.7521 -0.3402  0.5811
   33MOL   H45819082   1.117   5.897   2.226  0.0366 -1.8245 -0.8749
   33MOL   H45919083   1.018   5.768   2.249  0.4119  0.0465  1.1872
   33MOL   H46019084   1.031   5.923   2.450  1.5784 -3.4285 -1.3633
   33MOL   H46119085   0.936   6.041   2.362  0.0118 -0.2481 -0.1281
   33MOL   H46219086   0.853   5.977   2.592 -0.9980  0.5224  0.2763
   33MOL   H46319087   0.721   5.741   2.551 -0.1720 -0.6888  0.0319
   33MOL   H46419088   0.709   6.070   2.404 -0.3728 -1.5800 -0.2802
   33MOL   H46519089   0.585   5.964   2.454  1.6580 -1.7372 -1.9925
   33MOL   C46619090   0.557   6.182   2.573 -0.2473 -0.8048 -0.1591
   33MOL   C46719091   0.522   6.262   2.698 -0.6920  0.1619 -0.1792
   33MOL   O46819092   0.621   6.357   2.724 -0.0269  0.2460  0.3642
   33MOL   C46919093   0.397   6.343   2.669 -0.7254 -0.7099 -0.5238
   33MOL   O47019094   0.382   6.410   2.544  0.4707 -0.1084  0.1831
   33MOL   C47119095   0.254   6.389   2.473 -0.8523 -0.1791  0.7502
   33MOL   C47219096   0.248   6.488   2.352  0.6821  0.1680 -1.0993
   33MOL   C47319097   0.113   6.481   2.270  0.0880 -0.6097 -0.0368
   33MOL   O47419098   0.081   6.353   2.235 -0.2650  0.3531 -0.7045
   33MOL   C47519099   7.673   6.352   2.143  0.2156  0.5139 -0.0443
   33MOL   O47619100   7.555   6.400   2.199  0.8216 -0.1321 -0.0588
   33MOL   C47719101   7.655   6.214   2.084  0.6064 -0.1241  0.5848
   33MOL   O47819102   0.081   6.165   2.024 -0.5291  0.0900  0.1719
   33MOL   H47919103   0.467   6.126   2.547  0.7356 -3.6929  2.3493
   33MOL   H48019104   0.578   6.257   2.497  2.2293 -1.4457 -0.1493
   33MOL   H48119105   0.501   6.202   2.788 -1.4426  0.8798  0.1367
   33MOL   H48219106   0.699   6.306   2.737 -0.5896 -0.3977  1.2622
   33MOL   H48319107   0.312   6.280   2.695 -0.7610 -0.2859  0.4031
   33MOL   H48419108   0.381   6.423   2.742 -0.8993 -1.2123 -0.0046
   33MOL   H48519109   0.176   6.409   2.546  0.1268 -1.5474  2.1924
   33MOL   H48619110   0.242   6.284   2.449  0.8347 -0.5767  1.5184
   33MOL   H48719111   0.337   6.469   2.291  0.9545 -0.5239 -0.4911
   33MOL   H48819112   0.259   6.589   2.391  1.3617 -0.5039  0.4599
   33MOL   H48919113   0.028   6.524   2.323  2.2281  1.5330  1.7552
   33MOL   H49019114   0.122   6.537   2.177 -2.2575 -1.4980 -0.8185
   33MOL   H49119115   0.010   6.418   2.062 -1.0222 -0.4436 -1.3227
   33MOL   H49219116   7.495   6.329   2.213  0.0809  0.0324 -2.2782
   33MOL   H49319117   7.614   6.151   2.163  1.3697 -0.8450  0.4157
   33MOL   H49419118   7.578   6.225   2.008  1.1107 -0.4045  0.0315
   33MOL   C49519119   0.092   6.027   2.013  0.7795 -0.3976 -0.1540
   33MOL   C49619120   0.008   5.975   1.891  0.4587  0.5549  0.4012
   33MOL   O49719121   0.092   5.893   1.803 -0.3421 -0.9439 -0.4878
   33MOL   C49819122   7.567   5.912   1.927  0.5031  0.4845  0.1082
   33MOL   O49919123   7.469   6.003   1.910  0.2231 -0.2215 -0.0936
   33MOL   C50019124   7.334   5.961   1.928  0.1326  0.4268 -0.2226
   33MOL   C50119125   7.233   6.069   1.884  0.0859 -0.1104  0.3094
   33MOL   C50219126   7.230   6.185   1.973  0.2607 -0.0815 -0.4189
   33MOL   O50319127   7.159   6.168   2.094 -0.6195  0.2035  0.6683
   33MOL   C50419128   7.215   6.241   2.198  0.2993 -0.6346 -0.0364
   33MOL   O50519129   7.340   6.194   2.247 -0.9662  0.0493  0.7877
   33MOL   C50619130   7.115   6.244   2.310  0.5443 -0.3128  0.1528
   33MOL   O50719131   7.117   6.130   2.391 -0.0873  0.4407 -0.1853
   33MOL   H50819132   0.068   5.979   2.108  0.4703  1.1886  0.6012
   33MOL   H50919133   0.192   5.994   1.986  1.7266  1.6817  0.7283
   33MOL   H51019134   7.678   6.063   1.831 -2.5504 -0.5808 -0.1110
   33MOL   H51119135   0.060   5.870   1.717 -0.1691 -1.3544 -0.4443
   33MOL   H51219136   7.559   5.821   1.867  0.1104  0.7082 -0.1742
   33MOL   H51319137   7.561   5.883   2.032 -0.7513  1.1915  0.2363
   33MOL   H51419138   7.317   5.943   2.034 -0.1689 -0.5634 -0.4346
   33MOL   H51519139   7.327   5.861   1.884 -1.2591  0.5816 -0.3613
   33MOL   H51619140   7.133   6.024   1.881 -0.2448  0.5285  1.5349
   33MOL   H51719141   7.252   6.109   1.785 -1.5140  0.4218  0.2052
   33MOL   H51819142   7.333   6.219   1.988 -0.8620  3.2346  0.0631
   33MOL   H51919143   7.193   6.274   1.922  1.6080  0.1898 -0.9503
   33MOL   H52019144   7.234   6.345   2.169 -1.9908 -0.6017 -1.5730
   33MOL   H52119145   7.318   6.109   2.280 -0.9855 -0.8804 -1.5344
   33MOL   H52219146   7.140   6.329   2.373 -0.4058 -0.7851  1.1808
   33MOL   H52319147   7.016   6.267   2.270  1.7217  0.3404 -2.5353
   33MOL   C52419148   7.086   6.165   2.524  0.7673  0.2284 -0.2437
   33MOL   C52519149   6.944   6.230   2.548 -0.1256 -0.2577  0.5860
   33MOL   O52619150   6.965   6.369   2.545  0.2454  0.3858  0.7222
   33MOL   C52719151   6.878   6.185   2.683  0.0363 -0.1099 -0.3094
   33MOL   O52819152   6.751   6.249   2.694 -0.0265  0.1595 -0.0086
   33MOL   C52919153   6.684   6.208   2.817  0.2867 -0.6152 -0.0095
   33MOL   C53019154   6.701   6.312   2.934 -0.1243  0.3880 -0.6993
   33MOL   C53119155   6.729   6.256   3.077 -0.1258  0.0790 -0.2600
   33MOL   O53219156   6.762   6.369   3.157  0.8764  0.4515  0.1739
   33MOL   C53319157   6.794   6.347   3.289  0.1071 -0.2551  0.2134
   33MOL   O53419158   6.930   6.305   3.309  0.0686 -0.0786 -0.4676
   33MOL   C53519159   6.779   6.484   3.359 -0.4298  0.1138  0.3570
   33MOL   O53619160   6.894   6.566   3.324 -0.9162  0.7485  0.2214
   33MOL   H53719161   7.166   6.227   2.564  0.9189 -0.4270  0.4798
   33MOL   H53819162   7.078   6.073   2.582 -4.7867  1.1309  0.8006
   33MOL   H53919163   6.875   6.219   2.464 -1.2550  1.3812  1.2753
   33MOL   H54019164   6.880   6.410   2.556  0.5405  0.6185  2.2282
   33MOL   H54119165   6.863   6.077   2.684 -4.7532  0.4269  0.5377
   33MOL   H54219166   6.941   6.211   2.768  0.3050 -0.2120 -0.4797
   33MOL   H54319167   6.709   6.108   2.851 -0.3875 -1.1243 -0.9779
   33MOL   H54419168   6.581   6.179   2.794  0.8604 -2.7129 -0.0381
   33MOL   H54519169   6.617   6.382   2.935  0.6237  1.2912  0.7084
   33MOL   H54619170   6.785   6.380   2.918  0.6899 -0.4346  0.0222
   33MOL   H54719171   6.633   6.210   3.100  1.0211 -1.5563  1.3212
   33MOL   H54819172   6.802   6.175   3.072  1.8959  1.8526 -0.4919
   33MOL   H54919173   6.726   6.273   3.332  1.2732 -0.3100  2.0040
   33MOL   H55019174   6.989   6.360   3.260  0.5817  0.5699  0.8488
   33MOL   H55119175   6.693   6.544   3.330  0.4834  1.7193  0.9435
   33MOL   H55219176   6.779   6.475   3.468  0.8403  0.1971  0.3634
   33MOL   C55319177   6.888   6.613   3.192  0.2448 -0.0554  0.1452
   33MOL   C55419178   6.985   6.731   3.188  0.2903 -0.0987  0.5387
   33MOL   O55519179   7.121   6.681   3.185 -0.2855 -0.3561 -0.4893
   33MOL   C55619180   6.975   6.838   3.295 -0.3955 -0.1567 -1.0536
   33MOL   O55719181   6.863   6.924   3.277  0.5665  0.0309  0.7485
   33MOL   C55819182   6.835   7.010   3.392 -0.4329  0.3234  0.4565
   33MOL   C55919183   6.728   7.114   3.366  0.6540 -0.1322  0.5533
   33MOL   C56019184   6.764   7.196   3.240  0.4279 -0.4300 -0.2653
   33MOL   O56119185   6.899   7.243   3.241  0.3488 -0.4122 -0.3851
   33MOL   C56219186   6.941   7.334   3.143  0.3868  0.5819 -0.2906
   33MOL   O56319187   6.884   7.462   3.173 -0.0970  0.5710  0.3310
   33MOL   C56419188   7.090   7.355   3.140 -0.3696  0.2288 -0.0294
   33MOL   O56519189   7.129   7.438   3.242 -0.2152 -0.6175  0.3773
   33MOL   H56619190   6.789   6.660   3.186  0.8895  1.3957  0.5967
   33MOL   H56719191   6.902   6.539   3.114 -2.6072 -0.1404 -0.3291
   33MOL   H56819192   6.967   6.781   3.093  0.7471 -0.8598  0.0458
   33MOL   H56919193   7.149   6.682   3.276  1.6947  3.5531 -1.0392
   33MOL   H57019194   6.986   6.803   3.398 -0.1019  0.6069 -0.8202
   33MOL   H57119195   7.067   6.894   3.275  0.2682 -0.5193  0.7953
   33MOL   H57219196   6.809   6.945   3.475  0.3997 -1.6161 -0.7568
   33MOL   H57319197   6.926   7.063   3.421  1.9914 -2.5674 -1.5489
   33MOL   H57419198   6.703   7.180   3.449 -1.2881 -1.3898  0.9879
   33MOL   H57519199   6.629   7.072   3.349  0.6483  0.5077 -1.1114
   33MOL   H57619200   6.747   7.145   3.145  1.2491 -0.8325 -0.2016
   33MOL   H57719201   6.695   7.280   3.229 -0.1528 -1.0715 -1.6238
   33MOL   H57819202   6.894   7.305   3.049 -0.5659 -0.3192  0.4507
   33MOL   H57919203   6.957   7.505   3.213  0.9221  0.1201 -1.0208
   33MOL   H58019204   7.138   7.257   3.138 -2.3057 -0.7362 -1.3107
   33MOL   H58119205   7.115   7.398   3.043 -0.2843  0.8194  0.2511
   33MOL   H58219206   7.122   7.390   3.323  0.0686 -0.4960  0.4759
   34MOL     C119207   6.860   4.872   0.096 -0.5172 -0.5672  0.0192
   34MOL     C219208   6.954   4.986   0.102  0.3313 -0.2147 -0.0849
   34MOL     O319209   7.078   4.932   0.143  0.3997  0.1337  0.0721
   34MOL     C419210   6.974   5.070   7.670  0.1670 -0.2512 -0.0557
   34MOL     O519211   7.036   5.193   0.020  0.4164 -0.0800  0.3519
   34MOL     C619212   7.014   5.290   7.610 -0.2293  0.1808  0.4579
   34MOL     C719213   7.115   5.400   7.626  0.1883 -0.2304  0.0551
   34MOL     C819214   7.114   5.461   0.073  0.0565 -0.0386  0.0361
   34MOL     O919215   7.229   5.537   0.088 -0.0939  0.3482  0.2057
   34MOL    C1019216   7.248   5.604   0.202 -0.3105  0.3374  0.0197
   34MOL    O1119217   7.150   5.698   0.216 -0.0762 -0.3913  0.3482
   34MOL    C1219218   7.380   5.675   0.183 -0.4317 -0.9465  0.1528
   34MOL    O1319219   7.443   5.705   0.301 -0.1461  0.2580 -0.6959
   34MOL    H1419220   6.762   4.907   0.063  0.2033  0.3166 -1.2047
   34MOL    H1519221   6.867   4.819   0.191 -0.6484  1.0440  0.9534
   34MOL    H1619222   6.914   5.050   0.181 -0.4682  0.8742 -1.3436
   34MOL    H1719223   7.141   5.002   0.151 -0.6520  1.4139 -2.2367
   34MOL    H1819224   7.038   5.018   7.599  0.1545 -0.9370  0.4247
   34MOL    H1919225   6.882   5.093   7.617  0.1674 -2.2244 -0.9644
   34MOL    H2019226   6.914   5.331   7.623 -0.4646 -0.0791 -0.4883
   34MOL    H2119227   7.025   5.254   7.508 -3.1654  1.4791 -0.3690
   34MOL    H2219228   7.095   5.483   7.559  0.3609  0.7672  1.2166
   34MOL    H2319229   7.215   5.372   7.590  0.5631 -0.9558  1.6072
   34MOL    H2419230   7.027   5.527   0.076  1.0097  1.1671  2.2678
   34MOL    H2519231   7.113   5.384   0.150  1.2102  0.1118  0.2143
   34MOL    H2619232   7.239   5.529   0.281 -1.9021  1.7520  1.2124
   34MOL    H2719233   7.164   5.747   0.296 -3.9110  3.0325 -0.9304
   34MOL    H2819234   7.443   5.613   0.119  1.0288  0.5525  0.1029
   34MOL    H2919235   7.369   5.768   0.127 -0.1573 -2.3482 -2.2996
   34MOL    H3019236   6.882   4.796   0.021 -0.6886 -0.0973 -0.5110
   34MOL    C3119237   7.524   5.606   0.362  0.0479 -0.1840 -0.3389
   34MOL    C3219238   7.598   5.675   0.475  0.2445  0.0993 -0.1154
   34MOL    O3319239   7.653   5.792   0.425  0.2701  0.5873 -0.6414
   34MOL    C3419240   0.004   5.579   0.536  0.1094  0.0760  0.2846
   34MOL    O3519241   7.642   5.471   0.611 -0.4531 -0.4164  0.8320
   34MOL    C3619242   7.588   5.509   0.732  0.3314  0.2871 -0.4790
   34MOL    C3719243   7.584   5.383   0.826 -0.1656  0.0389 -0.9294
   34MOL    C3819244   7.551   5.424   0.970  0.2262  0.0397  0.3850
   34MOL    O3919245   7.646   5.511   1.017  0.1897 -0.5307 -0.5884
   34MOL    C4019246   7.626   5.547   1.149  0.1140 -0.2213 -1.0993
   34MOL    O4119247   7.520   5.638   1.179  0.1028  0.6781  0.1056
   34MOL    C4219248   0.064   5.605   1.199 -0.2456 -0.6818  0.5177
   34MOL    O4319249   0.163   5.509   1.226 -0.0623 -0.6573 -0.3236
   34MOL    H4419250   7.467   5.524   0.405  0.1507  0.0972  0.3404
   34MOL    H4519251   7.593   5.562   0.290 -3.0017  1.6537 -4.5602
   34MOL    H4619252   7.529   5.706   0.554  0.6331 -0.9050  0.6303
   34MOL    H4719253   7.597   5.812   0.351 -0.5173  0.6694 -0.0173
   34MOL    H4819254   0.069   5.548   0.454  1.3995 -0.2946  1.4409
   34MOL    H4919255   0.065   5.629   0.611 -1.2194 -0.0027  1.4171
   34MOL    H5019256   7.487   5.538   0.703  0.7023  0.1045 -1.9650
   34MOL    H5119257   7.634   5.599   0.772  0.2941  0.5497 -1.0217
   34MOL    H5219258   7.679   5.331   0.834 -0.5434 -0.3626  1.4177
   34MOL    H5319259   7.516   5.311   0.780 -1.7500  1.8127 -1.4286
   34MOL    H5419260   7.462   5.486   0.977 -0.5846 -1.0646 -0.1321
   34MOL    H5519261   7.550   5.330   1.025  0.3711 -0.9659 -1.2901
   34MOL    H5619262   7.610   5.461   1.213  0.7180  0.5106  0.0502
   34MOL    H5719263   7.525   5.720   1.133 -0.2234  0.0835 -1.0033
   34MOL    H5819264   0.103   5.678   1.129  1.7357 -0.2626  1.9978
   34MOL    H5919265   0.037   5.649   1.295 -2.0637  0.8097 -0.6475
   34MOL    C6019266   0.266   5.494   1.121  0.0635  0.2310  0.3408
   34MOL    C6119267   0.354   5.370   1.141  0.3356 -0.1973  0.1066
   34MOL    O6219268   0.426   5.382   1.268  0.6732  0.4143 -0.3358
   34MOL    C6319269   0.465   5.371   1.038  0.2553  0.0075  0.2083
   34MOL    O6419270   0.414   5.391   0.906  0.0309  0.2015  0.4704
   34MOL    C6519271   0.374   5.271   0.840 -0.8204 -0.8443 -1.0356
   34MOL    C6619272   0.322   5.304   0.701 -0.2488  0.4431 -0.1923
   34MOL    C6719273   0.282   5.179   0.615  0.0725 -0.4740  1.1278
   34MOL    O6819274   0.391   5.088   0.603  0.5646 -0.2092  0.2944
   34MOL    C6919275   0.390   5.002   0.494 -0.3184  1.3106 -0.0079
   34MOL    O7019276   0.412   5.066   0.369 -0.1102 -0.1320 -0.2724
   34MOL    C7119277   0.501   4.907   0.525 -0.3961 -0.4065 -0.6824
   34MOL    O7219278   0.448   4.797   0.594 -0.3994 -0.3718 -0.2525
   34MOL    H7319279   0.333   5.580   1.124 -0.1181  0.3328  1.7033
   34MOL    H7419280   0.225   5.486   1.020  0.4754 -0.7973  0.2552
   34MOL    H7519281   0.304   5.274   1.127  0.5355 -0.5228  1.5058
   34MOL    H7619282   0.365   5.416   1.331  1.4224  1.4694 -0.1737
   34MOL    H7719283   0.537   5.451   1.054  0.6627 -0.5475  1.1727
   34MOL    H7819284   0.525   5.280   1.044  0.5121  0.2954  2.3257
   34MOL    H7919285   0.291   5.227   0.895 -1.5028 -1.7197 -2.7245
   34MOL    H8019286   0.451   5.194   0.834 -0.2560 -0.5543  1.8853
   34MOL    H8119287   0.405   5.357   0.654  0.4456 -0.0704  0.4486
   34MOL    H8219288   0.237   5.371   0.711 -1.2398 -1.1559  2.4588
   34MOL    H8319289   0.256   5.214   0.515 -0.3332 -1.2564  0.9549
   34MOL    H8419290   0.192   5.130   0.653 -1.0059  0.4895 -0.1289
   34MOL    H8519291   0.300   4.941   0.482 -0.0959  0.7946  0.9350
   34MOL    H8619292   0.447   5.152   0.388 -2.4227  1.2080 -1.7881
   34MOL    H8719293   0.552   4.874   0.435 -1.4831  1.5864 -2.0617
   34MOL    H8819294   0.585   4.955   0.577 -0.5862  1.3390 -1.9289
   34MOL    C8919295   0.545   4.708   0.646  0.4369  0.8071  0.7744
   34MOL    C9019296   0.472   4.579   0.674  0.3136  0.3661 -0.6355
   34MOL    O9119297   0.431   4.530   0.543  0.1138  0.4792 -0.0157
   34MOL    C9219298   0.572   4.479   0.738  0.1058 -0.6844 -0.5123
   34MOL    O9319299   0.586   4.487   0.875 -0.3129 -0.0651  0.3406
   34MOL    C9419300   0.721   4.491   0.909  0.0512 -0.6736  0.2148
   34MOL    C9519301   0.726   4.489   1.066 -0.1285  0.1231 -0.1397
   34MOL    C9619302   0.867   4.495   1.124  0.0193 -0.1226 -0.0094
   34MOL    O9719303   0.859   4.481   1.264  0.0695  0.3206 -0.1211
   34MOL    C9819304   0.984   4.449   1.319 -0.3794  0.3664  0.0293
   34MOL    O9919305   1.061   4.561   1.345  0.3482 -0.9970  0.4828
   34MOL   C10019306   0.955   4.381   1.449  0.1501  0.2447  0.3666
   34MOL   O10119307   0.917   4.247   1.429  0.3642  0.5755  0.3046
   34MOL   H10219308   0.577   4.739   0.746 -0.2305  0.5277  1.0771
   34MOL   H10319309   0.626   4.690   0.576 -3.6631 -2.9347 -3.3920
   34MOL   H10419310   0.389   4.607   0.739  1.6969  1.0237  0.8971
   34MOL   H10519311   0.404   4.606   0.493 -2.8129 -0.6186 -0.2094
   34MOL   H10619312   0.537   4.381   0.707 -0.8529 -0.4907 -0.0458
   34MOL   H10719313   0.661   4.495   0.677 -0.7234 -0.2403 -1.6209
   34MOL   H10819314   0.756   4.587   0.872 -1.9948  0.2293  0.5692
   34MOL   H10919315   0.777   4.404   0.876  1.5347  0.8462 -1.3463
   34MOL   H11019316   0.685   4.392   1.095 -1.2598  0.6506  0.0614
   34MOL   H11119317   0.666   4.566   1.113 -0.0384  0.8252 -1.1614
   34MOL   H11219318   0.931   4.419   1.078 -0.4864 -0.1381 -0.6955
   34MOL   H11319319   0.903   4.593   1.093  2.3075 -1.2031 -0.9450
   34MOL   H11419320   1.036   4.381   1.251 -0.3510  1.5860 -1.1772
   34MOL   H11519321   1.009   4.607   1.408 -1.4989 -0.2885 -1.5039
   34MOL   H11619322   1.048   4.377   1.507  0.5805  1.0541 -0.2636
   34MOL   H11719323   0.872   4.435   1.493 -0.2383  0.1623 -0.2597
   34MOL   C11819324   0.889   4.173   1.550  0.5668 -0.1692 -0.3055
   34MOL   C11919325   0.746   4.107   1.543 -0.0286 -0.6815  0.5738
   34MOL   O12019326   0.660   4.204   1.491 -0.1949 -0.1940  0.2369
   34MOL   C12119327   0.698   4.058   1.677  0.1724 -0.5614 -0.3597
   34MOL   O12219328   0.774   3.942   1.718  0.0231 -0.4184  0.0866
   34MOL   C12319329   0.737   3.872   1.833 -0.0216  0.3831 -0.0784
   34MOL   C12419330   0.605   3.798   1.809  0.3216 -0.5393  0.5254
   34MOL   C12519331   0.549   3.733   1.930  0.2329  0.4250 -0.3982
   34MOL   O12619332   0.433   3.653   1.904 -0.3218  0.2220  0.0530
   34MOL   C12719333   0.355   3.626   2.011 -0.6773  0.4852 -0.2211
   34MOL   O12819334   0.394   3.506   2.067  0.2871  0.1285  0.0863
   34MOL   C12919335   0.213   3.611   1.962 -0.2416  0.5387  0.1001
   34MOL   O13019336   0.162   3.733   1.916  0.4439  0.0452  0.4880
   34MOL   H13119337   0.960   4.091   1.557  2.6211  1.7648  3.2740
   34MOL   H13219338   0.878   4.241   1.635  0.4698 -0.5141 -0.0420
   34MOL   H13319339   0.752   4.026   1.470  2.4277 -1.5632  1.7118
   34MOL   H13419340   0.685   4.215   1.401 -2.5402  3.2381 -0.1096
   34MOL   H13519341   0.694   4.134   1.755 -0.5029 -1.1758  0.2044
   34MOL   H13619342   0.593   4.031   1.668 -0.6195  2.7480 -1.6012
   34MOL   H13719343   0.739   3.948   1.911  1.0260  0.4698 -0.1900
   34MOL   H13819344   0.814   3.796   1.844  1.1927  1.5077 -0.7658
   34MOL   H13919345   0.629   3.729   1.727 -0.8013 -0.8948  0.4906
   34MOL   H14019346   0.535   3.868   1.763  0.9054  0.2352  0.8033
   34MOL   H14119347   0.623   3.666   1.974  1.5196  2.5051  0.7201
   34MOL   H14219348   0.517   3.810   2.000 -1.6497  0.0372 -0.8029
   34MOL   H14319349   0.365   3.705   2.085 -0.6747  0.2235  0.0573
   34MOL   H14419350   0.476   3.520   2.113  0.7518 -3.1678  0.3693
   34MOL   H14519351   0.214   3.539   1.880 -4.3849  0.9504 -0.3933
   34MOL   H14619352   0.144   3.570   2.036 -0.5172 -2.9643 -1.9615
   34MOL   C14719353   0.024   3.751   1.913  0.0882  0.4437 -0.5597
   34MOL   C14819354   0.006   3.901   1.866  0.6441 -0.3338 -0.1884
   34MOL   O14919355   0.013   3.979   1.982 -0.0681 -0.1502  0.7942
   34MOL   C15019356   7.561   3.925   1.805  0.6640 -1.0113  0.4439
   34MOL   O15119357   7.574   4.037   1.717  0.5450 -0.1388  0.1307
   34MOL   C15219358   7.552   4.172   1.769  0.0935  0.3447  0.0643
   34MOL   C15319359   7.604   4.261   1.654 -0.5961 -0.8076  0.3530
   34MOL   C15419360   7.578   4.410   1.691 -0.1954  0.8891  0.0783
   34MOL   O15519361   7.620   4.443   1.823  0.2168  0.8121  0.0582
   34MOL   C15619362   7.599   4.573   1.867 -0.5660  0.2079  0.9411
   34MOL   O15719363   7.670   4.675   1.804 -0.2958  0.0056  0.7103
   34MOL   C15819364   7.623   4.559   2.015 -0.1770 -0.8964 -0.5440
   34MOL   O15919365   0.062   4.518   2.051  0.2459  0.5207  0.9219
   34MOL   H16019366   7.669   3.746   2.010  0.5109  0.3350 -0.3518
   34MOL   H16119367   7.683   3.672   1.846  0.9227 -0.6091  0.2293
   34MOL   H16219368   0.088   3.927   1.800  0.5437 -1.6223 -0.8364
   34MOL   H16319369   0.064   4.056   1.960  0.8694 -0.5226  1.6382
   34MOL   H16419370   7.538   3.837   1.745 -1.4170 -0.7138  0.7766
   34MOL   H16519371   7.483   3.945   1.878  0.6311  0.0725  0.1272
   34MOL   H16619372   7.616   4.201   1.852 -0.7593 -2.5042  1.7680
   34MOL   H16719373   7.450   4.199   1.796  0.6237  2.7079 -0.1820
   34MOL   H16819374   7.557   4.236   1.559  2.1119  0.7098 -1.4571
   34MOL   H16919375   0.015   4.245   1.629 -0.6820  0.1823 -0.7207
   34MOL   H17019376   7.630   4.463   1.612  0.7904  0.5833  0.5120
   34MOL   H17119377   7.471   4.431   1.686 -0.5005 -0.6757 -0.5717
   34MOL   H17219378   7.493   4.596   1.853 -0.1434  0.8487 -1.4303
   34MOL   H17319379   0.070   4.670   1.813 -0.1909  0.2273 -0.2267
   34MOL   H17419380   7.597   4.654   2.062  1.6441 -0.7211  0.1643
   34MOL   H17519381   7.565   4.474   2.049 -0.2015 -1.1912 -1.3006
   34MOL   C17619382   0.088   4.485   2.185 -0.0950  0.3665 -0.1308
   34MOL   C17719383   0.223   4.420   2.182 -0.0857 -0.1283 -0.0750
   34MOL   O17819384   0.207   4.292   2.141  0.8177 -0.3288  0.3455
   34MOL   C17919385   0.299   4.424   2.308 -0.0541  0.1959 -0.6796
   34MOL   O18019386   0.212   4.397   2.423  0.0679 -0.3607  0.1482
   34MOL   C18119387   0.284   4.390   2.542 -0.7105 -0.2458  0.6032
   34MOL   C18219388   0.182   4.367   2.655 -0.1680  0.0566  0.6580
   34MOL   C18319389   0.128   4.225   2.649  0.1577  0.2485  0.4726
   34MOL   O18419390   0.046   4.199   2.756  0.1562 -0.3135  0.1827
   34MOL   C18519391   0.019   4.067   2.797 -0.8411 -0.4351  0.1506
   34MOL   O18619392   7.686   3.976   2.692 -0.4753 -0.7435 -0.3507
   34MOL   C18719393   7.600   4.056   2.904 -0.6204 -0.0350 -0.3574
   34MOL   O18819394   7.478   4.065   2.831  0.2105 -0.4497  0.7401
   34MOL   H18919395   0.008   4.415   2.209 -0.4370  1.2539  1.3718
   34MOL   H19019396   0.075   4.574   2.247  0.2903  0.8373 -0.7243
   34MOL   H19119397   0.287   4.473   2.111  1.4303  0.4561  1.6876
   34MOL   H19219398   0.151   4.306   2.067 -0.4225  0.1190  1.3403
   34MOL   H19319399   0.389   4.361   2.309 -0.6844 -0.7099  0.9725
   34MOL   H19419400   0.324   4.525   2.338 -0.8773  0.1269  0.2571
   34MOL   H19519401   0.345   4.477   2.566  2.3909 -1.9970 -0.5613
   34MOL   H19619402   0.366   4.317   2.537 -0.6382 -0.1095 -0.4724
   34MOL   H19719403   0.098   4.434   2.643 -0.8280 -0.6017  1.4913
   34MOL   H19819404   0.227   4.387   2.752 -0.6426  0.6084  0.7662
   34MOL   H19919405   0.086   4.210   2.549 -0.8344 -0.4784  0.9887
   34MOL   H20019406   0.217   4.163   2.655 -0.5822 -0.8258  0.4485
   34MOL   H20119407   0.113   4.033   2.841 -0.3333  2.9365  1.8101
   34MOL   H20219408   7.595   3.991   2.672 -0.8607 -3.1926 -0.5047
   34MOL   H20319409   7.615   3.960   2.954  0.5189 -0.5723 -1.6944
   34MOL   H20419410   7.618   4.136   2.976  1.1054 -0.2599 -0.5217
   34MOL   C20519411   7.365   4.032   2.908  0.1220  0.7217 -0.1375
   34MOL   C20619412   7.244   4.113   2.864 -1.1862 -0.2377  0.3420
   34MOL   O20719413   7.215   4.080   2.727  0.1777 -0.1797 -0.0771
   34MOL   C20819414   7.127   4.062   2.948 -0.9236  0.4982  0.2168
   34MOL   O20919415   7.140   4.120   3.076  0.0082 -0.0959 -0.4799
   34MOL   C21019416   7.035   4.097   3.168 -0.1221 -0.0002 -0.1646
   34MOL   C21119417   6.913   4.166   3.121 -0.5400  0.0765 -0.2921
   34MOL   C21219418   6.816   4.203   3.234  0.6880  0.1005 -0.4504
   34MOL   O21319419   6.714   4.280   3.179  0.3070  0.0802 -0.2969
   34MOL   C21419420   6.610   4.306   3.275  0.0285  0.6223  0.6241
   34MOL   O21519421   6.536   4.190   3.299  0.5580  0.1923  0.4944
   34MOL   C21619422   6.516   4.408   3.215  0.5776 -0.4627  0.3629
   34MOL   O21719423   6.436   4.348   3.110  0.4486  0.0840 -0.0177
   34MOL   H21819424   7.389   4.047   3.013 -0.9288 -0.0125  0.2240
   34MOL   H21919425   7.343   3.926   2.897  1.2615  0.0145  3.6272
   34MOL   H22019426   7.254   4.221   2.863 -2.1896 -0.1378 -1.3353
   34MOL   H22119427   7.282   4.128   2.680 -0.6037 -1.5875 -2.6954
   34MOL   H22219428   7.038   4.081   2.888  0.1260  2.0206 -0.9243
   34MOL   H22319429   7.127   3.954   2.953 -0.7416  0.4448 -0.8629
   34MOL   H22419430   7.061   4.124   3.271 -1.3560  1.6759 -0.2779
   34MOL   H22519431   7.023   3.990   3.186 -2.9516  0.1241 -1.0395
   34MOL   H22619432   6.856   4.114   3.044 -0.4720 -0.8710  0.2899
   34MOL   H22719433   6.944   4.264   3.084 -4.1661  1.6295  0.5256
   34MOL   H22819434   6.786   4.109   3.281  0.3780  0.4450  0.0507
   34MOL   H22919435   6.879   4.258   3.304  1.2032 -1.6372  0.4894
   34MOL   H23019436   6.657   4.323   3.372  0.3596  0.4231  0.5010
   34MOL   H23119437   6.487   4.169   3.220  0.1183 -0.3933  0.9141
   34MOL   H23219438   6.465   4.448   3.303  0.1782 -0.7999  0.2850
   34MOL   H23319439   6.568   4.499   3.183 -1.7366  0.9287  0.4513
   34MOL   C23419440   6.341   4.428   3.046 -0.0410  0.1569  0.0567
   34MOL   C23519441   6.223   4.349   2.988  0.1167 -0.5707 -0.0829
   34MOL   O23619442   6.123   4.441   2.963  0.5492 -0.1784 -0.4642
   34MOL   C23719443   6.154   4.245   3.084  1.0314  0.0675  0.2089
   34MOL   O23819444   6.058   4.164   3.019 -0.0934 -0.0513 -0.4851
   34MOL   C23919445   5.932   4.169   3.080  0.0715  0.5770  0.0693
   34MOL   C24019446   5.816   4.100   3.002 -0.4388  0.2233 -0.4335
   34MOL   C24119447   5.827   3.942   2.999 -0.2073  0.4410  0.3962
   34MOL   O24219448   5.726   3.876   2.919 -0.3787 -0.7002 -0.2366
   34MOL   C24319449   5.746   3.739   2.894 -0.3094 -0.0689  0.0060
   34MOL   O24419450   5.797   3.667   3.006 -0.1497  0.0339  0.3549
   34MOL   C24519451   5.845   3.726   2.778  0.4612 -0.0112 -0.1473
   34MOL   O24619452   5.804   3.631   2.682  0.5604  0.0035  0.3868
   34MOL   H24719453   6.313   4.502   3.120  1.5846  1.9408 -1.0686
   34MOL   H24819454   6.391   4.466   2.957 -0.6655  1.0786  0.0955
   34MOL   H24919455   6.248   4.298   2.895 -0.6391 -1.0477 -0.0263
   34MOL   H25019456   6.061   4.397   2.908  2.3805 -1.9244 -1.2100
   34MOL   H25119457   6.223   4.177   3.135 -0.3848 -0.9374  0.8165
   34MOL   H25219458   6.114   4.297   3.170 -0.8816  0.5876 -0.9616
   34MOL   H25319459   5.911   4.271   3.111  1.8016  0.9084  0.1863
   34MOL   H25419460   5.956   4.107   3.166 -0.8286  0.1678  0.0320
   34MOL   H25519461   5.823   4.140   2.901 -0.7447 -1.1058 -0.9909
   34MOL   H25619462   5.717   4.134   3.035 -0.2144  0.3868  0.0718
   34MOL   H25719463   5.926   3.918   2.960 -0.5743 -2.3543  1.1245
   34MOL   H25819464   5.821   3.907   3.102 -1.2969  3.9053  1.5721
   34MOL   H25919465   5.647   3.702   2.869 -0.2592  0.3061 -0.7622
   34MOL   H26019466   5.734   3.639   3.070  0.2768  0.6300  1.0306
   34MOL   H26119467   5.847   3.818   2.720 -0.6496  0.2472  0.2261
   34MOL   H26219468   5.945   3.707   2.817  1.1224  0.6389 -1.4625
   34MOL   C26319469   5.808   3.500   2.724 -0.3445  0.3150  0.6948
   34MOL   C26419470   5.750   3.405   2.612  0.5434  0.2266 -0.2377
   34MOL   O26519471   5.616   3.424   2.602  0.1894  0.6876 -0.2843
   34MOL   C26619472   5.809   3.439   2.479  0.6561  0.0192 -1.0222
   34MOL   O26719473   5.798   3.329   2.391  0.1821  0.2444 -0.4559
   34MOL   C26819474   5.901   3.312   2.288 -0.1791 -0.3311 -0.1615
   34MOL   C26919475   5.845   3.235   2.171 -0.5105  0.1121 -0.3614
   34MOL   C27019476   5.961   3.194   2.082 -0.1534  0.1368  0.3314
   34MOL   O27119477   5.928   3.085   2.008  0.6433  0.3626  0.4255
   34MOL   C27219478   6.006   3.068   1.893 -0.0268  0.4727  0.3496
   34MOL   O27319479   6.137   3.065   1.911 -0.4504  0.6656  0.0844
   34MOL   C27419480   5.958   2.933   1.831 -0.0197  0.8080 -0.1450
   34MOL   O27519481   5.968   2.823   1.917  0.2911  0.6251 -0.1162
   34MOL   H27619482   5.743   3.480   2.809  0.1998 -0.9712  0.8167
   34MOL   H27719483   5.909   3.472   2.753 -1.5421 -2.3482  2.4386
   34MOL   H27819484   5.772   3.302   2.641 -0.5842 -0.0161 -0.1951
   34MOL   H27919485   5.594   3.512   2.577  0.3800  0.8121 -0.0189
   34MOL   H28019486   5.748   3.525   2.450 -2.0328 -0.2892  3.2862
   34MOL   H28119487   5.915   3.466   2.485  1.2334 -2.0037 -1.7249
   34MOL   H28219488   5.979   3.265   2.348 -1.1645 -1.2404  0.4236
   34MOL   H28319489   5.939   3.411   2.262 -1.6970  0.2486 -0.2287
   34MOL   H28419490   5.787   3.302   2.107 -0.4177  0.7740  0.2421
   34MOL   H28519491   5.789   3.145   2.196  0.0375 -0.0819  0.1891
   34MOL   H28619492   5.975   3.276   2.011  0.3177  1.8023  2.3149
   34MOL   H28719493   6.057   3.169   2.127  1.0232  4.2368  0.2400
   34MOL   H28819494   5.986   3.153   1.828 -0.5027  0.4784  0.4991
   34MOL   H28919495   6.145   2.998   1.977 -1.5450 -0.9611 -1.3624
   34MOL   H29019496   5.856   2.954   1.800 -0.7816 -2.2478  0.1271
   34MOL   H29119497   5.998   2.913   1.732 -2.0041 -1.2697 -0.5755
   34MOL   C29219498   5.893   2.715   1.860 -0.8255 -0.0970  0.1327
   34MOL   C29319499   5.905   2.597   1.963 -0.0127 -0.0650 -0.3525
   34MOL   O29419500   5.873   2.648   2.093 -0.6788  0.1883 -0.3054
   34MOL   C29519501   5.804   2.491   1.926 -0.2857  0.4602 -0.4326
   34MOL   O29619502   5.823   2.441   1.797 -0.7408 -0.5049  0.2557
   34MOL   C29719503   5.875   2.308   1.804  0.2691  0.3452  0.5317
   34MOL   C29819504   6.028   2.321   1.821 -0.5004  0.3707  0.1346
   34MOL   C29919505   6.107   2.195   1.776  0.1793  0.3468 -0.2951
   34MOL   O30019506   6.246   2.226   1.795 -0.4423 -0.1834 -0.0739
   34MOL   C30119507   6.329   2.152   1.712  0.0910  0.1234  0.0492
   34MOL   O30219508   6.344   2.210   1.588  0.2301 -0.3636 -0.0732
   34MOL   C30319509   6.456   2.112   1.779 -0.2675 -0.8427  0.4904
   34MOL   O30419510   6.469   1.971   1.790  0.1272 -0.8256  0.0420
   34MOL   H30519511   5.790   2.747   1.848  0.0454  2.5166 -0.7671
   34MOL   H30619512   5.934   2.684   1.764 -3.1124  2.0004 -1.5887
   34MOL   H30719513   6.004   2.555   1.950 -1.1705 -2.4894 -1.7443
   34MOL   H30819514   5.882   2.742   2.079 -0.5453  0.4243  1.3141
   34MOL   H30919515   5.793   2.420   2.008 -1.6995  1.3955  0.2228
   34MOL   H31019516   5.701   2.526   1.921 -0.2176  0.7517  0.1081
   34MOL   H31119517   5.851   2.272   1.704  2.2533  3.9036 -1.3302
   34MOL   H31219518   5.824   2.247   1.877 -0.4235 -0.0246 -0.2496
   34MOL   H31319519   6.037   2.349   1.926  0.5090 -2.4824  0.8593
   34MOL   H31419520   6.068   2.409   1.771 -1.5455 -0.7442 -2.7429
   34MOL   H31519521   6.087   2.097   1.821  3.1601  0.2598  0.8892
   34MOL   H31619522   6.082   2.172   1.672  0.1867  1.3242 -0.5134
   34MOL   H31719523   6.276   2.059   1.688  1.0969 -0.0855 -1.4675
   34MOL   H31819524   6.395   2.286   1.611  0.9200 -1.0406  0.6187
   34MOL   H31919525   6.461   2.161   1.877  0.6741  0.6611 -0.2958
   34MOL   H32019526   6.541   2.135   1.716  0.5646 -0.7869  1.6201
   34MOL   C32119527   6.603   1.929   1.816  0.4263 -0.2539  0.3509
   34MOL   C32219528   6.612   1.775   1.823  0.1466 -0.0408 -0.4165
   34MOL   O32319529   6.576   1.724   1.696  0.2472  0.3790 -0.2273
   34MOL   C32419530   6.752   1.721   1.851  0.1503  0.1667 -0.3000
   34MOL   O32519531   6.730   1.588   1.900 -0.3744 -0.2118  0.0744
   34MOL   C32619532   6.703   1.583   2.039  0.0720 -0.1512  0.5258
   34MOL   C32719533   6.826   1.624   2.116 -0.3375 -0.3466  0.5387
   34MOL   C32819534   6.810   1.624   2.269 -0.4398 -0.4030 -0.0369
   34MOL   O32919535   6.927   1.684   2.324  0.4468 -0.1504 -0.0388
   34MOL   C33019536   6.920   1.715   2.462  0.8237 -0.1243 -0.2388
   34MOL   O33119537   6.812   1.796   2.499 -0.1042 -0.2539  0.3573
   34MOL   C33219538   6.912   1.583   2.539 -0.1401  0.4728  0.0207
   34MOL   O33319539   7.017   1.574   2.636  0.0826  0.3518  0.8112
   34MOL   H33419540   6.619   1.960   1.919  0.9703 -0.7399  0.4167
   34MOL   H33519541   6.679   1.965   1.747 -0.6696  0.6336 -0.3913
   34MOL   H33619542   6.537   1.750   1.897  0.4894  1.5572  0.4884
   34MOL   H33719543   6.598   1.633   1.689 -0.0295 -0.0219  3.2919
   34MOL   H33819544   6.816   1.786   1.911 -0.9886  2.0152 -1.0412
   34MOL   H33919545   6.820   1.720   1.765 -0.1102 -0.5655 -0.4998
   34MOL   H34019546   6.672   1.487   2.079  2.1095 -0.8490  0.4917
   34MOL   H34119547   6.612   1.639   2.062 -1.9488 -2.5259 -1.4517
   34MOL   H34219548   6.907   1.557   2.086  1.6150  0.3256  3.9580
   34MOL   H34319549   6.861   1.726   2.099 -2.2389  0.3404  0.6594
   34MOL   H34419550   6.722   1.685   2.290  0.6493  0.8162  1.0376
   34MOL   H34519551   6.782   1.521   2.289  2.7835 -1.4187 -0.5071
   34MOL   H34619552   7.014   1.767   2.478  1.4186  0.1680 -4.0377
   34MOL   H34719553   6.827   1.876   2.451 -0.7689  1.4235  2.8049
   34MOL   H34819554   6.815   1.586   2.588 -1.6862  1.6725 -2.9989
   34MOL   H34919555   6.922   1.501   2.468 -3.5585  1.5203 -1.7497
   34MOL   C35019556   7.121   1.497   2.600  0.3342  0.6613  0.5181
   34MOL   C35119557   7.241   1.531   2.689  0.0583  0.6192 -0.2609
   34MOL   O35219558   7.346   1.437   2.677 -0.4342 -0.4230 -0.6888
   34MOL   C35319559   7.302   1.673   2.654  0.2909  0.0627  0.2366
   34MOL   O35419560   7.360   1.739   2.759 -0.4701 -0.1648  0.1058
   34MOL   C35519561   7.367   1.877   2.742  0.5138 -0.5358 -0.4240
   34MOL   C35619562   7.398   1.934   2.883 -0.1024 -0.1748  0.3126
   34MOL   C35719563   7.519   1.871   2.949 -0.4451 -0.2397  0.3531
   34MOL   O35819564   7.558   1.967   3.050  0.0919  0.6200 -0.0185
   34MOL   C35919565   7.664   1.911   3.129  0.3581  0.1752 -0.8698
   34MOL   O36019566   0.085   1.873   3.051  0.1982 -0.0873  0.0254
   34MOL   C36119567   7.692   2.010   3.245  0.3732  0.0139  0.4060
   34MOL   O36219568   0.038   2.144   3.205  0.1196 -0.7546 -0.4297
   34MOL   H36319569   7.147   1.513   2.496  0.8327  0.9628  0.6859
   34MOL   H36419570   7.093   1.392   2.599 -0.3005  0.8304 -1.0765
   34MOL   H36519571   7.218   1.526   2.796  1.5010  0.5973  0.0529
   34MOL   H36619572   7.416   1.473   2.730 -2.3012 -0.2757  1.7705
   34MOL   H36719573   7.380   1.678   2.578 -0.3182 -0.2027 -0.4142
   34MOL   H36819574   7.213   1.722   2.615  0.7137  0.0551 -0.7709
   34MOL   H36919575   7.279   1.925   2.699  1.2210  1.5647  0.4072
   34MOL   H37019576   7.445   1.897   2.668  1.3050  1.0880  0.8074
   34MOL   H37119577   7.316   1.949   2.953  0.4224  1.9809  0.5097
   34MOL   H37219578   7.412   2.040   2.862  0.8514 -0.0817  1.3845
   34MOL   H37319579   7.507   1.767   2.979  3.1606 -0.8520 -0.1604
   34MOL   H37419580   7.591   1.865   2.868 -0.2114  1.3704  0.4254
   34MOL   H37519581   7.626   1.818   3.173 -2.0826  0.9505 -1.2801
   34MOL   H37619582   0.117   1.953   3.013  1.3251 -0.3503  0.3973
   34MOL   H37719583   7.603   2.014   3.308  1.1428 -1.1557  1.5745
   34MOL   H37819584   0.079   1.963   3.300 -0.0089 -0.9579  0.1513
   34MOL   C37919585   7.618   2.233   3.193 -0.1182  0.3034 -0.1574
   34MOL   C38019586   7.657   2.370   3.140 -0.5295  0.1076  0.4933
   34MOL   O38119587   7.663   2.362   3.001 -0.0077 -0.2183  0.1450
   34MOL   C38219588   7.550   2.477   3.164 -0.3916  0.9516  0.3022
   34MOL   O38319589   7.416   2.427   3.144 -0.4644  0.5806  0.2485
   34MOL   C38419590   7.313   2.516   3.179  0.5948  0.2391 -0.5359
   34MOL   C38519591   7.181   2.467   3.119  0.4235 -0.0168 -0.1907
   34MOL   C38619592   7.192   2.444   2.963 -0.0991 -0.2918  0.1333
   34MOL   O38719593   7.070   2.421   2.919  0.1623  0.6168  0.1428
   34MOL   C38819594   7.005   2.521   2.844 -0.2720 -0.6623  0.9344
   34MOL   O38919595   7.057   2.558   2.713  0.2336  0.0836 -0.3982
   34MOL   C39019596   6.856   2.481   2.827 -0.3934 -0.3599 -0.2958
   34MOL   O39119597   6.859   2.374   2.736 -0.2872 -0.1429 -0.3705
   34MOL   H39219598   7.579   2.251   3.293 -0.2604 -0.5555 -0.0553
   34MOL   H39319599   7.522   2.208   3.148 -1.6643 -0.0451  3.1704
   34MOL   H39419600   0.060   2.404   3.173  0.7620 -1.4659 -1.5411
   34MOL   H39519601   7.588   2.310   2.979 -1.0302  1.0497  0.5950
   34MOL   H39619602   7.557   2.510   3.267  2.7953  1.5546 -0.0638
   34MOL   H39719603   7.583   2.565   3.110  2.8482 -0.3519  0.0576
   34MOL   H39819604   7.339   2.619   3.153  1.0450  0.2824  0.0673
   34MOL   H39919605   7.295   2.521   3.286 -1.9214 -0.7323 -0.8646
   34MOL   H40019606   7.111   2.548   3.138  0.3793 -0.1573  0.2486
   34MOL   H40119607   7.149   2.380   3.175 -0.1674  0.0865 -0.3713
   34MOL   H40219608   7.236   2.534   2.920 -0.3640  0.7244  1.8945
   34MOL   H40319609   7.251   2.357   2.935  2.0211  0.1372  3.0042
   34MOL   H40419610   7.003   2.615   2.899  0.3917 -0.1401  0.0904
   34MOL   H40519611   7.059   2.480   2.660  1.1010  0.9916 -1.7265
   34MOL   H40619612   6.805   2.465   2.922 -0.2349  0.3045 -0.0936
   34MOL   H40719613   6.810   2.570   2.784 -0.4778  0.5691  1.6853
   34MOL   C40819614   6.748   2.367   2.651  0.1843  0.7278  0.4361
   34MOL   C40919615   6.712   2.221   2.613 -0.7064  0.8074  0.0199
   34MOL   O41019616   6.657   2.152   2.724  0.0988 -0.3005 -0.2566
   34MOL   C41119617   6.837   2.149   2.553 -0.1790  0.7356 -0.7323
   34MOL   O41219618   6.812   2.058   2.449  0.3237  0.4572  0.0290
   34MOL   C41319619   6.802   2.109   2.318 -0.1967 -0.1321 -0.8701
   34MOL   C41419620   6.720   2.004   2.232 -0.2369 -0.0384 -0.1947
   34MOL   C41519621   6.579   1.973   2.291  0.0620  0.0233 -0.5032
   34MOL   O41619622   6.503   1.914   2.184  0.0259 -0.3290 -0.3132
   34MOL   C41719623   6.380   1.854   2.228 -0.7258 -0.5683 -0.3283
   34MOL   O41819624   6.409   1.730   2.297 -0.1211 -0.4892  0.1822
   34MOL   C41919625   6.298   1.835   2.105  0.2310 -0.0874 -0.2565
   34MOL   O42019626   6.159   1.877   2.128  0.5929  0.0021  0.1878
   34MOL   H42119627   6.769   2.429   2.564  0.0951  1.5407  0.9851
   34MOL   H42219628   6.664   2.416   2.701 -1.6580 -0.6192 -1.2418
   34MOL   H42319629   6.634   2.219   2.537  0.1061  1.4553 -0.8295
   34MOL   H42419630   6.633   2.063   2.703  0.3136 -0.6682  1.0419
   34MOL   H42519631   6.913   2.226   2.539  0.0495  0.6795  0.1410
   34MOL   H42619632   6.882   2.085   2.630 -2.0164  0.9511  0.5539
   34MOL   H42719633   6.747   2.203   2.317  1.2549  0.7379 -0.3637
   34MOL   H42819634   6.903   2.120   2.279 -0.0512 -2.2966 -1.1503
   34MOL   H42919635   6.777   1.912   2.239  0.9482  0.6223 -1.0781
   34MOL   H43019636   6.703   2.038   2.130  1.9324  1.2454 -0.1508
   34MOL   H43119637   6.575   1.900   2.371 -1.3316 -1.4496 -1.8809
   34MOL   H43219638   6.539   2.068   2.327  0.6297  0.9759 -2.2979
   34MOL   H43319639   6.329   1.923   2.295  0.3618 -0.3115  0.2384
   34MOL   H43419640   6.334   1.673   2.304 -0.0862 -0.6133 -0.3738
   34MOL   H43519641   6.349   1.884   2.022  0.9140  0.5663  0.5316
   34MOL   H43619642   6.305   1.729   2.080  1.5088  0.1559 -0.9747
   34MOL   C43719643   6.069   1.814   2.037 -0.4464 -0.1050 -0.5644
   34MOL   C43819644   5.923   1.849   2.051 -0.9309  0.3060 -0.6191
   34MOL   O43919645   5.900   1.969   1.977  0.1237  0.1752 -0.5266
   34MOL   C44019646   5.857   1.866   2.187 -0.2393  0.0893 -0.5534
   34MOL   O44119647   5.783   1.749   2.230  0.2466 -0.2691  0.0713
   34MOL   C44219648   5.857   1.631   2.248 -0.5052  0.6126  0.7586
   34MOL   C44319649   5.771   1.543   2.330  0.5965 -0.2427  0.1424
   34MOL   C44419650   5.852   1.427   2.394 -0.0197 -0.1620  0.7448
   34MOL   O44519651   5.768   1.332   2.464 -0.0724 -0.3713  0.4711
   34MOL   C44619652   5.829   1.210   2.490 -0.5398 -0.0811  0.7857
   34MOL   O44719653   5.821   1.126   2.374 -0.0980  0.3849 -0.2458
   34MOL   C44819654   5.744   1.152   2.601  0.2451 -0.2660  0.9722
   34MOL   O44919655   5.791   1.199   2.722  0.0083 -0.5119 -0.2796
   34MOL   H45019656   6.096   1.846   1.936  2.4116 -1.6077 -0.3166
   34MOL   H45119657   6.082   1.706   2.036  1.5648  0.1156 -0.2715
   34MOL   H45219658   5.865   1.779   1.990  0.4241  0.3385 -1.9921
   34MOL   H45319659   5.929   2.048   2.021  1.6761 -0.0174 -1.1774
   34MOL   H45419660   5.931   1.898   2.260 -0.3659  0.9480 -0.7881
   34MOL   H45519661   5.780   1.943   2.177  0.2011  0.7637  1.0601
   34MOL   H45619662   5.956   1.638   2.292 -0.2023  0.3974  0.1245
   34MOL   H45719663   5.888   1.588   2.152 -0.7660 -0.1137  0.9921
   34MOL   H45819664   5.690   1.509   2.265  0.5140  1.7257 -0.8337
   34MOL   H45919665   5.728   1.602   2.410  0.2185  0.6966 -0.7371
   34MOL   H46019666   5.907   1.376   2.314 -3.4803 -1.0253 -1.1851
   34MOL   H46119667   5.938   1.450   2.457  0.9661  0.3621 -0.7662
   34MOL   H46219668   5.932   1.231   2.519 -0.1232 -0.9909  0.0093
   34MOL   H46319669   5.736   1.147   2.338  0.0418 -1.3257 -1.6796
   34MOL   H46419670   5.641   1.175   2.576  0.4950 -0.3544 -0.1776
   34MOL   H46519671   5.752   1.043   2.607 -0.8242 -0.3645  0.6709
   34MOL   C46619672   5.719   1.167   2.835 -0.4364  0.2963 -0.5261
   34MOL   C46719673   5.770   1.239   2.961 -0.5553  0.3751  0.4881
   34MOL   O46819674   5.809   1.366   2.923  0.4835 -0.1666  0.5533
   34MOL   C46919675   5.679   1.260   3.086  1.0576 -0.3720 -0.0902
   34MOL   O47019676   5.542   1.285   3.065 -0.2770 -0.0571 -0.4313
   34MOL   C47119677   5.463   1.235   3.170 -0.2671 -0.1199  0.9996
   34MOL   C47219678   5.315   1.264   3.141  0.3817 -0.6486 -0.1881
   34MOL   C47319679   5.228   1.231   3.262  0.4952 -0.1775  0.2576
   34MOL   O47419680   5.231   1.344   3.345  0.0710  1.0181 -0.0550
   34MOL   C47519681   5.169   1.322   3.466  0.1382  1.4539 -0.2525
   34MOL   O47619682   5.030   1.337   3.453  0.7565 -0.5791  0.8491
   34MOL   C47719683   5.229   1.415   3.564 -0.2202 -0.0673  0.2469
   34MOL   O47819684   5.244   1.361   3.693 -0.1899 -0.0833 -0.5853
   34MOL   H47919685   5.716   1.059   2.851 -0.9266  0.3791 -0.0342
   34MOL   H48019686   5.613   1.191   2.825 -0.8951 -1.0009  0.9395
   34MOL   H48119687   5.853   1.179   2.998  1.6438  2.1624 -1.3314
   34MOL   H48219688   5.850   1.346   2.841  0.1898  0.6679  0.2000
   34MOL   H48319689   5.696   1.174   3.151  0.7392  0.6650  1.3830
   34MOL   H48419690   5.718   1.343   3.145 -2.4669  0.2684  1.4676
   34MOL   H48519691   5.500   1.271   3.266  1.7713  1.2240 -0.2392
   34MOL   H48619692   5.465   1.126   3.173 -1.0287 -0.1644 -0.0141
   34MOL   H48719693   5.284   1.205   3.055  1.2147 -2.0687  0.4692
   34MOL   H48819694   5.307   1.369   3.111  1.2629 -1.1155 -2.1794
   34MOL   H48919695   5.129   1.205   3.224  1.0607  0.5079 -1.7759
   34MOL   H49019696   5.278   1.148   3.313  2.8644  1.6284  0.9830
   34MOL   H49119697   5.199   1.221   3.494  0.8260  1.0430 -2.4111
   34MOL   H49219698   4.994   1.250   3.463  0.0184 -0.2549  1.0919
   34MOL   H49319699   5.333   1.436   3.538 -0.5548  1.1172 -0.1565
   34MOL   H49419700   5.179   1.512   3.561  2.0723  1.1278 -0.6744
   34MOL   C49519701   5.127   1.369   3.770 -0.3948  0.0185 -0.1467
   34MOL   C49619702   5.111   1.512   3.839 -0.6927  0.4916  0.0541
   34MOL   O49719703   4.990   1.494   3.905  0.3401  0.3591 -0.0104
   34MOL   C49819704   5.217   1.525   3.949  0.3093  0.5861  0.1134
   34MOL   O49919705   5.180   1.625   4.043  0.0736  0.0134  0.2928
   34MOL   C50019706   5.282   1.688   4.119 -0.3479 -0.3952  0.1626
   34MOL   C50119707   5.202   1.746   4.235 -1.2501  0.1018 -0.5238
   34MOL   C50219708   5.141   1.644   4.330 -0.7207 -0.5672  0.0605
   34MOL   O50319709   5.070   1.699   4.434  0.2718  0.4175 -0.7789
   34MOL   C50419710   4.966   1.629   4.495 -0.5180  0.5623  0.9066
   34MOL   O50519711   4.844   1.669   4.450 -0.3827  0.0031  0.0319
   34MOL   C50619712   4.960   1.665   4.646 -0.3173  0.1654  0.8392
   34MOL   O50719713   4.940   1.803   4.656  0.0282  0.2258  0.4056
   34MOL   H50819714   5.130   1.298   3.853  1.3015  1.1809  0.8416
   34MOL   H50919715   5.041   1.340   3.711 -1.4296  1.7576  0.4512
   34MOL   H51019716   5.103   1.587   3.761 -0.8599  2.5580  2.0054
   34MOL   H51119717   5.000   1.536   3.989  1.0790 -0.1148  0.1359
   34MOL   H51219718   5.241   1.431   3.998 -2.6399 -0.1588  0.2244
   34MOL   H51319719   5.312   1.562   3.912 -0.0745  1.2104 -0.2685
   34MOL   H51419720   5.334   1.765   4.063 -0.6780  0.7477  1.4033
   34MOL   H51519721   5.361   1.619   4.150  1.3164  1.3958  0.0214
   34MOL   H51619722   5.127   1.816   4.198 -1.0541 -0.0991 -1.3061
   34MOL   H51719723   5.267   1.811   4.294 -1.6572 -0.0468  0.0914
   34MOL   H51819724   5.079   1.579   4.269 -1.0904  2.2842 -2.7755
   34MOL   H51919725   5.221   1.582   4.370 -1.8560 -1.1094  1.5062
   34MOL   H52019726   4.973   1.522   4.473  0.7767  0.9067 -0.3878
   34MOL   H52119727   4.838   1.756   4.489  0.9142 -1.0366  2.6986
   34MOL   H52219728   4.880   1.610   4.694  0.5727 -0.8175  1.2230
   34MOL   H52319729   5.054   1.633   4.693 -0.4012  0.5209  1.2517
   34MOL   C52419730   4.952   1.851   4.780  0.3884  0.0526 -0.3304
   34MOL   C52519731   4.937   2.002   4.760  1.2632  0.1381  0.2990
   34MOL   O52619732   5.058   2.050   4.714 -0.3487 -0.3392  0.0645
   34MOL   C52719733   4.911   2.072   4.901 -0.1066 -0.3326  0.1475
   34MOL   O52819734   4.802   2.159   4.883  0.0768 -0.2690 -0.0808
   34MOL   C52919735   4.833   2.265   4.793  0.6142  1.1159 -0.4297
   34MOL   C53019736   4.737   2.375   4.822  0.0800 -0.2538 -0.9940
   34MOL   C53119737   4.607   2.348   4.751  0.1234 -0.0858 -0.3671
   34MOL   O53219738   4.513   2.443   4.802  0.3025 -0.5850 -0.0149
   34MOL   C53319739   4.380   2.400   4.800 -0.1251 -0.0987 -0.2892
   34MOL   O53419740   4.358   2.325   4.918 -0.0230 -0.0115 -0.1488
   34MOL   C53519741   4.284   2.516   4.794  0.6479 -0.7130 -0.3586
   34MOL   O53619742   4.247   2.543   4.654 -0.3807  0.4685  0.0743
   34MOL   H53719743   5.050   1.824   4.819  0.1761 -1.1638 -0.6157
   34MOL   H53819744   4.874   1.816   4.847  2.0072 -0.7742  1.1509
   34MOL   H53919745   4.859   2.022   4.687 -0.0604  0.1208  1.6764
   34MOL   H54019746   5.118   2.042   4.786  0.2811 -1.6209 -0.5796
   34MOL   H54119747   4.893   1.991   4.972 -0.9738  0.2692  0.6212
   34MOL   H54219748   4.992   2.130   4.946 -1.4521  1.6692  0.0421
   34MOL   H54319749   4.823   2.236   4.689  2.2761 -0.3372 -0.1972
   34MOL   H54419750   4.933   2.305   4.811  1.3716 -1.0518  0.3331
   34MOL   H54519751   4.780   2.466   4.781 -0.5409 -0.1774 -1.4775
   34MOL   H54619752   4.715   2.380   4.929  1.8229  0.0024 -0.6328
   34MOL   H54719753   4.602   2.364   4.644 -1.9379  0.0504 -0.2611
   34MOL   H54819754   4.570   2.250   4.782  2.1139 -0.8836 -0.4183
   34MOL   H54919755   4.360   2.329   4.720  2.0127 -0.3363 -0.6512
   34MOL   H55019756   4.270   2.327   4.951 -0.2778 -1.8600 -0.6979
   34MOL   H55119757   4.181   2.498   4.826  1.7565  0.0547  3.9081
   34MOL   H55219758   4.321   2.602   4.850 -1.8409  0.1960 -0.0359
   34MOL   C55319759   4.266   2.679   4.608  0.2286  0.2901 -0.3163
   34MOL   C55419760   4.414   2.710   4.588 -0.0130 -0.1660  0.5905
   34MOL   O55519761   4.422   2.837   4.528  0.2705 -0.8200 -0.5743
   34MOL   C55619762   4.470   2.610   4.495  0.2674  0.5063  0.6953
   34MOL   O55719763   4.610   2.643   4.481 -0.0735 -0.2471  0.1687
   34MOL   C55819764   4.666   2.554   4.384  0.3709 -0.3920  0.9811
   34MOL   C55919765   4.819   2.555   4.378 -0.6071  0.0127 -0.0568
   34MOL   C56019766   4.894   2.511   4.502 -0.2854  0.4343  0.1508
   34MOL   O56119767   5.037   2.504   4.476 -0.1660  0.3127  0.7164
   34MOL   C56219768   5.123   2.511   4.586 -0.3545  0.8180 -0.1681
   34MOL   O56319769   5.129   2.386   4.654 -0.7990 -0.3650 -0.3296
   34MOL   C56419770   5.261   2.543   4.528  0.2339 -0.0056  0.3512
   34MOL   O56519771   5.312   2.437   4.463  0.4483  0.2264 -0.9035
   34MOL   H56619772   4.221   2.755   4.671  1.6117 -1.8361  3.4051
   34MOL   H56719773   4.207   2.678   4.516  2.1675 -0.5892 -1.6097
   34MOL   H56819774   4.465   2.714   4.685  0.1782 -1.9263  0.5801
   34MOL   H56919775   4.509   2.847   4.492  0.7062 -1.4910  0.2838
   34MOL   H57019776   4.455   2.510   4.536  1.0013 -0.3676 -1.0899
   34MOL   H57119777   4.424   2.608   4.396 -2.4114 -2.8624  1.9042
   34MOL   H57219778   4.636   2.449   4.390  1.5910 -0.8676 -0.9195
   34MOL   H57319779   4.634   2.591   4.287  0.1301 -1.4818  0.6299
   34MOL   H57419780   4.860   2.652   4.350  0.9814 -0.7481 -0.4115
   34MOL   H57519781   4.845   2.484   4.299 -0.7025  1.0031 -0.9993
   34MOL   H57619782   4.868   2.578   4.584 -0.3889 -0.4388  0.8376
   34MOL   H57719783   4.864   2.409   4.525  3.8060 -0.8850  0.0674
   34MOL   H57819784   5.097   2.588   4.658 -1.8436 -0.1221  0.3180
   34MOL   H57919785   5.175   2.333   4.591  1.9303  1.6270 -0.1224
   34MOL   H58019786   5.265   2.639   4.475 -0.5311  0.8816  1.8874
   34MOL   H58119787   5.318   2.564   4.618  0.2006  3.3535 -0.3414
   34MOL   H58219788   5.251   2.415   4.395 -0.6095 -0.7062  0.3262
   35MOL     C119789   2.532   5.017   2.322  0.2970  0.0097  0.1628
   35MOL     C219790   2.669   5.058   2.281 -0.8286 -0.0306  0.0694
   35MOL     O319791   2.650   5.188   2.218  0.1604  0.1449  0.2378
   35MOL     C419792   2.767   5.073   2.404 -0.0377  0.2442 -0.1685
   35MOL     O519793   2.780   4.948   2.475 -0.3779  0.3014  0.0671
   35MOL     C619794   2.864   4.940   2.586  0.2434 -0.3834 -0.2258
   35MOL     C719795   2.892   4.795   2.614 -0.4433  0.0537  0.6992
   35MOL     C819796   2.985   4.725   2.514 -0.4543  0.1939  0.0606
   35MOL     O919797   3.121   4.759   2.529 -0.9339 -0.2557 -0.0572
   35MOL    C1019798   3.202   4.701   2.434  0.3250  0.1643 -0.2658
   35MOL    O1119799   3.207   4.566   2.454 -0.1519  0.3606  0.0911
   35MOL    C1219800   3.343   4.770   2.429  0.2038  0.1530  0.4239
   35MOL    O1319801   3.341   4.891   2.367  0.4245 -0.7755 -0.5866
   35MOL    H1419802   2.483   5.101   2.370 -0.0355 -0.4690  0.6557
   35MOL    H1519803   2.535   4.930   2.387  0.1723 -1.0025 -1.1724
   35MOL    H1619804   2.704   4.984   2.209  0.2266  1.0904 -0.5731
   35MOL    H1719805   2.729   5.235   2.240  0.3522 -0.2455  0.3881
   35MOL    H1819806   2.865   5.107   2.370 -0.3765 -0.1662 -1.6156
   35MOL    H1919807   2.733   5.153   2.470  0.4634 -1.1145  1.7574
   35MOL    H2019808   2.802   4.995   2.657  0.5044  0.3096 -0.5318
   35MOL    H2119809   2.955   4.998   2.573 -0.0393 -0.0220 -0.5989
   35MOL    H2219810   2.802   4.735   2.622 -0.5611  0.2804  1.1226
   35MOL    H2319811   2.936   4.800   2.714 -0.4044 -2.0598  0.8010
   35MOL    H2419812   2.953   4.621   2.526 -0.7646  0.5469  2.5679
   35MOL    H2519813   2.954   4.757   2.415  0.8055  3.7648  0.7582
   35MOL    H2619814   3.161   4.705   2.333  1.1472 -0.9502 -0.6618
   35MOL    H2719815   3.240   4.564   2.543  0.2216 -1.7666 -0.0703
   35MOL    H2819816   3.385   4.776   2.529 -1.9420 -2.2120  1.5223
   35MOL    H2919817   3.404   4.701   2.371 -0.6123  1.7615 -2.4341
   35MOL    H3019818   2.469   4.994   2.236 -2.5462  1.2881  1.8241
   35MOL    C3119819   3.453   4.913   2.291  0.6215  0.3622 -0.1996
   35MOL    C3219820   3.438   5.046   2.215  0.0715  0.5377  0.2105
   35MOL    O3319821   3.367   5.014   2.097  0.1374  0.6063  0.5010
   35MOL    C3419822   3.573   5.108   2.173  0.4567 -0.0799  0.0357
   35MOL    O3519823   3.548   5.240   2.120  0.0850 -0.1749 -1.0138
   35MOL    C3619824   3.671   5.313   2.108  0.4696  0.2653  0.2355
   35MOL    C3719825   3.659   5.437   2.018  0.1701 -0.7295 -1.0658
   35MOL    C3819826   3.565   5.402   1.900  0.3198 -0.0799  0.3689
   35MOL    O3919827   3.570   5.516   1.819  0.2237 -0.4934 -0.0326
   35MOL    C4019828   3.518   5.489   1.686 -0.3446 -0.2211 -0.4640
   35MOL    O4119829   3.607   5.406   1.617  0.6874  0.2787 -0.1314
   35MOL    C4219830   3.516   5.613   1.593 -0.4632 -0.6262 -0.2079
   35MOL    O4319831   3.645   5.683   1.592 -0.6961 -0.4239 -0.3347
   35MOL    H4419832   3.541   4.925   2.355  0.7072  2.4369 -0.6468
   35MOL    H4519833   3.463   4.841   2.211  2.3366  1.7260 -1.2566
   35MOL    H4619834   3.378   5.113   2.278  0.1528  0.4108  0.4240
   35MOL    H4719835   3.284   5.054   2.114 -0.3499 -0.5941  0.9713
   35MOL    H4819836   3.629   5.118   2.265 -1.0497  0.5749  0.9034
   35MOL    H4919837   3.621   5.039   2.103 -1.9818 -2.8170  0.9613
   35MOL    H5019838   3.735   5.236   2.066 -2.1738 -1.6707 -0.3915
   35MOL    H5119839   3.702   5.345   2.207 -0.9095  0.4223  0.6254
   35MOL    H5219840   3.758   5.457   1.976  1.6228 -0.3776  2.3333
   35MOL    H5319841   3.644   5.534   2.066 -0.8242  0.6099 -4.0124
   35MOL    H5419842   3.611   5.320   1.847 -1.5501 -0.3875 -0.8318
   35MOL    H5519843   3.468   5.363   1.932 -0.6252  1.3393 -0.6868
   35MOL    H5619844   3.421   5.440   1.689  0.5695 -1.9441  1.7386
   35MOL    H5719845   3.687   5.457   1.614  0.9637 -0.2864 -3.6343
   35MOL    H5819846   3.501   5.576   1.492 -0.1074  0.8096 -0.7966
   35MOL    H5919847   3.427   5.669   1.621  1.7143  3.5596 -1.2863
   35MOL    C6019848   3.661   5.778   1.694  0.1269  0.6508 -0.1449
   35MOL    C6119849   3.803   5.832   1.690 -0.2069 -0.2511  0.2970
   35MOL    O6219850   3.888   5.728   1.742  0.0217  0.3640  0.4222
   35MOL    C6319851   3.820   5.963   1.767  0.4709 -0.1078 -0.2906
   35MOL    O6419852   3.892   6.066   1.701  0.6759 -0.0730  0.1971
   35MOL    C6519853   3.816   6.156   1.632  0.1853 -0.2003  0.3634
   35MOL    C6619854   3.915   6.246   1.557 -0.4567  1.0097  0.0575
   35MOL    C6719855   3.850   6.368   1.490  0.5865 -0.3879  1.0812
   35MOL    O6819856   3.945   6.479   1.467  0.2124  0.0490 -0.5381
   35MOL    C6919857   3.959   6.573   1.565  0.1532  0.0714 -0.3166
   35MOL    O7019858   4.022   6.524   1.681  0.0908 -0.4261  0.9823
   35MOL    C7119859   4.045   6.693   1.512  0.6127  0.1756 -0.1888
   35MOL    O7219860   3.983   6.749   1.409  0.2177  0.2106  0.2167
   35MOL    H7319861   3.637   5.747   1.795  1.3784  0.4571  0.0895
   35MOL    H7419862   3.588   5.853   1.662 -0.0705  1.4751  2.1811
   35MOL    H7519863   3.822   5.856   1.585 -0.3486 -0.3132  0.2566
   35MOL    H7619864   3.862   5.650   1.696 -3.0818  0.7725  1.3634
   35MOL    H7719865   3.722   6.004   1.793  1.4771  0.5344  2.7082
   35MOL    H7819866   3.878   5.935   1.856  0.0768 -2.5473 -0.7775
   35MOL    H7919867   3.745   6.214   1.691  0.3011  1.2260 -0.8548
   35MOL    H8019868   3.764   6.096   1.558  0.7329 -2.4530  1.7739
   35MOL    H8119869   3.984   6.192   1.493 -0.8574  1.1474 -0.4923
   35MOL    H8219870   3.989   6.288   1.626  0.3619  1.1562 -0.9018
   35MOL    H8319871   3.763   6.396   1.549 -0.7007 -2.2474  0.1485
   35MOL    H8419872   3.808   6.337   1.394  1.1109  0.8930  0.4306
   35MOL    H8519873   3.862   6.613   1.595 -0.1930  0.1102 -1.4618
   35MOL    H8619874   4.099   6.476   1.656 -0.5693 -0.2976 -1.4901
   35MOL    H8719875   4.053   6.769   1.590 -2.2600  0.0042  0.3089
   35MOL    H8819876   4.138   6.644   1.483  0.6415  0.2770 -0.2689
   35MOL    C8919877   4.073   6.828   1.331 -0.2227  0.4014 -0.4196
   35MOL    C9019878   3.988   6.906   1.228  0.6894  0.3447  0.0032
   35MOL    O9119879   3.911   7.012   1.284 -0.3848 -0.1469 -0.5090
   35MOL    C9219880   4.076   6.979   1.126 -0.1886  0.2420  0.8569
   35MOL    O9319881   4.127   6.888   1.029 -0.4275  0.2971 -0.1376
   35MOL    C9419882   4.214   6.949   0.932 -0.4696  0.9614 -1.1534
   35MOL    C9519883   4.233   6.849   0.824  0.1060 -0.5478 -0.2613
   35MOL    C9619884   4.366   6.873   0.747 -0.5025 -0.2149 -0.9031
   35MOL    O9719885   4.364   6.809   0.619  0.5861 -0.1586  0.2094
   35MOL    C9819886   4.465   6.839   0.527 -0.4293 -0.2272 -0.3049
   35MOL    O9919887   4.585   6.779   0.562 -0.4261 -0.2678  0.3750
   35MOL   C10019888   4.421   6.777   0.397  0.1791 -0.6078 -0.2114
   35MOL   O10119889   4.315   6.847   0.343 -0.0457 -0.3062  0.0687
   35MOL   H10219890   4.149   6.763   1.287  1.7256  0.9428  2.0091
   35MOL   H10319891   4.134   6.895   1.391 -0.0626  1.6771 -1.9704
   35MOL   H10419892   3.899   6.850   1.198 -0.9744  1.1388  3.2424
   35MOL   H10519893   3.871   6.967   1.358  0.2504  0.1335  0.0084
   35MOL   H10619894   4.021   7.058   1.076  0.1930  0.5617  0.9375
   35MOL   H10719895   4.161   7.032   1.169  0.9463 -1.1818  0.4172
   35MOL   H10819896   4.311   6.964   0.979 -0.8989 -0.7979  0.3504
   35MOL   H10919897   4.173   7.047   0.908 -0.3010  1.9626  2.4511
   35MOL   H11019898   4.149   6.851   0.754 -0.5409  1.1143  0.5320
   35MOL   H11119899   4.239   6.752   0.873  1.7959  0.3728  1.4539
   35MOL   H11219900   4.384   6.980   0.737  1.0580 -0.4323 -0.5583
   35MOL   H11319901   4.452   6.829   0.797  0.3454 -0.0593 -2.1941
   35MOL   H11419902   4.487   6.945   0.521 -0.9034 -0.0928  0.2727
   35MOL   H11519903   4.659   6.825   0.527  1.7310 -1.0557  3.6931
   35MOL   H11619904   4.502   6.776   0.324  0.3357  1.0469 -0.0778
   35MOL   H11719905   4.380   6.677   0.416  3.1152 -1.5674  1.4650
   35MOL   C11819906   4.258   6.774   0.239 -0.2602 -0.2984  0.5547
   35MOL   C11919907   4.167   6.860   0.154 -0.5243  0.3211 -0.6369
   35MOL   O12019908   4.059   6.921   0.217 -0.0426  0.2297  0.1587
   35MOL   C12119909   4.103   6.779   0.041 -0.1006 -0.4246 -0.6057
   35MOL   O12219910   4.053   6.839   7.620  0.1011 -0.0552  0.6955
   35MOL   C12319911   3.930   6.911   7.631  0.0280  0.1570 -0.2783
   35MOL   C12419912   3.891   6.938   7.485 -1.2951 -0.0791 -0.7344
   35MOL   C12519913   3.753   7.009   7.456  0.6030  0.3688 -0.1573
   35MOL   O12619914   3.728   6.985   7.315 -0.1195  0.5159  0.3292
   35MOL   C12719915   3.604   7.036   7.273  0.4672 -0.1864  0.3978
   35MOL   O12819916   3.493   6.971   7.330  0.6125 -0.2439  0.3590
   35MOL   C12919917   3.595   7.035   7.116 -0.0294  0.0202 -0.1601
   35MOL   O13019918   3.498   7.124   7.070 -0.2831  0.2831  1.3889
   35MOL   H13119919   4.333   6.737   0.169 -0.7081  1.3561 -0.8213
   35MOL   H13219920   4.205   6.685   0.274 -1.5134  1.2298  2.6078
   35MOL   H13319921   4.225   6.938   0.104 -2.3253  1.5555 -0.8735
   35MOL   H13419922   4.089   6.986   0.279  0.9638  1.1111 -1.2062
   35MOL   H13519923   4.170   6.703   7.694  0.9762  0.6676 -0.8762
   35MOL   H13619924   4.017   6.723   0.079 -0.7927  0.2645 -1.1346
   35MOL   H13719925   3.935   7.008   7.681  1.7622 -0.7807  1.4433
   35MOL   H13819926   3.860   6.842   7.676 -1.8196 -0.8985 -4.5351
   35MOL   H13919927   3.881   6.844   7.430 -0.9912 -2.0435  2.4112
   35MOL   H14019928   3.977   6.990   7.444 -0.6149 -1.1017 -0.6124
   35MOL   H14119929   3.675   6.968   7.520 -0.6081  1.0712 -1.1415
   35MOL   H14219930   3.744   7.117   7.471 -1.3670  0.1603  0.3130
   35MOL   H14319931   3.595   7.136   7.317  1.5197  0.6086 -1.1602
   35MOL   H14419932   3.424   7.034   7.345  0.0958 -0.2873 -1.6616
   35MOL   H14519933   3.690   7.057   7.068  0.0534  2.8712  1.2738
   35MOL   H14619934   3.575   6.931   7.087 -1.8216 -0.2314  1.8219
   35MOL   C14719935   3.377   7.062   7.030 -0.1791 -0.1699  0.1990
   35MOL   C14819936   3.274   7.162   6.972  0.3168  0.4792 -0.5169
   35MOL   O14919937   3.197   7.226   7.076  0.6837 -0.6246 -0.0829
   35MOL   C15019938   3.160   7.079   6.904  0.4458  0.4627 -0.1291
   35MOL   O15119939   3.059   7.176   6.876  0.3510  0.2177 -0.2696
   35MOL   C15219940   2.932   7.128   6.902 -0.0614  0.2251  0.5472
   35MOL   C15319941   2.827   7.240   6.900  0.3828 -0.7918  0.4419
   35MOL   C15419942   2.845   7.348   6.999 -0.2351 -0.0991  0.0445
   35MOL   O15519943   2.868   7.303   7.137  0.2111  0.2157 -0.2512
   35MOL   C15619944   2.875   7.404   7.237 -0.0036  0.6841 -0.1445
   35MOL   O15719945   2.991   7.483   7.217  0.1614 -0.1088  0.3866
   35MOL   C15819946   2.901   7.332   7.362  0.5253 -0.4995  0.4445
   35MOL   O15919947   3.034   7.276   7.345 -0.0312  0.1452 -0.3337
   35MOL   H16019948   3.330   7.018   7.118  2.1794 -3.8868 -0.2811
   35MOL   H16119949   3.400   6.996   6.947  1.6966 -0.0878  0.6350
   35MOL   H16219950   3.324   7.231   6.904  0.5541  0.3320 -0.4938
   35MOL   H16319951   3.107   7.232   7.047  0.7511 -0.1745 -0.2044
   35MOL   H16419952   3.192   7.025   6.814 -2.0491 -1.9497  0.3840
   35MOL   H16519953   3.128   6.998   6.968  0.6751 -0.4251 -1.1152
   35MOL   H16619954   2.929   7.078   6.999  1.2489 -0.5769  0.1841
   35MOL   H16719955   2.904   7.075   6.812 -1.8743  1.6092  0.2587
   35MOL   H16819956   2.727   7.195   6.901  0.1742 -0.3035  1.9355
   35MOL   H16919957   2.839   7.289   6.803  2.1810 -0.7651  0.6678
   35MOL   H17019958   2.920   7.420   6.966  1.8126 -2.5363 -0.7864
   35MOL   H17119959   2.752   7.405   6.999 -0.8511 -1.0754  0.3354
   35MOL   H17219960   2.787   7.467   7.255  0.1502  0.1207  2.9197
   35MOL   H17319961   3.063   7.421   7.217 -1.6139 -2.2911  2.2964
   35MOL   H17419962   2.904   7.404   7.443  0.0573 -1.5214  1.3746
   35MOL   H17519963   2.825   7.254   7.366  0.3827 -0.4646 -1.1437
   35MOL   C17619964   3.079   7.200   7.461  0.3808 -0.0827 -0.0594
   35MOL   C17719965   3.229   7.195   7.462 -0.8623 -0.2949 -0.9850
   35MOL   O17819966   3.275   7.135   7.342  0.5566 -0.4705 -0.0733
   35MOL   C17919967   3.283   7.116   7.575  0.5079 -0.9931 -0.4113
   35MOL   O18019968   3.400   7.183   7.618 -0.2838 -0.2586 -0.3938
   35MOL   C18119969   3.487   7.108   0.007  0.2366  0.3751  0.8302
   35MOL   C18219970   3.435   7.148   0.149 -0.6155  0.3309  0.0840
   35MOL   C18319971   3.535   7.099   0.257  0.8627  0.4542 -0.1400
   35MOL   O18419972   3.483   7.132   0.380  0.1906 -0.3280 -0.2703
   35MOL   C18519973   3.552   7.082   0.493 -0.0545 -0.4416 -0.0971
   35MOL   O18619974   3.530   6.945   0.512 -0.5095  0.1933  0.2378
   35MOL   C18719975   3.503   7.166   0.614  0.3798 -0.8843  0.6967
   35MOL   O18819976   3.607   7.251   0.665  0.0744  0.5870  0.4542
   35MOL   H18919977   3.036   7.100   7.461  0.7731 -0.3130 -2.9307
   35MOL   H19019978   3.052   7.257   7.549  0.7221  1.4871 -0.9421
   35MOL   H19119979   3.272   7.295   7.461  2.8995 -1.8283 -2.3005
   35MOL   H19219980   3.244   7.189   7.271  1.0970  0.4493  0.3725
   35MOL   H19319981   3.210   7.116   7.656 -0.7046  2.4496 -1.4180
   35MOL   H19419982   3.314   7.015   7.549 -1.8643 -2.4380  2.0752
   35MOL   H19519983   3.588   7.146   7.687  0.7552 -0.2501  2.6638
   35MOL   H19619984   3.488   7.000   7.690  1.3368  0.4450  0.2306
   35MOL   H19719985   3.335   7.106   0.163  0.8714 -2.4031  3.2370
   35MOL   H19819986   3.427   7.257   0.146  3.1310  0.6638  0.8392
   35MOL   H19919987   3.544   6.990   0.258 -3.4703  0.0090  0.4927
   35MOL   H20019988   3.631   7.150   0.252  1.3531 -0.5951 -2.1516
   35MOL   H20119989   3.660   7.095   0.480  0.1301 -1.7516  0.0067
   35MOL   H20219990   3.440   6.944   0.542 -0.2351  2.8182  1.3019
   35MOL   H20319991   3.412   7.216   0.582  0.6464 -0.6714  0.2650
   35MOL   H20419992   3.472   7.088   0.683  1.0818 -1.5821  0.2456
   35MOL   C20519993   3.575   7.304   0.794  0.2997 -0.1898  0.3269
   35MOL   C20619994   3.643   7.210   0.899 -0.7292  0.2669 -0.0622
   35MOL   O20719995   3.791   7.222   0.890  0.0527 -0.3771  0.0979
   35MOL   C20819996   3.608   7.245   1.039 -0.0269 -0.8525 -0.7316
   35MOL   O20919997   3.498   7.173   1.098  0.1063 -0.1355  0.5378
   35MOL   C21019998   3.542   7.056   1.170 -0.6297 -0.2631 -0.1394
   35MOL   C21119999   3.565   7.093   1.311  0.0258 -0.1405  0.0331
   35MOL   C21220000   3.607   6.965   1.393  0.0186 -0.6461 -0.0836
   35MOL   O21320001   3.681   7.014   1.507  0.3720 -0.1305  0.1910
   35MOL   C21420002   3.736   6.915   1.586 -0.1403 -0.1238 -0.4697
   35MOL   O21520003   3.635   6.849   1.659 -0.2856 -0.2244  0.0157
   35MOL   C21620004   3.839   6.976   1.675 -0.3456 -0.3931  0.0263
   35MOL   O21720005   3.951   7.027   1.602  0.2846 -0.3182 -0.1224
   35MOL   H21820006   3.467   7.304   0.806  0.2576 -2.6869  0.0576
   35MOL   H21920007   3.612   7.407   0.803  0.4698 -0.3776  1.8391
   35MOL   H22020008   3.611   7.107   0.886 -1.1665  0.4518 -0.4669
   35MOL   H22120009   3.817   7.184   0.808 -0.1583  1.1126 -0.6691
   35MOL   H22220010   3.691   7.223   1.105  1.0333 -1.5010 -2.2351
   35MOL   H22320011   3.599   7.353   1.051  1.1331 -0.8541  0.2671
   35MOL   H22420012   3.637   7.016   1.134 -0.6177 -0.8795  0.5615
   35MOL   H22520013   3.457   6.989   1.178 -1.4609  0.7465 -0.4699
   35MOL   H22620014   3.474   7.127   1.360  1.7843  1.3093  2.3818
   35MOL   H22720015   3.634   7.177   1.319  0.9182 -0.8375 -0.2679
   35MOL   H22820016   3.524   6.907   1.434 -1.8021  1.1239 -1.2150
   35MOL   H22920017   3.670   6.899   1.333 -0.3962 -1.2645  0.1546
   35MOL   H23020018   3.784   6.835   1.530  3.2559  1.7771 -0.3793
   35MOL   H23120019   3.676   6.792   1.722  1.3329 -0.4283 -1.1997
   35MOL   H23220020   3.802   7.059   1.734 -1.7555 -1.6500  0.9394
   35MOL   H23320021   3.875   6.892   1.734 -0.9326 -0.9343 -0.3729
   35MOL   C23420022   4.056   7.068   1.688 -0.2031  0.2621  0.4810
   35MOL   C23520023   4.138   7.184   1.611 -0.3904 -0.8193  0.5796
   35MOL   O23620024   4.228   7.133   1.511  0.0332 -0.2545 -0.0435
   35MOL   C23720025   4.239   7.237   1.717  0.6178 -0.8558 -0.3495
   35MOL   O23820026   4.327   7.336   1.666  0.1554 -0.0420  0.3541
   35MOL   C23920027   4.430   7.381   1.748  0.4770  0.9185 -0.6249
   35MOL   C24020028   4.524   7.485   1.683  0.2873  0.0095  0.0948
   35MOL   C24120029   4.581   7.451   1.547 -0.3567  0.0415  1.1140
   35MOL   O24220030   4.651   7.557   1.487 -0.5208  0.1606 -0.1776
   35MOL   C24320031   4.786   7.531   1.470  0.4564  0.0610 -0.3003
   35MOL   O24420032   4.854   7.536   1.592 -0.0540 -0.0414 -0.1676
   35MOL   C24520033   4.849   7.634   1.374  0.0495  0.3076 -0.0492
   35MOL   O24620034   4.798   7.600   1.243 -0.2277 -0.6591  0.0848
   35MOL   H24720035   4.011   7.108   1.779  1.1309 -0.8992  1.6858
   35MOL   H24820036   4.124   6.995   1.732 -0.3700 -0.6727 -0.8137
   35MOL   H24920037   4.082   7.265   1.563  2.0889 -0.7166 -2.3001
   35MOL   H25020038   4.310   7.179   1.518  1.0116 -1.7085 -1.6347
   35MOL   H25120039   4.191   7.278   1.806 -0.0674 -0.5030 -0.8723
   35MOL   H25220040   4.299   7.152   1.750  0.0186 -1.1420  0.0293
   35MOL   H25320041   4.496   7.305   1.788 -0.5316  0.6874  0.6472
   35MOL   H25420042   4.386   7.422   1.839  1.4686 -0.0124  0.2982
   35MOL   H25520043   4.605   7.498   1.755  0.5755 -0.9656 -0.0436
   35MOL   H25620044   4.468   7.579   1.675  0.3207  0.2752  2.7324
   35MOL   H25720045   4.648   7.368   1.569 -1.3655 -0.6746  1.5504
   35MOL   H25820046   4.505   7.407   1.484 -0.3139 -0.5786  1.4926
   35MOL   H25920047   4.796   7.433   1.424  0.6628  0.6078 -1.4536
   35MOL   H26020048   4.863   7.628   1.610 -0.9368  0.1829 -0.8792
   35MOL   H26120049   4.828   0.040   1.411 -0.7654 -0.3314  1.2570
   35MOL   H26220050   4.956   7.612   1.371 -0.2138 -1.0322  0.3895
   35MOL   C26320051   4.865   7.659   1.134 -0.3686  0.5806  0.3500
   35MOL   C26420052   4.792   7.614   1.003 -0.1046  0.1189  0.6982
   35MOL   O26520053   4.785   0.047   0.932 -0.1954 -0.1443  0.2735
   35MOL   C26620054   4.881   7.529   0.909 -0.2374 -1.1913  0.4893
   35MOL   O26720055   4.997   7.603   0.855 -0.1128  0.0698  0.0140
   35MOL   C26820056   5.112   7.528   0.839 -0.7888  0.5401  0.0649
   35MOL   C26920057   5.071   7.417   0.738  0.4052 -0.2890  0.4847
   35MOL   C27020058   5.194   7.360   0.655  0.5469 -0.1106  0.1688
   35MOL   O27120059   5.146   7.277   0.554  0.4036  0.0302 -0.7375
   35MOL   C27220060   5.239   7.202   0.472  0.1121 -0.4820 -0.0575
   35MOL   O27320061   5.330   7.121   0.543  0.0267 -0.9531 -0.1924
   35MOL   C27420062   5.168   7.120   0.369  0.0677  0.5707  0.4328
   35MOL   O27520063   5.065   7.046   0.426  0.1704  0.3917 -0.1502
   35MOL   H27620064   4.969   7.629   1.145 -0.4787 -0.5382 -1.4599
   35MOL   H27720065   4.863   0.072   1.151 -3.6233  0.3804  1.6730
   35MOL   H27820066   4.697   7.562   1.018 -0.9947  1.5770  0.2992
   35MOL   H27920067   4.862   0.043   0.877  0.0605  3.5645  0.2665
   35MOL   H28020068   4.928   7.446   0.962 -1.1760 -1.9951  0.0686
   35MOL   H28120069   4.828   7.493   0.821  2.1470  1.3658 -2.1116
   35MOL   H28220070   5.158   7.483   0.927 -0.6650 -0.9612 -0.7444
   35MOL   H28320071   5.178   7.606   0.802  0.4087 -0.8069 -0.6636
   35MOL   H28420072   4.993   7.462   0.677 -1.1016 -1.3588  1.5705
   35MOL   H28520073   5.026   7.331   0.788 -0.4345 -0.7153 -0.9787
   35MOL   H28620074   5.254   7.443   0.618 -4.7635  3.4823 -0.9208
   35MOL   H28720075   5.251   7.288   0.714  0.3507 -1.3012 -1.0485
   35MOL   H28820076   5.303   7.266   0.412  1.7220 -1.5410  0.5047
   35MOL   H28920077   5.286   7.054   0.592 -0.1529  0.8114  2.1326
   35MOL   H29020078   5.137   7.185   0.287  2.2207  2.1105  0.7741
   35MOL   H29120079   5.242   7.046   0.336 -0.6017  1.0761 -2.3510
   35MOL   C29220080   5.000   6.948   0.351  0.4013  0.7239 -1.1586
   35MOL   C29320081   4.940   6.843   0.448  0.5465  0.6677 -0.5693
   35MOL   O29420082   4.796   6.866   0.445 -0.5286 -0.0441 -0.2027
   35MOL   C29520083   4.969   6.698   0.427 -0.4077  0.4401 -0.5048
   35MOL   O29620084   4.942   6.664   0.293 -0.3843  0.6420  0.1515
   35MOL   C29720085   4.965   6.530   0.263 -0.3575  0.2233 -0.3082
   35MOL   C29820086   4.899   6.514   0.121 -0.2267 -0.0702  0.4392
   35MOL   C29920087   4.929   6.383   0.060 -0.3768 -0.0610 -0.3985
   35MOL   O30020088   5.069   6.371   0.024  0.0075  0.4877  0.4520
   35MOL   C30120089   5.095   6.256   7.649 -0.2839  0.0508  0.4412
   35MOL   O30220090   5.033   6.240   7.524 -0.1162 -0.3554 -0.1750
   35MOL   C30320091   5.251   6.243   7.633 -0.0733  0.5299 -1.1091
   35MOL   O30420092   5.293   6.352   7.552 -0.0082 -0.2673  0.0293
   35MOL   H30520093   4.935   7.004   0.284  1.9601  1.3919 -2.1386
   35MOL   H30620094   5.060   6.886   0.284  2.2793  1.4715 -0.2246
   35MOL   H30720095   4.971   6.871   0.549  4.0027  0.6150 -1.5701
   35MOL   H30820096   4.773   6.839   0.358  1.2647 -1.1425 -0.3606
   35MOL   H30920097   5.064   6.664   0.470 -1.4804 -3.0830 -0.7866
   35MOL   H31020098   4.903   6.641   0.491 -2.0285  2.2650 -0.5110
   35MOL   H31120099   4.917   6.466   0.337  0.3168  0.6594  0.5105
   35MOL   H31220100   5.072   6.507   0.264 -0.0496  1.6637  0.1728
   35MOL   H31320101   4.926   6.585   0.042 -1.5181  1.2547  1.1623
   35MOL   H31420102   4.790   6.518   0.133 -0.3086  0.2481 -0.3295
   35MOL   H31520103   4.903   6.307   0.134 -1.0852 -0.2178 -0.8140
   35MOL   H31620104   4.863   6.376   7.669 -0.2672  2.2276 -0.6834
   35MOL   H31720105   5.053   6.170   0.008 -0.5478  0.5890  1.1177
   35MOL   H31820106   5.079   6.301   7.469 -1.1074  1.4959  1.0292
   35MOL   H31920107   5.262   6.145   7.587  1.7466  0.3414 -0.3057
   35MOL   H32020108   5.301   6.244   0.035 -1.9491  0.9508 -0.1337
   35MOL   C32120109   5.429   6.349   7.500  0.1509 -0.1728 -0.5618
   35MOL   C32220110   5.540   6.350   7.610  0.2456 -0.5601  0.4526
   35MOL   O32320111   5.665   6.355   7.541  0.6080 -0.0243  0.0608
   35MOL   C32420112   5.532   6.476   0.001  0.4364  0.3661 -0.0064
   35MOL   O32520113   5.605   6.442   0.120 -0.2240 -0.4807 -0.5158
   35MOL   C32620114   5.576   6.543   0.211  0.1917 -0.4348  0.3749
   35MOL   C32720115   5.655   6.523   0.341 -0.1981  0.5712 -1.0126
   35MOL   C32820116   5.607   6.407   0.424 -0.1711 -0.4603 -0.1162
   35MOL   O32920117   5.664   6.415   0.552  0.0119  0.1245 -0.4484
   35MOL   C33020118   5.628   6.320   0.647 -0.3296  0.5809 -0.1510
   35MOL   O33120119   5.684   6.192   0.613 -0.0190  0.1584 -0.2113
   35MOL   C33220120   5.684   6.366   0.779 -0.2233 -0.4318 -0.3309
   35MOL   O33320121   5.615   6.309   0.887  0.4381 -0.4266 -0.4048
   35MOL   H33420122   5.449   6.430   7.430 -0.1589  0.0565 -0.3815
   35MOL   H33520123   5.446   6.254   7.449 -0.3095 -0.8003  0.4457
   35MOL   H33620124   5.535   6.253   7.660 -0.7410 -1.4046 -1.2461
   35MOL   H33720125   5.734   6.387   7.596  1.7103  0.8896 -1.8149
   35MOL   H33820126   5.428   6.501   0.016  0.3783 -0.3505  0.8229
   35MOL   H33920127   5.575   6.563   7.646  0.5888 -0.7975 -1.9678
   35MOL   H34020128   5.470   6.531   0.233 -0.1624 -0.7870 -1.4277
   35MOL   H34120129   5.586   6.647   0.178  2.8310 -1.1597 -1.2790
   35MOL   H34220130   5.763   6.524   0.326  0.1054 -0.7573  0.8674
   35MOL   H34320131   5.633   6.610   0.404 -1.6326 -0.9321  0.6094
   35MOL   H34420132   5.499   6.416   0.429 -0.1657 -0.6897  0.4838
   35MOL   H34520133   5.640   6.313   0.381  0.2556 -0.8059  0.9495
   35MOL   H34620134   5.519   6.315   0.639 -0.3225  2.6375 -2.1586
   35MOL   H34720135   5.698   6.145   0.694  1.4127  1.0645  0.0944
   35MOL   H34820136   5.788   6.337   0.769 -0.4851 -1.6491  0.3042
   35MOL   H34920137   5.684   6.475   0.785 -0.9444 -0.3787 -1.0948
   35MOL   C35020138   5.643   6.372   1.010  0.1749 -0.1688  0.1626
   35MOL   C35120139   5.581   6.286   1.123  0.1747 -0.2477 -1.0054
   35MOL   O35220140   5.632   6.331   1.255  0.9352 -0.8361  0.5105
   35MOL   C35320141   5.429   6.288   1.123  0.0410 -0.2673 -0.2307
   35MOL   O35420142   5.386   6.424   1.136 -0.2099  0.1712 -0.0693
   35MOL   C35520143   5.255   6.457   1.085 -0.1942  0.5419 -0.4411
   35MOL   C35620144   5.238   6.597   1.123  0.6050 -0.0526 -0.1819
   35MOL   C35720145   5.109   6.661   1.083  0.1189 -0.7154  0.2248
   35MOL   O35820146   5.000   6.607   1.156  0.2208 -0.4907 -0.1804
   35MOL   C35920147   4.981   6.645   1.292 -0.0382  0.5505  0.4157
   35MOL   O36020148   4.970   6.784   1.303  0.1190 -0.2595  0.1799
   35MOL   C36120149   4.847   6.578   1.324  0.7059  0.4085  0.7719
   35MOL   O36220150   4.861   6.460   1.403 -0.0961  0.2990  0.7393
   35MOL   H36320151   5.606   6.474   1.002  0.4479 -0.1817 -1.3652
   35MOL   H36420152   5.749   6.383   1.033  0.2918  0.1329 -0.5201
   35MOL   H36520153   5.614   6.183   1.107 -0.7299 -0.8454  0.9408
   35MOL   H36620154   5.600   6.285   1.331 -0.3738 -0.5463  0.1596
   35MOL   H36720155   5.392   6.242   1.032  1.2566 -1.0536 -0.3452
   35MOL   H36820156   5.380   6.231   1.202 -1.8652  2.8771  0.9303
   35MOL   H36920157   5.188   6.389   1.138  0.0607 -0.2942 -1.1927
   35MOL   H37020158   5.233   6.439   0.980 -2.1883 -0.6596  0.1410
   35MOL   H37120159   5.308   6.659   1.067 -0.4327  1.8494  0.5601
   35MOL   H37220160   5.263   6.610   1.228 -0.4536  0.8908 -0.0351
   35MOL   H37320161   5.124   6.767   1.105  0.7944 -0.4066 -1.6300
   35MOL   H37420162   5.086   6.657   0.976 -0.4188  1.2727  0.2342
   35MOL   H37520163   5.058   6.615   1.364 -0.5809 -1.2179  0.2685
   35MOL   H37620164   4.914   6.810   1.232 -1.9192  0.7873  2.1315
   35MOL   H37720165   4.790   6.654   1.377 -0.6145  0.1820 -0.2895
   35MOL   H37820166   4.800   6.554   1.228  1.1162 -0.1905  0.7184
   35MOL   C37920167   4.940   6.359   1.345  0.5419  0.0966  0.0379
   35MOL   C38020168   4.895   6.291   1.215  0.4292  0.1947 -0.1738
   35MOL   O38120169   4.985   6.195   1.168  0.2732 -0.2409  0.0316
   35MOL   C38220170   4.751   6.229   1.228 -0.3968  0.3846  0.0464
   35MOL   O38320171   4.697   6.187   1.106  0.2909 -0.0591 -0.5015
   35MOL   C38420172   4.564   6.156   1.102 -0.0027 -0.0344  0.2146
   35MOL   C38520173   4.514   6.157   0.955 -0.0751 -0.2280 -0.3254
   35MOL   C38620174   4.492   6.303   0.922  0.9924 -0.3050 -0.2026
   35MOL   O38720175   4.442   6.323   0.793 -0.7874  0.0299  0.3959
   35MOL   C38820176   4.392   6.450   0.761  0.0031 -0.2164  0.2263
   35MOL   O38920177   4.486   6.544   0.739 -0.3545 -0.1968  0.2649
   35MOL   C39020178   4.297   6.452   0.644  0.3520 -0.0925  0.2459
   35MOL   O39120179   4.189   6.532   0.675  1.1432 -0.4782  0.2036
   35MOL   H39220180   4.932   6.280   1.420 -0.4639  0.0629 -0.0945
   35MOL   H39320181   5.046   6.382   1.336  0.5738  0.6802  1.5980
   35MOL   H39420182   4.896   6.361   1.132 -0.8512  1.8486  1.1671
   35MOL   H39520183   4.941   6.113   1.183 -0.6465  0.2829  0.1947
   35MOL   H39620184   4.757   6.143   1.295 -0.6720 -1.0041 -1.7008
   35MOL   H39720185   4.681   6.292   1.284 -1.9051 -2.0881  1.0125
   35MOL   H39820186   4.522   6.239   1.160 -1.8632 -2.4813  2.5115
   35MOL   H39920187   4.535   6.064   1.153 -0.1781  1.3391  2.7304
   35MOL   H40020188   4.421   6.101   0.952 -0.8215  1.0524 -1.9861
   35MOL   H40120189   4.589   6.108   0.892  1.7695  1.4270  0.5341
   35MOL   H40220190   4.413   6.341   0.987 -0.2066 -0.5964 -1.4631
   35MOL   H40320191   4.577   6.368   0.937  0.4206  1.0631 -2.6454
   35MOL   H40420192   4.331   6.492   0.841 -0.2806  0.2104 -0.2071
   35MOL   H40520193   4.446   6.609   0.683  1.2378 -1.5274 -2.5553
   35MOL   H40620194   4.349   6.491   0.557  1.6114  0.3088  1.1578
   35MOL   H40720195   4.261   6.351   0.622  0.8246  0.2704 -2.2710
   35MOL   C40820196   4.120   6.573   0.556 -0.1936  0.9485  0.2962
   35MOL   C40920197   3.972   6.533   0.564 -0.1324 -0.8569 -0.4329
   35MOL   O41020198   3.945   6.398   0.545 -0.3447  0.0853 -0.6976
   35MOL   C41120199   3.903   6.611   0.454 -1.2213 -0.2386 -0.7018
   35MOL   O41220200   3.766   6.634   0.475  0.0383 -0.1628  0.0827
   35MOL   C41320201   3.689   6.707   0.378  0.6808 -0.3096 -0.7173
   35MOL   C41420202   3.699   6.657   0.239  0.1706 -0.0075 -0.5358
   35MOL   C41520203   3.579   6.678   0.149 -0.1505 -0.1363 -0.9164
   35MOL   O41620204   3.601   6.632   0.017 -0.3822 -0.2818 -0.1829
   35MOL   C41720205   3.518   6.682   7.611  0.1907 -0.4809  0.1020
   35MOL   O41820206   3.390   6.626   7.621  0.3483 -0.0074 -0.9841
   35MOL   C41920207   3.588   6.651   7.479 -0.3886  0.2093 -0.1694
   35MOL   O42020208   3.619   6.519   7.471 -0.1821 -0.3033 -0.3558
   35MOL   H42120209   4.154   6.516   0.469  0.4452  2.4440 -0.4478
   35MOL   H42220210   4.129   6.680   0.538 -3.1608  1.2467  0.3451
   35MOL   H42320211   3.924   6.568   0.656  0.8625  2.0905 -0.9752
   35MOL   H42420212   3.862   6.372   0.582  0.6502  0.1207  1.6641
   35MOL   H42520213   3.959   6.704   0.445 -1.2604 -0.1048  0.3511
   35MOL   H42620214   3.924   6.559   0.361 -0.3914  1.1571 -1.3232
   35MOL   H42720215   3.586   6.708   0.414  0.7023  1.0548 -0.6902
   35MOL   H42820216   3.733   6.806   0.385 -0.3078  0.0526  0.4830
   35MOL   H42920217   3.725   6.552   0.243  0.9799  0.2572  2.0356
   35MOL   H43020218   3.778   6.712   0.187 -1.4054  2.7948 -0.0901
   35MOL   H43120219   3.490   6.630   0.190 -0.0285  1.2162  0.9735
   35MOL   H43220220   3.545   6.781   0.147 -0.4130 -0.1710  1.3275
   35MOL   H43320221   3.518   6.790   7.628  0.4972 -0.8039  2.3930
   35MOL   H43420222   3.368   6.620   7.530 -0.1037  0.2198 -0.8900
   35MOL   H43520223   3.525   6.674   7.394 -0.2989  2.3610  0.3094
   35MOL   H43620224   3.677   6.714   7.478 -1.2249  1.4181  0.3047
   35MOL   C43720225   3.741   6.484   7.407 -0.2082 -0.2319 -0.2856
   35MOL   C43820226   3.726   6.482   7.254  0.6248  0.1945  0.4092
   35MOL   O43920227   3.814   6.393   7.194 -0.0622 -0.8575 -0.5125
   35MOL   C44020228   3.721   6.623   7.177 -0.1561  0.0729  0.6416
   35MOL   O44120229   3.827   6.692   7.243  0.2366  0.1804  0.0805
   35MOL   C44220230   3.887   6.794   7.166 -0.5014  0.3151  0.4541
   35MOL   C44320231   3.990   6.720   7.085  0.3120  0.1297  0.5189
   35MOL   C44420232   4.098   6.658   7.181  0.2837 -0.0327 -0.1165
   35MOL   O44520233   4.079   6.520   7.191 -0.8309  0.6494  0.0996
   35MOL   C44620234   4.160   6.455   7.285 -0.1061  1.0484  0.2485
   35MOL   O44720235   4.292   6.484   7.273 -0.7005 -0.0612  0.2695
   35MOL   C44820236   4.137   6.301   7.269 -0.9004 -0.5686 -0.1762
   35MOL   O44920237   4.019   6.270   7.339  0.6957 -0.1579 -0.2100
   35MOL   H45020238   3.829   6.540   7.441 -0.8281  1.1553 -0.9163
   35MOL   H45120239   3.754   6.381   7.440 -0.9601 -1.2589 -3.0738
   35MOL   H45220240   3.629   6.434   7.239  0.8708 -0.5236  1.0444
   35MOL   H45320241   3.898   6.436   7.194 -1.0515  1.1791  0.9504
   35MOL   H45420242   3.728   6.603   7.070 -0.7491 -2.4667  1.0455
   35MOL   H45520243   3.632   6.681   7.202  1.3411  2.5954  0.2154
   35MOL   H45620244   3.942   6.868   7.225  0.2377  1.0705 -1.1604
   35MOL   H45720245   3.805   6.844   7.115  0.2230  0.8838 -0.1483
   35MOL   H45820246   4.042   6.793   7.024 -1.4748  2.2539  1.4879
   35MOL   H45920247   3.950   6.647   7.014 -1.6584  0.5098  1.2082
   35MOL   H46020248   4.194   6.682   7.137  0.5936 -0.6058  0.2447
   35MOL   H46120249   4.104   6.710   7.277 -0.2003  0.5872 -0.4146
   35MOL   H46220250   4.133   6.486   7.386 -0.7975 -1.1313  0.7500
   35MOL   H46320251   4.342   6.427   7.329 -0.7644 -1.4620 -1.0357
   35MOL   H46420252   4.120   6.279   7.164 -0.1421 -1.0973 -0.1958
   35MOL   H46520253   4.224   6.245   7.304 -1.7600 -0.2014  2.6660
   35MOL   C46620254   4.014   6.128   7.363 -0.0195  0.1923 -0.6524
   35MOL   C46720255   3.863   6.089   7.367  0.1683  0.3822 -0.2304
   35MOL   O46820256   3.822   6.092   7.235 -0.4906 -0.0505  0.2807
   35MOL   C46920257   3.833   5.953   7.424  0.1852 -0.2861  0.1435
   35MOL   O47020258   3.932   5.874   7.364 -0.4024 -0.0089 -0.0438
   35MOL   C47120259   3.932   5.741   7.403  0.3132 -0.5751  0.6969
   35MOL   C47220260   4.027   5.665   7.314  0.3312 -0.3560 -0.6331
   35MOL   C47320261   4.170   5.725   7.303 -0.1960 -0.0404 -0.4275
   35MOL   O47420262   4.213   5.766   7.439 -0.1189  0.8930  0.5530
   35MOL   C47520263   4.280   5.885   7.451 -0.5059  0.2570 -0.3397
   35MOL   O47620264   4.409   5.883   7.399  0.6366  0.2201 -0.2622
   35MOL   C47720265   4.288   5.935   7.598  0.1730  0.3461  0.4137
   35MOL   O47820266   4.359   5.837   7.675  0.1885 -0.5479 -0.3024
   35MOL   H47920267   4.064   6.118   7.459 -0.6676 -3.3795 -0.5982
   35MOL   H48020268   4.076   6.074   7.291  1.4860  0.4844  0.3872
   35MOL   H48120269   3.805   6.163   7.422 -1.2175 -0.7358 -0.1704
   35MOL   H48220270   3.810   6.183   7.211 -0.0253  0.0355  0.3804
   35MOL   H48320271   3.807   5.936   7.528 -0.4887 -0.5537 -0.0603
   35MOL   H48420272   3.739   5.916   7.382  1.0071 -0.6164 -1.4274
   35MOL   H48520273   3.833   5.696   7.403 -0.6189  1.4382 -0.4699
   35MOL   H48620274   3.970   5.733   7.505  0.5087  0.1590  0.6858
   35MOL   H48720275   3.978   5.669   7.217 -1.8611 -1.6387  0.3738
   35MOL   H48820276   4.031   5.561   7.346  0.9909  0.7687  3.1721
   35MOL   H48920277   4.250   5.658   7.274  1.4397  1.5418  0.2799
   35MOL   H49020278   4.174   5.806   7.230  2.7254 -0.5047 -0.8444
   35MOL   H49120279   4.222   5.957   7.393  1.3599  0.5970 -1.8256
   35MOL   H49220280   4.464   5.835   7.460  1.1896 -0.9721 -1.6736
   35MOL   H49320281   4.342   6.030   7.594  0.6386  0.0309 -2.0547
   35MOL   H49420282   4.183   5.941   7.624  0.5316 -1.2741  2.2920
   35MOL   C49520283   4.357   5.855   0.121  0.2966  0.0259 -0.3536
   35MOL   C49620284   4.383   5.720   0.194 -0.1315  0.8977  0.8756
   35MOL   O49720285   4.373   5.731   0.334  0.0762  0.0945 -1.2322
   35MOL   C49820286   4.305   5.605   0.128  0.3124  0.5448 -0.3163
   35MOL   O49920287   4.171   5.628   0.096 -0.6428  0.2595  1.0856
   35MOL   C50020288   4.118   5.525   0.009 -0.2077 -0.1452 -0.0177
   35MOL   C50120289   3.966   5.520   0.034 -0.2285 -0.4021  0.5443
   35MOL   C50220290   3.897   5.388   7.678  0.2028  0.0926  0.5300
   35MOL   O50320291   3.878   5.395   7.537 -0.1820  0.6514 -0.8760
   35MOL   C50420292   3.885   5.275   7.462  0.1234 -0.3504  0.1894
   35MOL   O50520293   4.025   5.237   7.435  0.2730  0.1605  0.1303
   35MOL   C50620294   3.802   5.308   7.332  0.0447  0.1792  0.0275
   35MOL   O50720295   3.702   5.199   7.322 -0.1462 -0.1027  0.2756
   35MOL   H50820296   4.260   5.889   0.159  0.3159 -0.8195  0.4939
   35MOL   H50920297   4.439   5.917   0.155 -1.2223  1.9059 -0.0112
   35MOL   H51020298   4.488   5.706   0.168 -0.8146 -1.8173 -0.6520
   35MOL   H51120299   4.284   5.756   0.356  0.3047  0.0260 -0.2028
   35MOL   H51220300   4.349   5.580   0.032  0.0237  0.1018 -0.3340
   35MOL   H51320301   4.306   5.522   0.198 -0.8779  1.4977  0.8693
   35MOL   H51420302   4.155   5.425   0.033  1.2904  1.1408  3.4641
   35MOL   H51520303   4.149   5.541   7.600 -0.6378 -3.5771 -0.7348
   35MOL   H51620304   3.922   5.617   0.010 -0.6686 -0.9399 -0.9008
   35MOL   H51720305   3.962   5.519   0.142  0.9960  1.0688  0.6213
   35MOL   H51820306   3.957   5.298   7.690 -1.9446 -1.1704  2.2968
   35MOL   H51920307   3.805   5.370   0.039  0.2198  0.0662  0.5498
   35MOL   H52020308   3.839   5.199   7.526  0.5177  0.2452  1.1836
   35MOL   H52120309   4.052   5.277   7.354 -0.5224 -1.5586 -1.0156
   35MOL   H52220310   3.744   5.399   7.343 -0.7402 -0.5549  2.0963
   35MOL   H52320311   3.867   5.327   7.247  0.7571 -0.0734  0.5091
   35MOL   C52420312   3.755   5.072   7.298 -0.3031 -0.3876  0.4622
   35MOL   C52520313   3.645   4.977   7.239 -0.0512 -0.4250 -0.3377
   35MOL   O52620314   3.550   4.926   7.337  0.3885 -0.5316  0.5225
   35MOL   C52720315   3.710   4.853   7.178 -0.8038  0.0926  0.3344
   35MOL   O52820316   3.620   4.767   7.116 -0.1257 -0.0871  0.0345
   35MOL   C52920317   3.678   4.644   7.072  0.1383  0.3269 -0.0968
   35MOL   C53020318   3.609   4.535   7.167  0.3048 -0.4168 -0.1467
   35MOL   C53120319   3.675   4.398   7.155  0.2448 -0.3523 -0.4153
   35MOL   O53220320   3.811   4.401   7.209  1.1626  0.1881 -0.2568
   35MOL   C53320321   3.877   4.281   7.230  0.5417  0.6321 -0.1303
   35MOL   O53420322   3.875   4.190   7.126 -0.2083  0.1031  0.2586
   35MOL   C53520323   4.025   4.309   7.279 -0.7396  0.1432  0.1820
   35MOL   O53620324   4.075   4.194   7.354  0.3163 -0.3422 -0.6173
   35MOL   H53720325   3.800   5.026   7.386  1.9753  1.8359  0.5289
   35MOL   H53820326   3.833   5.090   7.223  0.1536 -4.1869 -0.0924
   35MOL   H53920327   3.583   5.022   7.162 -0.9955  1.2592  1.3469
   35MOL   H54020328   3.517   4.842   7.308 -0.6179  0.2540 -0.6605
   35MOL   H54120329   3.795   4.876   7.114 -1.2639  1.2209  0.1038
   35MOL   H54220330   3.750   4.793   7.259  0.2095 -1.9490 -1.6493
   35MOL   H54320331   3.785   4.639   7.090 -0.2147  0.9220  2.3181
   35MOL   H54420332   3.661   4.629   6.965  1.7743  1.3995 -0.5223
   35MOL   H54520333   3.502   4.530   7.145  0.1039 -1.7714  1.0657
   35MOL   H54620334   3.615   4.564   7.272  1.0772 -2.5795  0.4255
   35MOL   H54720335   3.615   4.339   7.224  1.4913 -1.3192 -0.1361
   35MOL   H54820336   3.667   4.359   7.054 -1.9405 -0.9823 -0.0335
   35MOL   H54920337   3.830   4.228   7.314  3.4508 -1.3606  0.2992
   35MOL   H55020338   3.918   4.230   7.052 -1.3360  2.1621  0.6904
   35MOL   H55120339   4.091   4.340   7.198 -0.9057  0.9780  0.3686
   35MOL   H55220340   4.024   4.388   7.354 -2.2551  1.3730 -1.0994
   35MOL   C55320341   4.139   4.097   7.272  0.0026 -0.3204 -0.3224
   35MOL   C55420342   4.231   4.002   7.347  0.2431 -0.8334  0.1150
   35MOL   O55520343   4.336   4.072   7.404 -0.3276 -0.5584 -0.4051
   35MOL   C55620344   4.283   3.880   7.272  0.0280 -0.3494 -0.3000
   35MOL   O55720345   4.337   3.924   7.149 -0.2706 -0.1786 -0.3072
   35MOL   C55820346   4.428   3.834   7.094 -0.5714  0.2161 -0.4093
   35MOL   C55920347   4.470   3.895   6.964 -0.3166 -0.1746 -0.2840
   35MOL   C56020348   4.356   3.963   6.875  0.5425  0.6267 -0.0303
   35MOL   O56120349   4.411   3.982   6.744  0.2336  0.6843  0.0158
   35MOL   C56220350   4.363   4.099   6.679  0.0139  0.2534 -0.2297
   35MOL   O56320351   4.418   4.212   6.736 -0.2344  0.4237  0.0984
   35MOL   C56420352   4.394   4.099   6.533 -0.0771 -0.0310  0.3145
   35MOL   O56520353   4.520   4.150   6.509 -0.4743 -0.0689  0.2795
   35MOL   H56620354   4.197   4.135   7.187 -0.2309 -4.4286 -2.4683
   35MOL   H56720355   4.068   4.038   7.214  1.1732 -2.0886 -0.0137
   35MOL   H56820356   4.181   3.956   7.432 -0.8592 -0.0284 -0.0915
   35MOL   H56920357   4.378   4.122   7.336 -0.1479 -0.8592 -0.5185
   35MOL   H57020358   4.349   3.822   7.335  1.1364  2.2669  1.0401
   35MOL   H57120359   4.210   3.800   7.260  2.7854 -3.3910  2.3218
   35MOL   H57220360   4.512   3.803   7.157  0.7664  0.1017 -2.2011
   35MOL   H57320361   4.362   3.748   7.082 -0.5974  0.1586  0.1221
   35MOL   H57420362   4.514   3.822   6.895  0.5892  0.7305 -0.6876
   35MOL   H57520363   4.551   3.967   6.980  0.4438 -1.1826  0.4633
   35MOL   H57620364   4.272   3.893   6.872 -0.8117  2.2545 -1.1636
   35MOL   H57720365   4.313   4.053   6.919 -1.4028 -0.8964  1.3157
   35MOL   H57820366   4.255   4.102   6.688  0.0525 -0.4920  0.5221
   35MOL   H57920367   4.497   4.239   6.692  0.2396 -0.3967  0.4435
   35MOL   H58020368   4.368   4.002   6.490 -2.2470  0.5940  0.1178
   35MOL   H58120369   4.325   4.174   6.492  0.3934  0.3456  0.2078
   35MOL   H58220370   4.560   4.080   6.459  0.0416 -1.0583  2.0006
   36MOL     C120371   3.732   1.607   2.492 -0.8877 -0.3264 -0.5164
   36MOL     C220372   3.710   1.489   2.395  0.1294  0.4747  0.0403
   36MOL     O320373   3.712   1.533   2.270 -0.7246  0.2996  0.1964
   36MOL     C420374   3.814   1.384   2.403 -0.8698  0.7745  0.0065
   36MOL     O520375   3.769   1.256   2.351 -0.0376 -0.1617 -0.5903
   36MOL     C620376   3.873   1.152   2.357  0.4620  0.2270  0.5456
   36MOL     C720377   3.884   1.077   2.489 -0.1485  0.1785 -0.0735
   36MOL     C820378   3.980   0.958   2.499 -0.3860 -0.1275  0.0667
   36MOL     O920379   3.939   0.901   2.621  0.1402  0.1452 -0.0797
   36MOL    C1020380   4.002   0.787   2.667  0.1778 -0.3038  0.0162
   36MOL    O1120381   3.988   0.678   2.572 -0.1309 -0.3167  0.9257
   36MOL    C1220382   3.938   0.755   2.794 -0.7926 -0.0404 -0.1459
   36MOL    O1320383   4.020   0.797   2.902  0.0579 -0.7449  0.0818
   36MOL    H1420384   3.646   1.674   2.482 -1.1618 -0.4393  0.9884
   36MOL    H1520385   3.822   1.665   2.477 -1.6484  1.0431  0.1259
   36MOL    H1620386   3.619   1.436   2.423  1.1268 -2.0042 -1.2236
   36MOL    H1720387   3.664   1.466   2.224  0.4242 -0.4110 -0.0012
   36MOL    H1820388   3.911   1.422   2.372 -1.2619  2.1006  0.3561
   36MOL    H1920389   3.838   1.375   2.509  1.7354  1.7188 -0.4626
   36MOL    H2020390   3.963   1.206   2.328 -0.4927  2.2276  1.1521
   36MOL    H2120391   3.865   1.074   2.281  0.1110  0.9850 -0.2156
   36MOL    H2220392   3.783   1.054   2.524  0.6499  0.2426  2.3852
   36MOL    H2320393   3.919   1.149   2.562  0.6189  2.2776 -2.4368
   36MOL    H2420394   3.966   0.894   2.412 -0.0507  0.2975 -0.3085
   36MOL    H2520395   4.086   0.984   2.504 -0.6838  0.6744  2.7883
   36MOL    H2620396   4.110   0.796   2.677 -0.1775  2.1976  2.3263
   36MOL    H2720397   3.915   0.623   2.593 -0.4581 -0.6094 -0.8505
   36MOL    H2820398   3.832   0.781   2.794 -0.5143  1.1175 -0.2695
   36MOL    H2920399   3.949   0.650   2.818  1.6889 -0.5413 -3.1550
   36MOL    H3020400   3.730   1.575   2.596  0.0656 -2.8369 -1.2411
   36MOL    C3120401   3.974   0.928   2.936  0.3093 -0.4305 -0.3808
   36MOL    C3220402   4.049   0.979   3.063 -0.3535 -0.1854  0.2352
   36MOL    O3320403   3.952   1.013   3.156  0.4269 -0.4936  0.4553
   36MOL    C3420404   4.134   1.103   3.025  0.0170 -0.1947 -0.1809
   36MOL    O3520405   4.214   1.141   3.142  0.6244 -0.2717 -0.1198
   36MOL    C3620406   4.326   1.226   3.111 -0.1197 -0.3891 -0.1013
   36MOL    C3720407   4.380   1.251   3.254  0.1989 -0.1097 -0.0408
   36MOL    C3820408   4.501   1.341   3.257  0.2512 -0.1028  0.0941
   36MOL    O3920409   4.526   1.350   3.396  0.2605 -0.1313  0.1390
   36MOL    C4020410   4.602   1.455   3.436 -0.4298  0.6447  0.8206
   36MOL    O4120411   4.733   1.453   3.389 -0.0971 -0.2025  0.2008
   36MOL    C4220412   4.611   1.470   3.586 -0.0757  0.4844 -0.7455
   36MOL    O4320413   4.508   1.564   3.631  0.1684 -0.0917 -0.4387
   36MOL    H4420414   3.976   0.995   2.850  0.2021  2.0789  1.5186
   36MOL    H4520415   3.866   0.925   2.954  0.2984 -2.9574 -0.6889
   36MOL    H4620416   4.120   0.904   3.098 -0.7780 -0.1074  1.2737
   36MOL    H4720417   3.985   1.089   3.201  1.4986 -1.6453  1.6704
   36MOL    H4820418   4.202   1.070   2.946 -0.6604 -4.1037  0.7981
   36MOL    H4920419   4.070   1.183   2.987  1.0552  0.8418  0.2215
   36MOL    H5020420   4.297   1.320   3.066 -0.8483 -0.5322  0.0576
   36MOL    H5120421   4.396   1.180   3.041 -0.1239 -2.2560  1.0755
   36MOL    H5220422   4.399   1.161   3.312  0.6250 -0.8808 -1.3405
   36MOL    H5320423   4.291   1.284   3.307  1.1148  2.8157 -0.1895
   36MOL    H5420424   4.589   1.302   3.206 -0.0965  0.7659 -1.1827
   36MOL    H5520425   4.475   1.441   3.223 -0.9541 -0.3154  0.3769
   36MOL    H5620426   4.570   1.552   3.399  3.1408  1.4115 -0.4654
   36MOL    H5720427   4.768   1.374   3.425 -1.2734  0.0078  1.8547
   36MOL    H5820428   4.614   1.368   3.624 -1.0906  1.0195  0.8313
   36MOL    H5920429   4.711   1.509   3.604  0.0467  0.7913 -2.0333
   36MOL    C6020430   4.409   1.501   3.714  0.1580 -0.2325 -0.1683
   36MOL    C6120431   4.317   1.612   3.777 -0.3413 -0.0820 -0.5273
   36MOL    O6220432   4.217   1.655   3.685 -0.2996  0.4414 -0.5231
   36MOL    C6320433   4.389   1.737   3.834  0.0476 -0.7205 -0.1620
   36MOL    O6420434   4.305   1.805   3.927 -0.1126 -0.0688  0.4060
   36MOL    C6520435   4.382   1.919   3.982  0.3757 -0.1581 -0.6461
   36MOL    C6620436   4.296   2.001   4.077  0.8069 -0.6485 -0.3829
   36MOL    C6720437   4.368   2.120   4.141  0.4544 -0.0319  0.1660
   36MOL    O6820438   4.269   2.216   4.182 -0.0729  0.7231 -0.4815
   36MOL    C6920439   4.316   2.317   4.267 -0.6149  0.7498 -0.0586
   36MOL    O7020440   4.354   2.425   4.195 -0.1248 -0.6811  0.5152
   36MOL    C7120441   4.194   2.350   4.366 -0.2358  0.2845 -0.3004
   36MOL    O7220442   4.196   2.254   4.468 -0.4560  0.0475  0.2790
   36MOL    H7320443   4.467   1.443   3.786 -1.4912  1.9993  3.1249
   36MOL    H7420444   4.354   1.425   3.659 -0.0606  1.7237 -2.7378
   36MOL    H7520445   4.271   1.562   3.862 -0.7824  1.9094  0.4322
   36MOL    H7620446   4.267   1.692   3.614 -0.2548  1.1719 -0.1160
   36MOL    H7720447   4.481   1.715   3.887  1.2452  2.9431 -0.5988
   36MOL    H7820448   4.412   1.809   3.757 -2.9409 -1.1438 -1.5484
   36MOL    H7920449   4.419   1.998   3.916  0.0425  1.0487  0.5834
   36MOL    H8020450   4.480   1.895   4.025  0.8379  0.6795 -1.2092
   36MOL    H8120451   4.256   1.944   4.162 -2.5451  2.7906  0.4537
   36MOL    H8220452   4.203   2.031   4.030 -0.3916 -2.4491  0.7516
   36MOL    H8320453   4.422   2.179   4.067  2.2907 -0.5795  1.0593
   36MOL    H8420454   4.429   2.086   4.224 -0.0074  0.8696  0.8840
   36MOL    H8520455   4.406   2.286   4.320 -0.8404 -0.1453 -0.1825
   36MOL    H8620456   4.274   2.469   4.172 -0.9798 -0.7974  3.0894
   36MOL    H8720457   4.207   2.450   4.407  1.5392 -0.1181  0.1644
   36MOL    H8820458   4.102   2.345   4.309  0.6216  2.6398 -1.9595
   36MOL    C8920459   4.086   2.269   4.557 -0.5011  0.6623  0.4176
   36MOL    C9020460   4.101   2.178   4.683  0.0146  0.0789 -0.6130
   36MOL    O9120461   4.014   2.244   4.783 -0.8346 -0.4045 -0.2651
   36MOL    C9220462   4.065   2.032   4.649  0.3258 -0.4928  0.2748
   36MOL    O9320463   4.113   1.943   4.749  0.2177  0.2179  0.0960
   36MOL    C9420464   4.077   1.807   4.723  0.4788  0.3156 -0.6780
   36MOL    C9520465   4.131   1.697   4.815 -0.2370 -0.0397 -0.2284
   36MOL    C9620466   4.068   1.554   4.773 -0.2254 -0.3972 -0.5086
   36MOL    O9720467   4.086   1.458   4.883  0.4735 -0.3741 -0.5747
   36MOL    C9820468   4.029   1.337   4.863 -0.6372 -0.4583 -0.4684
   36MOL    O9920469   4.098   1.275   4.762 -0.4773 -0.1861  0.4613
   36MOL   C10020470   4.048   1.240   4.989  0.3343  0.1965 -0.4535
   36MOL   O10120471   3.930   1.246   5.077  0.1456  0.6082  0.2370
   36MOL   H10220472   3.988   2.263   4.510 -0.9620  1.7836  1.2197
   36MOL   H10320473   4.091   2.368   4.601  0.4351  0.7371  0.1595
   36MOL   H10420474   4.202   2.192   4.721 -0.8840  0.3473  1.7337
   36MOL   H10520475   3.923   2.247   4.760 -1.3459 -0.9055  1.5968
   36MOL   H10620476   3.956   2.037   4.654  0.4050  1.8130  0.2765
   36MOL   H10720477   4.090   2.008   4.546  0.9282  0.5196  0.1718
   36MOL   H10820478   4.102   1.784   4.619 -1.7192  1.2879 -1.4346
   36MOL   H10920479   3.968   1.805   4.725  0.5253 -1.3067  1.3891
   36MOL   H11020480   4.107   1.714   4.920  0.2393 -2.5434  0.3360
   36MOL   H11120481   4.239   1.711   4.805  0.0207 -2.4915 -1.3093
   36MOL   H11220482   3.960   1.548   4.765 -0.5049 -1.6007  3.3015
   36MOL   H11320483   4.113   1.519   4.679  1.0513  0.6958 -0.3294
   36MOL   H11420484   3.926   1.354   4.834 -0.9271  0.5636  1.0831
   36MOL   H11520485   4.068   1.185   4.757  0.9666 -0.5473 -4.2652
   36MOL   H11620486   4.055   1.135   4.962  0.0277  0.1702 -0.4339
   36MOL   H11720487   4.137   1.260   5.049  1.2352  0.4556 -1.8628
   36MOL   C11820488   3.927   1.357   5.164 -0.4459 -0.1049  0.0265
   36MOL   C11920489   3.795   1.359   5.239  0.3702 -0.3482 -0.1746
   36MOL   O12020490   3.689   1.404   5.165  0.3161 -0.0185 -0.2190
   36MOL   C12120491   3.801   1.462   5.358  0.0257 -0.2312  0.1218
   36MOL   O12220492   3.833   1.598   5.319  0.0857  0.2395  0.3168
   36MOL   C12320493   3.810   1.693   5.420 -0.2165 -0.8482  0.2479
   36MOL   C12420494   3.838   1.833   5.360  0.2614 -0.0720 -0.0927
   36MOL   C12520495   3.845   1.955   5.454 -0.1471  0.1618 -0.9576
   36MOL   O12620496   3.712   2.005   5.470  0.0885  0.3446  0.1694
   36MOL   C12720497   3.687   2.108   5.553 -1.1538 -0.7328  0.2388
   36MOL   O12820498   3.712   2.067   5.689  0.4269 -0.3008  0.1552
   36MOL   C12920499   3.553   2.151   5.529 -0.1858 -0.1635  0.3061
   36MOL   O13020500   3.540   2.281   5.577 -0.5339  0.1402 -0.1284
   36MOL   H13120501   4.010   1.358   5.235  0.0104  0.0537 -0.5011
   36MOL   H13220502   3.934   1.446   5.101  0.3833 -2.2590 -3.0706
   36MOL   H13320503   3.777   1.256   5.271  0.9282 -0.7178 -1.0541
   36MOL   H13420504   3.683   1.360   5.082 -0.4648  0.4114 -0.3975
   36MOL   H13520505   3.701   1.464   5.400 -0.5066  0.2902 -1.1544
   36MOL   H13620506   3.865   1.433   5.441 -0.4100  2.1068  1.3029
   36MOL   H13720507   3.876   1.672   5.504  0.4867 -0.5997 -0.2349
   36MOL   H13820508   3.708   1.690   5.459  0.2348 -1.8957  1.4001
   36MOL   H13920509   3.772   1.846   5.275  1.9241  1.8284 -1.1350
   36MOL   H14020510   3.934   1.835   5.307 -0.0107  1.7862 -0.5582
   36MOL   H14120511   3.885   1.927   5.551 -1.0670 -1.6577 -1.0847
   36MOL   H14220512   3.909   2.031   5.410  0.8894 -0.2891 -0.2305
   36MOL   H14320513   3.757   2.188   5.529 -0.6590 -1.9558 -2.5277
   36MOL   H14420514   3.670   2.132   5.743 -1.0597 -0.4006 -0.8513
   36MOL   H14520515   3.534   2.153   5.421 -1.2398  0.8229  0.5026
   36MOL   H14620516   3.476   2.085   5.569 -0.2631 -0.7925 -0.8688
   36MOL   C14720517   3.421   2.334   5.532  0.1623  0.2789 -0.0715
   36MOL   C14820518   3.404   2.458   5.616 -0.0060  0.3045  0.8358
   36MOL   O14920519   3.367   2.408   5.744  0.4426 -0.1893 -0.7732
   36MOL   C15020520   3.284   2.540   5.564 -0.3219 -0.4572 -0.4386
   36MOL   O15120521   3.272   2.662   5.628 -0.0762 -0.4011 -0.0081
   36MOL   C15220522   3.198   2.754   5.559  0.4317  0.5233  0.1735
   36MOL   C15320523   3.197   2.883   5.644  0.1553  0.3219  0.3045
   36MOL   C15420524   3.082   2.980   5.589 -0.2047 -0.0558 -0.0297
   36MOL   O15520525   3.103   3.111   5.654 -0.3510  0.5286 -0.0899
   36MOL   C15620526   3.010   3.211   5.622  1.2043 -0.2164 -0.0088
   36MOL   O15720527   3.012   3.253   5.491  0.1728 -0.0408  0.0960
   36MOL   C15820528   3.042   3.329   5.721 -0.6933  0.0360  0.2185
   36MOL   O15920529   3.152   3.403   5.673  0.2721 -0.1249 -0.0172
   36MOL   H16020530   3.341   2.263   5.555  2.1595 -2.8062 -2.2477
   36MOL   H16120531   3.415   2.364   5.428 -1.0485 -0.5799 -0.2546
   36MOL   H16220532   3.499   2.510   5.624  1.0812 -1.9195  2.5547
   36MOL   H16320533   3.335   2.487   5.785 -2.0877 -1.1206 -0.8832
   36MOL   H16420534   3.284   2.563   5.457  1.6778  0.0272 -0.3405
   36MOL   H16520535   3.190   2.485   5.573 -0.3583 -0.4117 -0.5431
   36MOL   H16620536   3.095   2.722   5.542 -0.3121  2.8636  0.0604
   36MOL   H16720537   3.244   2.781   5.464  0.0962 -0.6718 -0.3390
   36MOL   H16820538   3.294   2.932   5.642  0.5575 -0.4754  0.3961
   36MOL   H16920539   3.157   2.846   5.738  0.1659  0.3227  0.3098
   36MOL   H17020540   3.091   2.986   5.481 -2.1629  1.6527 -0.1085
   36MOL   H17120541   2.983   2.940   5.609  0.3155 -1.6739 -0.6328
   36MOL   H17220542   2.907   3.179   5.633  0.9692  0.1277 -1.1338
   36MOL   H17320543   3.092   3.303   5.488 -0.1311  0.5268  1.1781
   36MOL   H17420544   2.956   3.396   5.712 -0.1986  0.7337  0.6002
   36MOL   H17520545   3.046   3.296   5.825 -0.5956  0.6191  0.4067
   36MOL   C17620546   3.275   3.352   5.730 -0.2275  0.2687  1.0386
   36MOL   C17720547   3.396   3.424   5.663 -0.1610 -0.4235  0.3327
   36MOL   O17820548   3.364   3.555   5.671 -0.4605 -0.1785  0.0631
   36MOL   C17920549   3.399   3.383   5.518  0.6988 -0.0108 -0.2739
   36MOL   O18020550   3.463   3.249   5.508  0.1430 -0.3729  0.0915
   36MOL   C18120551   3.416   3.173   5.405 -0.5304 -0.3005  0.8609
   36MOL   C18220552   3.497   3.041   5.394 -0.1125  0.4283  0.0930
   36MOL   C18320553   3.466   2.951   5.274 -0.4520  0.0844 -0.5738
   36MOL   O18420554   3.512   3.006   5.150 -0.0209  0.7447 -0.6480
   36MOL   C18520555   3.479   2.931   5.037 -0.0580 -0.2175 -0.1498
   36MOL   O18620556   3.559   2.815   5.035  0.2150 -0.0595  0.8835
   36MOL   C18720557   3.495   3.013   4.914 -0.1715 -0.6749  0.2112
   36MOL   O18820558   3.374   3.063   4.865 -0.0391  0.3017 -0.5734
   36MOL   H18920559   3.289   3.246   5.710 -1.2390  0.7472 -2.5706
   36MOL   H19020560   3.282   3.364   5.838  0.1367 -2.2986  1.3337
   36MOL   H19120561   3.493   3.417   5.713  0.3610 -2.3177 -0.9154
   36MOL   H19220562   3.274   3.559   5.643 -0.3882 -1.7560 -0.4576
   36MOL   H19320563   3.299   3.396   5.476  0.7759 -1.5932 -0.9886
   36MOL   H19420564   3.471   3.445   5.464 -1.6577  0.7491 -2.6322
   36MOL   H19520565   3.452   3.230   5.319  2.2278 -0.0390  2.1663
   36MOL   H19620566   3.307   3.175   5.394 -0.4534 -0.1053  0.0870
   36MOL   H19720567   3.480   2.977   5.481  1.2240  0.7320  0.5873
   36MOL   H19820568   3.605   3.055   5.403  0.2008 -0.5404 -1.9470
   36MOL   H19920569   3.507   2.850   5.284  0.8564  0.4362 -2.1004
   36MOL   H20020570   3.359   2.938   5.263 -0.2759 -2.6910  0.3798
   36MOL   H20120571   3.374   2.908   5.054 -0.1136  0.6080  0.6492
   36MOL   H20220572   3.649   2.839   5.020  0.1414  0.0296  0.5922
   36MOL   H20320573   3.568   3.092   4.932  1.2081 -1.5590 -1.2828
   36MOL   H20420574   3.549   2.953   4.839 -0.4346 -1.2451  0.4766
   36MOL   C20520575   3.314   2.982   4.763 -0.3669 -0.1203 -0.3710
   36MOL   C20620576   3.193   3.066   4.708 -0.2320  0.9577 -0.0151
   36MOL   O20720577   3.240   3.185   4.653  0.0905 -0.8129 -0.3929
   36MOL   C20820578   3.115   2.988   4.604  0.0545 -0.0915  0.3770
   36MOL   O20920579   2.981   3.039   4.592  0.3127 -0.2280 -0.0039
   36MOL   C21020580   2.917   2.985   4.475  0.0294  0.3372 -0.0593
   36MOL   C21120581   2.790   3.065   4.459 -0.8052 -0.3955 -0.1894
   36MOL   C21220582   2.681   3.015   4.553  0.3822  0.2811  0.7514
   36MOL   O21320583   2.564   3.094   4.546  0.1727  0.7899 -0.3547
   36MOL   C21420584   2.448   3.020   4.580  0.1890  0.0992  0.5397
   36MOL   O21520585   2.381   2.944   4.479  0.5111  0.2123 -0.3978
   36MOL   C21620586   2.351   3.129   4.630  0.2848  0.9484  0.7264
   36MOL   O21720587   2.310   3.091   4.763 -0.8477 -0.1572  0.5286
   36MOL   H21820588   3.296   2.879   4.793 -0.1208 -0.0043  0.1834
   36MOL   H21920589   3.380   2.976   4.677 -1.5050  1.6746 -1.4158
   36MOL   H22020590   3.126   3.072   4.795 -1.9350 -0.7808 -1.1622
   36MOL   H22120591   3.303   3.220   4.714 -1.3335  0.6283  0.2927
   36MOL   H22220592   3.168   2.979   4.509 -0.3711 -0.4820  0.1778
   36MOL   H22320593   3.080   2.894   4.646  0.0159  0.2353  1.0849
   36MOL   H22420594   2.905   2.877   4.484  1.4240  0.3405  2.2661
   36MOL   H22520595   2.981   2.999   4.388  0.4822 -0.1314  0.1978
   36MOL   H22620596   2.758   3.055   4.355 -0.3847  0.2215 -0.3838
   36MOL   H22720597   2.799   3.173   4.470 -0.6681 -0.5488  1.2606
   36MOL   H22820598   2.649   2.917   4.519  0.2541  1.2062 -1.9349
   36MOL   H22920599   2.713   3.003   4.656 -0.9836 -0.6648  1.0806
   36MOL   H23020600   2.474   2.943   4.654  1.1892 -0.9023 -0.8299
   36MOL   H23120601   2.354   3.010   4.416  0.7258 -0.8326 -1.6054
   36MOL   H23220602   2.403   3.224   4.624  1.1415  0.4668  0.4963
   36MOL   H23320603   2.267   3.131   4.560 -1.5296 -2.2471  2.6705
   36MOL   C23420604   2.347   3.175   4.868 -1.0858 -0.5088 -0.0457
   36MOL   C23520605   2.278   3.148   5.003  0.5481 -0.6022  0.1849
   36MOL   O23620606   2.328   3.028   5.073  0.3145  0.4220 -0.3973
   36MOL   C23720607   2.131   3.128   4.981  0.0338 -0.1304 -0.2684
   36MOL   O23820608   2.059   3.138   5.100  0.2861 -0.4980  0.3827
   36MOL   C23920609   1.917   3.158   5.094  0.4843 -0.3018  0.1649
   36MOL   C24020610   1.845   3.157   5.221  0.8387  0.8823 -0.4356
   36MOL   C24120611   1.706   3.203   5.199 -0.1489  0.3572  0.7451
   36MOL   O24220612   1.636   3.191   5.320  0.4005 -0.2858  0.1027
   36MOL   C24320613   1.502   3.228   5.305  0.8958 -0.5773 -0.3982
   36MOL   O24420614   1.486   3.370   5.281  0.2703 -0.0294 -0.4625
   36MOL   C24520615   1.426   3.203   5.439  0.5057  0.1903 -0.3495
   36MOL   O24620616   1.294   3.154   5.413  0.1913  0.2784 -0.0215
   36MOL   H24720617   2.455   3.159   4.872 -0.9396  0.1287 -1.4127
   36MOL   H24820618   2.343   3.278   4.832  0.2186 -1.2719 -2.5208
   36MOL   H24920619   2.305   3.233   5.066 -1.4668  0.3807 -0.2247
   36MOL   H25020620   2.343   2.957   5.013 -1.0140 -1.0361  0.9416
   36MOL   H25120621   2.098   3.206   4.912 -1.2340 -1.3344 -1.0379
   36MOL   H25220622   2.110   3.030   4.939  2.5637 -0.0723 -1.7684
   36MOL   H25320623   1.875   3.074   5.040  0.3409 -0.0882 -0.0530
   36MOL   H25420624   1.907   3.253   5.042 -0.5791  0.2451  1.3298
   36MOL   H25520625   1.886   3.236   5.285  1.6578  0.4262 -0.3860
   36MOL   H25620626   1.854   3.060   5.270 -0.8641  0.2546 -1.3521
   36MOL   H25720627   1.710   3.310   5.176  0.7167  0.2810  0.5228
   36MOL   H25820628   1.654   3.158   5.114 -1.5379  2.0217  0.7015
   36MOL   H25920629   1.440   3.183   5.227 -2.0154 -1.0036  2.0668
   36MOL   H26020630   1.530   3.417   5.351  0.7847 -0.7560 -0.2886
   36MOL   H26120631   1.481   3.129   5.497 -1.2178  0.7316  2.0735
   36MOL   H26220632   1.427   3.296   5.497  1.5016  0.6255 -1.0484
   36MOL   C26320633   1.233   3.115   5.537 -0.2591  0.1091 -0.1590
   36MOL   C26420634   1.086   3.078   5.501  0.7452  0.2397  0.3131
   36MOL   O26520635   1.092   2.970   5.402  0.3088 -0.3914  0.4832
   36MOL   C26620636   0.993   3.054   5.616 -0.2296  0.0292  0.2171
   36MOL   O26720637   0.996   3.161   5.704  0.3383  0.1539  0.4329
   36MOL   C26820638   0.873   3.178   5.777 -0.5576  0.8804  0.4584
   36MOL   C26920639   0.761   3.254   5.705  0.0341 -0.5839 -0.0739
   36MOL   C27020640   0.638   3.292   5.795 -0.0239  0.6205 -0.3891
   36MOL   O27120641   0.570   3.183   5.851  0.2926 -0.2297  0.2248
   36MOL   C27220642   0.485   3.106   5.773 -0.5243  0.0313 -0.4257
   36MOL   O27320643   0.550   3.029   5.683 -0.0698 -0.1157 -0.7756
   36MOL   C27420644   0.406   3.013   5.866 -0.4660  0.2170 -0.0827
   36MOL   O27520645   0.277   2.988   5.813 -0.2941 -0.3228 -0.2951
   36MOL   H27620646   1.229   3.188   5.618 -0.1491  1.6143 -1.5129
   36MOL   H27720647   1.296   3.039   5.584 -0.6710 -0.6037 -0.7508
   36MOL   H27820648   1.044   3.149   5.429  0.6143 -0.6487 -0.4938
   36MOL   H27920649   1.157   2.988   5.336 -0.6665 -3.0112 -1.3031
   36MOL   H28020650   0.895   3.047   5.567  0.1875  1.5976 -0.8853
   36MOL   H28120651   1.011   2.961   5.670 -0.9899  0.7102  1.6922
   36MOL   H28220652   0.886   3.238   5.867 -1.0357  1.2283  0.3033
   36MOL   H28320653   0.849   3.080   5.818 -1.6439  1.8745  2.2677
   36MOL   H28420654   0.725   3.195   5.621  2.6947  0.3832 -1.9455
   36MOL   H28520655   0.801   3.344   5.658  0.4463 -1.0250 -0.5760
   36MOL   H28620656   0.672   3.352   5.880 -0.3706  0.6986 -0.3064
   36MOL   H28720657   0.567   3.356   5.744 -1.8304 -0.8324  0.2348
   36MOL   H28820658   0.419   3.178   5.725  1.7357  1.5421 -1.3863
   36MOL   H28920659   0.485   2.963   5.665 -1.0944  0.7470 -0.2383
   36MOL   H29020660   0.482   2.938   5.888  0.0625  0.7342 -0.1300
   36MOL   H29120661   0.393   3.072   5.957  0.0015  0.3560 -0.1039
   36MOL   C29220662   0.193   2.920   5.904  0.3935  0.0659  0.0469
   36MOL   C29320663   0.220   2.766   5.890  0.0307  0.3013 -0.1369
   36MOL   O29420664   0.344   2.738   5.948  0.0537 -0.6957  0.2963
   36MOL   C29520665   0.111   2.677   5.951  0.0924  0.0348 -0.4084
   36MOL   O29620666   7.677   2.710   5.901 -0.3091  0.0925  0.1063
   36MOL   C29720667   7.582   2.623   5.942 -0.0698 -0.0558 -0.6000
   36MOL   C29820668   7.450   2.665   5.867 -0.3245  0.0053 -0.1747
   36MOL   C29920669   7.325   2.593   5.923  0.3830 -0.1970 -0.4298
   36MOL   O30020670   7.211   2.651   5.878  0.0426 -0.8269  0.2196
   36MOL   C30120671   7.088   2.607   5.932 -0.1892  0.4541 -0.3147
   36MOL   O30220672   7.074   2.641   6.071  0.2720  0.0507 -0.0241
   36MOL   C30320673   6.979   2.668   5.846  0.0331 -0.0655 -0.0570
   36MOL   O30420674   6.964   2.598   5.718 -0.0112 -0.2191 -0.2754
   36MOL   H30520675   0.208   2.945   6.009  1.2792  0.5204 -0.1905
   36MOL   H30620676   0.093   2.950   5.872  0.2630  0.6454  0.9697
   36MOL   H30720677   0.230   2.735   5.786 -0.1604 -0.2940  0.0209
   36MOL   H30820678   0.406   2.736   5.877  0.8857  0.9084  0.9599
   36MOL   H30920679   0.125   2.572   5.928  1.7534  0.0606  0.4517
   36MOL   H31020680   0.114   2.686   6.059  0.3586 -0.3640 -0.3824
   36MOL   H31120681   7.569   2.617   6.050 -1.5283  1.6778 -0.6383
   36MOL   H31220682   7.617   2.524   5.917  0.2616  0.5298 -2.5353
   36MOL   H31320683   7.456   2.656   5.759  0.2042  1.8511 -0.3169
   36MOL   H31420684   7.431   2.770   5.892  1.2045  0.3155 -0.2527
   36MOL   H31520685   7.323   2.485   5.907  3.1186 -0.7710  2.6116
   36MOL   H31620686   7.322   2.605   6.031  1.0400  2.1276 -0.6355
   36MOL   H31720687   7.083   2.499   5.941 -1.0891  0.5770  0.8608
   36MOL   H31820688   7.060   2.735   6.076  0.1578 -0.0634  2.1585
   36MOL   H31920689   7.007   2.773   5.831 -0.7748  0.0275 -0.9929
   36MOL   H32020690   6.880   2.659   5.888  0.9024 -1.5495  1.7069
   36MOL   C32120691   7.020   2.670   5.607 -0.2933  0.3719 -0.2603
   36MOL   C32220692   6.924   2.777   5.549  0.0788  0.7250  0.8959
   36MOL   O32320693   6.962   2.909   5.590  0.1012 -0.0377 -0.1226
   36MOL   C32420694   6.913   2.785   5.392  0.1515  0.2925 -0.6471
   36MOL   O32520695   6.872   2.664   5.332  0.1594  0.3101  0.6200
   36MOL   C32620696   6.729   2.653   5.303  0.0685 -0.1813 -0.1152
   36MOL   C32720697   6.716   2.498   5.286 -0.0192  0.7727  0.6173
   36MOL   C32820698   6.574   2.454   5.274  0.0890  0.2852  0.1735
   36MOL   O32920699   6.525   2.464   5.408 -0.6043 -0.3783  0.1542
   36MOL   C33020700   6.397   2.417   5.417  0.5850 -0.4333 -0.0541
   36MOL   O33120701   6.397   2.276   5.414  0.1774  0.6669  0.7960
   36MOL   C33220702   6.332   2.466   5.551  0.1130  0.0508  0.8428
   36MOL   O33320703   6.300   2.605   5.544 -0.0372 -0.3349 -0.2032
   36MOL   H33420704   7.053   2.596   5.534 -0.5073  1.7534 -1.7645
   36MOL   H33520705   7.114   2.720   5.627 -0.5108  0.4381  0.6338
   36MOL   H33620706   6.824   2.756   5.586 -0.4071  0.5025 -0.4882
   36MOL   H33720707   6.887   2.955   5.623  1.3453  3.6080 -2.0940
   36MOL   H33820708   7.014   2.801   5.353  1.6773  0.1578  3.0098
   36MOL   H33920709   6.851   2.869   5.361  0.5720  0.3714 -1.2856
   36MOL   H34020710   6.716   2.703   5.208 -0.7245 -2.6057 -1.3301
   36MOL   H34120711   6.678   2.706   5.384  1.3435  0.4980  0.2499
   36MOL   H34220712   6.771   2.472   5.196  1.3682  0.6527  1.4721
   36MOL   H34320713   6.759   2.439   5.367 -0.0981 -0.8495 -0.5014
   36MOL   H34420714   6.522   2.513   5.198 -0.0352 -0.7543 -0.5649
   36MOL   H34520715   6.574   2.353   5.233 -1.6763  0.2710  0.1651
   36MOL   H34620716   6.338   2.444   5.330  0.3228 -1.3916 -0.1793
   36MOL   H34720717   6.427   2.241   5.496  0.6504 -1.0843 -0.0923
   36MOL   H34820718   6.241   2.410   5.572  0.9384 -0.7166  2.4635
   36MOL   H34920719   6.394   2.432   5.635  1.3411  0.1034 -0.0302
   36MOL   C35020720   6.208   2.625   5.654  0.3928 -0.0978  0.3914
   36MOL   C35120721   6.187   2.772   5.688  0.0947 -0.6024 -0.3584
   36MOL   O35220722   6.124   2.812   5.563  0.4170 -0.2505 -0.1102
   36MOL   C35320723   6.103   2.796   5.816 -0.1192  0.0061 -0.3915
   36MOL   O35420724   6.190   2.765   5.926 -1.0007  0.1060 -0.5797
   36MOL   C35520725   6.142   2.827   6.041  0.0966  0.3445 -0.1678
   36MOL   C35620726   6.224   2.779   6.152  0.1589 -0.7524  0.1497
   36MOL   C35720727   6.227   2.861   6.283 -0.5981  0.2488  0.2749
   36MOL   O35820728   6.155   2.780   6.377 -0.0212 -0.2220  0.0700
   36MOL   C35920729   6.152   2.831   6.508  0.0441 -0.4633 -0.1998
   36MOL   O36020730   6.068   2.950   6.516  0.1418 -0.3528  0.1031
   36MOL   C36120731   6.083   2.730   6.594  0.1764  0.4533  0.2137
   36MOL   O36220732   6.177   2.627   6.618  0.0823 -0.5381  0.1592
   36MOL   H36320733   6.252   2.581   5.744 -3.3110  1.4905  3.0783
   36MOL   H36420734   6.108   2.584   5.645 -0.0696  0.7125  1.6280
   36MOL   H36520735   6.283   2.823   5.697  0.1886 -0.7470 -0.5401
   36MOL   H36620736   6.180   2.774   5.497  2.3321  3.6460 -0.8825
   36MOL   H36720737   6.075   2.900   5.832  0.5889  0.4038 -1.6952
   36MOL   H36820738   6.017   2.734   5.793 -0.5876 -0.0932  1.5406
   36MOL   H36920739   6.037   2.816   6.066  0.1541  0.0079 -0.0632
   36MOL   H37020740   6.170   2.933   6.045 -1.8261  0.8630 -0.2872
   36MOL   H37120741   6.326   2.786   6.114  0.2229 -1.2746  0.2211
   36MOL   H37220742   6.199   2.674   6.169 -1.0413 -0.4169  0.5439
   36MOL   H37320743   6.326   2.888   6.319 -0.2857 -0.4519 -0.0672
   36MOL   H37420744   6.174   2.955   6.267  1.3633  1.3986  0.4253
   36MOL   H37520745   6.255   2.849   6.540  0.0373 -0.3484 -0.2417
   36MOL   H37620746   6.134   3.017   6.529  0.5596 -0.7401 -0.0019
   36MOL   H37720747   6.057   2.766   6.693  0.0491 -1.2536  0.8119
   36MOL   H37820748   5.990   2.690   6.553 -1.4815  3.6851  0.6029
   36MOL   C37920749   6.141   2.537   6.724 -0.0743  0.1802  0.2042
   36MOL   C38020750   6.056   2.422   6.683  0.5588 -0.1367 -0.3329
   36MOL   O38120751   5.922   2.461   6.683 -0.3117  0.0800 -0.1970
   36MOL   C38220752   6.085   2.373   6.542  0.1549  0.1664  0.3110
   36MOL   O38320753   6.197   2.293   6.553  0.0079 -0.1077 -0.2852
   36MOL   C38420754   6.253   2.259   6.432  0.9494  0.2681  0.2978
   36MOL   C38520755   6.316   2.374   6.358 -0.1762  0.2458 -0.3800
   36MOL   C38620756   6.410   2.322   6.250 -0.9605  0.7155 -0.2439
   36MOL   O38720757   6.460   2.433   6.171 -0.2303  0.2243  0.1512
   36MOL   C38820758   6.457   2.415   6.033  0.1784  0.6852 -0.2342
   36MOL   O38920759   6.328   2.438   5.989  0.5393 -0.1993  0.2904
   36MOL   C39020760   6.556   2.507   5.968  0.5396  0.0142  0.3500
   36MOL   O39120761   6.502   2.632   6.003 -0.6387 -0.2768 -0.3763
   36MOL   H39220762   6.103   2.580   6.817 -0.3019 -0.8605  0.5947
   36MOL   H39320763   6.239   2.499   6.751  0.6941  0.6346 -1.8674
   36MOL   H39420764   6.065   2.336   6.750  2.1841  0.3193  0.0445
   36MOL   H39520765   5.899   2.473   6.774  0.8608  1.3433 -0.0443
   36MOL   H39620766   6.006   2.311   6.501 -0.0063  1.1793 -0.9256
   36MOL   H39720767   6.086   2.454   6.470  0.5336 -1.6110 -1.7441
   36MOL   H39820768   6.181   2.210   6.367  0.7237 -0.2802  0.9590
   36MOL   H39920769   6.341   2.198   6.450 -0.1170 -0.5764  2.9004
   36MOL   H40020770   6.360   2.444   6.430 -0.1499 -0.0505 -0.1044
   36MOL   H40120771   6.241   2.432   6.305 -0.8743 -0.3456 -0.0481
   36MOL   H40220772   6.490   2.256   6.283 -1.1534  1.4231  1.7478
   36MOL   H40320773   6.353   2.257   6.183 -1.3512  1.1065 -0.2919
   36MOL   H40420774   6.481   2.315   5.997  0.2214  0.3191  0.7922
   36MOL   H40520775   6.320   2.532   5.985 -0.7716 -0.2506  1.3212
   36MOL   H40620776   6.660   2.484   5.991  0.2958 -1.1397  0.3490
   36MOL   H40720777   6.541   2.498   5.860 -2.0613  1.1621  0.5876
   36MOL   C40820778   6.594   2.728   5.948  0.2735  0.1778 -0.1265
   36MOL   C40920779   6.557   2.869   5.997  0.3370 -0.2419  0.3031
   36MOL   O41020780   6.646   2.963   5.940 -0.3707  0.0957  0.1025
   36MOL   C41120781   6.597   2.869   6.135 -0.5447 -0.7029 -0.3498
   36MOL   O41220782   6.568   2.998   6.185  0.4746 -0.3871  0.1322
   36MOL   C41320783   6.654   3.038   6.292  0.2758  0.2914  0.4457
   36MOL   C41420784   6.590   3.161   6.359  0.0855 -0.0883 -0.2936
   36MOL   C41520785   6.683   3.244   6.444 -0.5951  0.5053  0.3443
   36MOL   O41620786   6.608   3.354   6.494 -0.1198  0.1018  0.2092
   36MOL   C41720787   6.695   3.447   6.554 -0.1348 -0.6908  0.2212
   36MOL   O41820788   6.771   3.387   6.658  0.2721  0.1258  0.1856
   36MOL   C41920789   6.612   3.558   6.622 -0.4334 -0.6472  0.0903
   36MOL   O42020790   6.502   3.598   6.540 -0.5026  0.1444 -0.1594
   36MOL   H42120791   6.588   2.728   5.839 -1.1568  0.7928 -0.0493
   36MOL   H42220792   6.701   2.722   5.966  0.2328  1.1368  0.4878
   36MOL   H42320793   6.451   2.884   5.975  0.7293  0.7315 -0.9999
   36MOL   H42420794   6.634   3.030   6.006  0.8195 -0.0577  0.4882
   36MOL   H42520795   6.557   2.784   6.190 -2.9927 -0.0063 -0.9802
   36MOL   H42620796   6.705   2.853   6.142 -0.5016  0.5259  2.7580
   36MOL   H42720797   6.653   2.959   6.367  0.1352 -2.1186 -2.0141
   36MOL   H42820798   6.756   3.052   6.256  0.5234  0.1990  1.1075
   36MOL   H42920799   6.507   3.125   6.419  0.2891  1.2834  0.8516
   36MOL   H43020800   6.547   3.224   6.281 -1.5224  0.6953  1.1979
   36MOL   H43120801   6.729   3.178   6.517 -1.9766 -0.7441  0.1128
   36MOL   H43220802   6.767   3.281   6.385 -0.7314 -1.6112 -1.2223
   36MOL   H43320803   6.758   3.493   6.479 -0.3317 -0.4825  0.1819
   36MOL   H43420804   6.861   3.399   6.632 -0.4245  0.0810 -2.3004
   36MOL   H43520805   6.566   3.525   6.716 -0.8644  1.0291  0.4800
   36MOL   H43620806   6.692   3.627   6.647  0.3917 -0.6981 -2.2958
   36MOL   C43720807   6.417   3.680   6.619  0.3068 -0.6844 -0.1657
   36MOL   C43820808   6.312   3.761   6.539  0.6207 -0.0622  0.1901
   36MOL   O43920809   6.236   3.659   6.479 -0.2174  0.8505  0.1185
   36MOL   C44020810   6.375   3.838   6.423 -0.2802 -0.0784  0.4970
   36MOL   O44120811   6.267   3.928   6.373  0.1955  0.8161 -0.4194
   36MOL   C44220812   6.258   4.045   6.455 -0.1353 -0.1805  0.3175
   36MOL   C44320813   6.115   4.096   6.453 -0.3214 -0.4481  0.2116
   36MOL   C44420814   6.035   4.029   6.568  0.9855 -0.3996  0.0174
   36MOL   O44520815   6.079   4.061   6.701 -0.1918  0.3099 -0.0288
   36MOL   C44620816   6.014   3.988   6.803 -0.1714  0.4562 -0.7130
   36MOL   O44720817   5.888   4.047   6.833  0.4314  0.0980  0.5309
   36MOL   C44820818   6.104   3.978   6.924 -0.2650 -0.1982  0.4923
   36MOL   O44920819   6.223   3.906   6.897  0.9436 -0.6572 -0.3392
   36MOL   H45020820   6.364   3.623   6.696 -1.0103  1.3958  0.5186
   36MOL   H45120821   6.476   3.753   6.675  0.8827 -1.0907 -0.2408
   36MOL   H45220822   6.238   3.811   6.601  0.0351 -0.4680 -0.1681
   36MOL   H45320823   6.303   3.594   6.464  0.3058  0.6599  3.0327
   36MOL   H45420824   6.467   3.885   6.457 -0.2296 -0.2417  0.5839
   36MOL   H45520825   6.405   3.773   6.341 -0.0340  2.0068 -1.1040
   36MOL   H45620826   6.316   4.130   6.420  0.3928 -0.1182  1.3382
   36MOL   H45720827   6.290   4.030   6.558 -1.8406 -1.1501  0.7352
   36MOL   H45820828   6.076   4.083   6.352 -0.5480 -0.0141  0.2461
   36MOL   H45920829   6.112   4.203   6.469  1.0801 -0.3297 -0.2358
   36MOL   H46020830   5.933   4.067   6.556  0.0074 -2.6042  1.1273
   36MOL   H46120831   6.034   3.920   6.562 -3.7151 -0.4123 -1.4853
   36MOL   H46220832   5.986   3.888   6.770 -0.7317 -0.1076  1.3979
   36MOL   H46320833   5.918   4.131   6.864  3.9691  0.2098 -2.6823
   36MOL   H46420834   6.119   4.076   6.969 -0.0820  0.2667 -0.5522
   36MOL   H46520835   6.057   3.913   6.998 -1.0687 -2.2251 -1.7018
   36MOL   C46620836   6.319   3.915   7.003  0.5224 -0.1953  0.2454
   36MOL   C46720837   6.445   3.836   6.973  0.2710 -0.1303 -0.3499
   36MOL   O46820838   6.571   3.911   6.991  0.4545  0.5231  0.1046
   36MOL   C46920839   6.468   3.713   7.055  0.5321 -0.3818  0.4969
   36MOL   O47020840   6.552   3.617   6.994  0.2507  0.1283 -0.1209
   36MOL   C47120841   6.596   3.516   7.078  0.0701  1.0220  0.0453
   36MOL   C47220842   6.616   3.382   7.002 -0.0186 -0.2851  0.1201
   36MOL   C47320843   6.478   3.338   6.941  0.1246 -0.1090 -0.3915
   36MOL   O47420844   6.489   3.214   6.872 -0.3981 -0.3058  0.0867
   36MOL   C47520845   6.393   3.193   6.770 -0.2671  0.6332  0.2603
   36MOL   O47620846   6.258   3.205   6.816  0.2397  0.2781 -0.4910
   36MOL   C47720847   6.415   3.050   6.720  0.6392 -0.2011 -0.4665
   36MOL   O47820848   6.407   2.957   6.827  0.0428  0.0744  0.6015
   36MOL   H47920849   6.272   3.899   7.100  1.5393 -1.5206  0.5346
   36MOL   H48020850   6.346   4.021   7.013  3.4400 -0.6951 -1.5517
   36MOL   H48120851   6.439   3.820   6.865  2.8959  1.5092 -0.7908
   36MOL   H48220852   6.636   3.847   6.967 -1.1499 -0.7511 -1.0183
   36MOL   H48320853   6.505   3.738   7.154 -1.0468 -1.7448  1.4559
   36MOL   H48420854   6.367   3.675   7.068  0.3433  0.9268  3.1408
   36MOL   H48520855   6.526   3.491   7.158  0.7328 -1.6081 -0.1528
   36MOL   H48620856   6.688   3.547   7.126 -0.0769 -1.4427  1.9934
   36MOL   H48720857   6.646   3.317   7.083  0.5516  1.8041  1.6310
   36MOL   H48820858   6.692   3.389   6.924  1.3839  2.8265  1.6819
   36MOL   H48920859   6.391   3.345   7.007  0.6965 -0.3966  0.4112
   36MOL   H49020860   6.441   3.412   6.870 -0.9342  0.4436  0.7139
   36MOL   H49120861   6.412   3.265   6.690 -1.2942 -1.0366 -1.5209
   36MOL   H49220862   6.237   3.124   6.859  2.8305  0.1713  0.6932
   36MOL   H49320863   6.338   3.026   6.646 -0.1260 -2.0246  0.8855
   36MOL   H49420864   6.506   3.054   6.659  0.3567 -1.6740 -1.0166
   36MOL   C49520865   6.520   2.875   6.827 -0.0508  0.0051  0.1281
   36MOL   C49620866   6.508   2.741   6.737  0.3431  0.1317 -0.3482
   36MOL   O49720867   6.541   2.790   6.606  0.3892 -0.3732 -0.1346
   36MOL   C49820868   6.604   2.621   6.785  0.4012 -0.3285  0.2424
   36MOL   O49920869   6.561   2.504   6.713 -0.2313 -0.1492 -0.4687
   36MOL   C50020870   6.635   2.385   6.722 -0.2832 -0.6098  0.0217
   36MOL   C50120871   6.593   2.304   6.598 -0.5756  0.6269 -1.0654
   36MOL   C50220872   6.660   2.163   6.599 -0.2610  0.1235  0.2634
   36MOL   O50320873   6.580   2.079   6.512 -0.1540  0.0119  0.0436
   36MOL   C50420874   6.640   1.961   6.462  0.3515  0.4863  0.1515
   36MOL   O50520875   6.736   1.987   6.366  0.1977  0.3238 -0.3049
   36MOL   C50620876   6.531   1.879   6.387 -0.9671  0.5087  0.0813
   36MOL   O50720877   6.450   1.964   6.308  0.1154 -0.4214  0.5480
   36MOL   H50820878   6.540   2.856   6.932 -0.1545  2.8863  0.7018
   36MOL   H50920879   6.612   2.928   6.801 -0.5278  0.8970  0.2286
   36MOL   H51020880   6.407   2.703   6.742  0.4658 -0.0869  0.4529
   36MOL   H51120881   6.516   2.722   6.546 -2.9021  0.5633  0.0848
   36MOL   H51220882   6.704   2.657   6.761  0.5485  0.1894  1.5614
   36MOL   H51320883   6.599   2.601   6.892  1.1196 -1.8725  0.0068
   36MOL   H51420884   6.617   2.332   6.816  2.8844 -0.2930  0.8517
   36MOL   H51520885   6.742   2.401   6.710 -0.1930 -1.5430 -0.4592
   36MOL   H51620886   6.603   2.362   6.506 -0.3504  1.0635 -0.7672
   36MOL   H51720887   6.486   2.292   6.614  0.0136 -1.4151  1.6477
   36MOL   H51820888   6.757   2.182   6.552  0.5352  0.3626  1.9646
   36MOL   H51920889   6.661   2.125   6.701  0.0461  2.0436  0.9897
   36MOL   H52020890   6.673   1.896   6.543 -1.1276  0.9876  1.1849
   36MOL   H52120891   6.696   2.025   6.289  0.2426  0.3784 -0.3017
   36MOL   H52220892   6.584   1.811   6.319 -0.5568  2.7022 -1.8805
   36MOL   H52320893   6.468   1.818   6.452  0.4707 -0.1781  0.8619
   36MOL   C52420894   6.308   1.935   6.302  0.3382  0.6914  0.1855
   36MOL   C52520895   6.275   1.800   6.235  0.2302  0.7073  0.2935
   36MOL   O52620896   6.288   1.824   6.096 -0.3817  0.3909  0.0919
   36MOL   C52720897   6.137   1.750   6.259  0.2081 -0.2507  0.1258
   36MOL   O52820898   6.043   1.843   6.235 -1.1285 -0.1476  0.0062
   36MOL   C52920899   5.906   1.794   6.268 -0.4677 -0.2151  0.6660
   36MOL   C53020900   5.805   1.910   6.294  0.2821  0.5233 -0.1153
   36MOL   C53120901   5.663   1.859   6.298 -0.3061 -0.3877  0.8946
   36MOL   O53220902   5.576   1.971   6.320  0.2568  0.2593 -0.3731
   36MOL   C53320903   5.435   1.957   6.310  0.1493 -0.0821  0.0732
   36MOL   O53420904   5.377   1.890   6.418 -0.0061 -0.3912 -0.2063
   36MOL   C53520905   5.374   2.093   6.301  0.7863 -0.0435 -0.6381
   36MOL   O53620906   5.424   2.161   6.414 -0.4904 -0.0132 -0.1812
   36MOL   H53720907   6.252   2.013   6.249  1.7993  1.4003 -0.3666
   36MOL   H53820908   6.268   1.934   6.403 -0.2740 -0.3479 -0.0594
   36MOL   H53920909   6.349   1.730   6.276  0.4601 -1.3749 -3.4741
   36MOL   H54020910   6.316   1.913   6.087  2.1228 -0.0692  2.5656
   36MOL   H54120911   6.118   1.665   6.193  0.2102  1.0413 -1.5749
   36MOL   H54220912   6.129   1.714   6.361 -3.5228 -1.3569 -0.4805
   36MOL   H54320913   5.917   1.737   6.361  0.5414 -0.2184  0.5548
   36MOL   H54420914   5.864   1.721   6.199 -0.9461 -0.8979  1.6627
   36MOL   H54520915   5.824   1.989   6.222  0.3734  0.2829 -0.3581
   36MOL   H54620916   5.829   1.957   6.390  0.9731  0.2449 -0.1422
   36MOL   H54720917   5.648   1.807   6.204  1.5765 -0.9024  0.8585
   36MOL   H54820918   5.646   1.783   6.375  2.7765 -0.6153  1.4198
   36MOL   H54920919   5.413   1.894   6.224  0.4257  1.0792 -0.8549
   36MOL   H55020920   5.401   1.928   6.501 -1.2078  0.4588 -0.2341
   36MOL   H55120921   5.418   2.139   6.213  0.6867 -2.0851 -1.7940
   36MOL   H55220922   5.265   2.085   6.295  0.7273  0.0139  0.2808
   36MOL   C55320923   5.398   2.297   6.405 -0.1386 -0.1175 -0.4817
   36MOL   C55420924   5.501   2.373   6.324  0.9870  0.0921  0.5625
   36MOL   O55520925   5.468   2.365   6.193  0.5228  0.0257 -0.0928
   36MOL   C55620926   5.648   2.331   6.335 -0.1654  0.6713  0.9355
   36MOL   O55720927   5.725   2.445   6.301 -0.0146 -0.0999 -0.6155
   36MOL   C55820928   5.854   2.435   6.333  0.4510  0.6062 -0.0878
   36MOL   C55920929   5.930   2.537   6.247 -0.0712 -0.4509  0.6088
   36MOL   C56020930   5.935   2.473   6.112  0.4984  0.2996 -1.1658
   36MOL   O56120931   6.014   2.359   6.117  0.1312 -0.1421 -0.0944
   36MOL   C56220932   5.994   2.272   6.009  0.0897 -0.2684 -0.1553
   36MOL   O56320933   6.052   2.307   5.888 -0.1384 -0.2122  0.2670
   36MOL   C56420934   6.049   2.133   6.056 -0.3279  0.1550  0.5157
   36MOL   O56520935   6.189   2.148   6.053 -0.4585 -0.1259  0.0316
   36MOL   H56620936   5.405   2.335   6.507 -2.3096  1.6911 -0.9684
   36MOL   H56720937   5.297   2.315   6.368  1.0544 -0.2890 -4.0399
   36MOL   H56820938   5.496   2.480   6.341 -0.9386 -0.1516  1.6336
   36MOL   H56920939   5.550   2.370   6.147  0.6155  0.6787  0.1403
   36MOL   H57020940   5.666   2.290   6.435  1.0198 -1.9120 -0.3075
   36MOL   H57120941   5.668   2.255   6.259  0.0519  0.1238  1.5325
   36MOL   H57220942   5.866   2.463   6.438 -1.2682  0.3285  0.1963
   36MOL   H57320943   5.888   2.331   6.329 -2.5489 -0.5010  1.6113
   36MOL   H57420944   6.034   2.561   6.271  0.6594 -2.2314 -0.6152
   36MOL   H57520945   5.876   2.631   6.244  1.5518  0.4583 -3.3038
   36MOL   H57620946   5.837   2.467   6.065 -0.4450 -0.0416  0.8178
   36MOL   H57720947   5.972   2.547   6.041  0.4749  1.2419 -0.1998
   36MOL   H57820948   5.887   2.253   6.006 -0.3917  2.4265 -0.6114
   36MOL   H57920949   6.140   2.272   5.884 -0.2156 -0.4161  0.3169
   36MOL   H58020950   6.008   2.116   6.156 -0.4760  0.8761  0.5865
   36MOL   H58120951   6.016   2.054   5.990  2.4609  0.0225 -0.7984
   36MOL   H58220952   6.191   2.235   6.089  1.2562 -0.2573  0.3245
   37MOL     C120953   2.751   6.594   0.376 -0.0654  0.4231  0.1443
   37MOL     C220954   2.737   6.439   0.331 -0.6867 -0.3380 -0.4605
   37MOL     O320955   2.649   6.375   0.415 -0.2581  0.1012  0.1888
   37MOL     C420956   2.683   6.427   0.182 -0.3143  0.4008 -0.5335
   37MOL     O520957   2.548   6.476   0.175 -0.3990 -0.4016 -0.6675
   37MOL     C620958   2.505   6.471   0.037 -1.2577 -0.6448 -0.4589
   37MOL     C720959   2.522   6.607   7.670 -0.3143  0.0329  0.4480
   37MOL     C820960   2.480   6.609   7.525  0.4350 -0.3839  0.1407
   37MOL     O920961   2.339   6.622   7.532 -0.0902  0.1377  0.4836
   37MOL    C1020962   2.274   6.562   7.425 -0.6368  0.0485  0.0868
   37MOL    O1120963   2.297   6.611   7.296 -0.5661 -0.5494 -0.0665
   37MOL    C1220964   2.124   6.552   7.455  0.1776  0.2150  0.2271
   37MOL    O1320965   2.084   6.442   7.527  0.0653 -0.3376 -0.0037
   37MOL    H1420966   2.824   6.639   0.308  1.4467 -2.1566  0.0077
   37MOL    H1520967   2.775   6.609   0.482  0.4936 -1.0095  0.2271
   37MOL    H1620968   2.832   6.386   0.344 -0.8272 -0.1892  1.2584
   37MOL    H1720969   2.565   6.395   0.377  0.4696  0.8197 -1.0817
   37MOL    H1820970   2.752   6.485   0.120 -0.3907  0.6835 -0.3544
   37MOL    H1920971   2.687   6.327   0.138  0.8365  1.3743 -2.6930
   37MOL    H2020972   2.397   6.456   0.029 -1.3513  0.5418 -1.5513
   37MOL    H2120973   2.550   6.388   7.677  2.8838  0.9841  0.2880
   37MOL    H2220974   2.630   6.626   7.668 -0.2733 -0.2654 -0.4476
   37MOL    H2320975   2.475   6.690   0.027 -0.7869 -0.1529  0.3175
   37MOL    H2420976   2.510   6.701   7.474 -1.5331  1.4045  2.1209
   37MOL    H2520977   2.512   6.519   7.472 -0.6353 -2.2230  2.5748
   37MOL    H2620978   2.316   6.461   7.424  0.9020  0.6814 -0.7128
   37MOL    H2720979   2.346   6.545   7.250  0.6965 -0.6334  1.3435
   37MOL    H2820980   2.098   6.635   7.520 -0.9455  2.8264 -3.3639
   37MOL    H2920981   2.057   6.565   7.369  2.2841 -1.1490 -1.6709
   37MOL    H3020982   2.651   6.635   0.365 -1.4068 -3.0752 -0.9730
   37MOL    C3120983   2.076   6.320   7.457  0.4839  0.2575 -0.5596
   37MOL    C3220984   2.083   6.204   7.557  0.3078 -0.2843 -0.1549
   37MOL    O3320985   2.216   6.188   7.592  0.5510  0.3474  0.1107
   37MOL    C3420986   2.024   6.067   7.504  0.0439 -0.6927 -0.0855
   37MOL    O3520987   2.000   5.972   7.614  0.7249  0.3432  0.3097
   37MOL    C3620988   2.117   5.889   7.641 -0.0811 -0.1004  0.1823
   37MOL    C3720989   2.074   5.791   0.062 -0.2517 -0.1297  0.2362
   37MOL    C3820990   2.171   5.678   0.097  0.8700 -1.0183  0.0678
   37MOL    O3920991   2.109   5.585   0.184 -0.6878  0.1639  0.3950
   37MOL    C4020992   2.185   5.471   0.221  0.0136  0.1098  0.4831
   37MOL    O4120993   2.231   5.405   0.111  0.0206 -0.3562  0.3338
   37MOL    C4220994   2.088   5.384   0.297 -0.0626  0.0377  0.0039
   37MOL    O4320995   2.072   5.430   0.427 -0.6607 -0.3408  0.1405
   37MOL    H4420996   1.977   6.318   7.411 -0.1000  2.8074  0.5429
   37MOL    H4520997   2.149   6.304   7.378  0.8048 -1.7903  0.1132
   37MOL    H4620998   2.028   6.232   7.647  2.0550 -1.3517  1.2685
   37MOL    H4720999   2.243   6.240   7.666 -1.0906  0.1394  0.8696
   37MOL    H4821000   1.924   6.091   7.467 -0.1653 -2.2712 -0.5577
   37MOL    H4921001   2.076   6.022   7.419  0.4753 -0.1611 -0.1058
   37MOL    H5021002   2.210   5.936   7.673 -0.5449  2.3942 -1.8913
   37MOL    H5121003   2.156   5.832   7.557  1.8632 -0.4563  1.3015
   37MOL    H5221004   1.972   5.769   0.031 -0.2071  1.7938 -1.3203
   37MOL    H5321005   2.059   5.850   0.152 -1.1117 -0.3015  0.2116
   37MOL    H5421006   2.199   5.632   0.002 -0.0959  0.0808 -0.7629
   37MOL    H5521007   2.259   5.721   0.145 -0.4771  0.2651  1.4085
   37MOL    H5621008   2.273   5.499   0.279  1.6621  2.1256 -2.7863
   37MOL    H5721009   2.155   5.367   0.068 -0.6791  1.1500  0.2097
   37MOL    H5821010   1.989   5.374   0.252 -0.4934  0.0327  0.9372
   37MOL    H5921011   2.134   5.285   0.294 -2.5082 -1.0764 -2.4923
   37MOL    C6021012   1.972   5.366   0.502 -0.3454  0.3960  0.3632
   37MOL    C6121013   1.957   5.443   0.634  0.3225 -0.1542  0.5233
   37MOL    O6221014   1.899   5.357   0.735  0.7301 -0.5908 -0.5035
   37MOL    C6321015   1.874   5.572   0.616  0.0205 -0.4757  0.1631
   37MOL    O6421016   1.747   5.536   0.563 -0.2687  0.3317  0.8135
   37MOL    C6521017   1.665   5.654   0.535  0.1424  0.4975 -0.5331
   37MOL    C6621018   1.676   5.695   0.383  0.1378 -0.1260  0.3258
   37MOL    C6721019   1.630   5.585   0.296 -0.7009  0.8275  0.3622
   37MOL    O6821020   1.488   5.567   0.297 -0.3274 -0.1647 -0.0316
   37MOL    C6921021   1.430   5.495   0.195  0.1691 -0.0102  0.2248
   37MOL    O7021022   1.490   5.370   0.191  0.2397  0.4319 -0.0403
   37MOL    C7121023   1.285   5.472   0.224 -0.3505 -0.3378  0.0909
   37MOL    O7221024   1.212   5.590   0.233 -0.0881  0.0666  0.0610
   37MOL    H7321025   1.999   5.262   0.521 -1.0840  0.3869  1.3963
   37MOL    H7421026   1.877   5.365   0.448  0.1228  1.7577 -0.5047
   37MOL    H7521027   2.053   5.482   0.667 -0.0577  1.4982 -0.2717
   37MOL    H7621028   1.822   5.320   0.695  1.2368 -2.4026  0.1215
   37MOL    H7721029   1.874   5.613   0.717 -0.8687  0.4253 -0.2057
   37MOL    H7821030   1.922   5.645   0.550 -1.3565 -0.3034 -0.6548
   37MOL    H7921031   1.683   5.739   0.602 -1.3604 -0.0655  0.6087
   37MOL    H8021032   1.558   5.635   0.539  0.4023 -0.7793  0.8432
   37MOL    H8121033   1.778   5.709   0.348  0.9950 -0.2601  2.7416
   37MOL    H8221034   1.628   5.790   0.358 -0.2647  0.1851  2.2315
   37MOL    H8321035   1.696   5.504   0.326 -1.5262  0.3755  0.9629
   37MOL    H8421036   1.654   5.601   0.191 -0.3485 -0.4710  0.2375
   37MOL    H8521037   1.436   5.544   0.098 -0.0943  0.4044  0.4167
   37MOL    H8621038   1.459   5.324   0.115 -2.5912  0.3267  1.1234
   37MOL    H8721039   1.254   5.401   0.147  1.2375 -0.0059 -0.8644
   37MOL    H8821040   1.272   5.404   0.308  2.0509  1.4593  1.9981
   37MOL    C8921041   1.206   5.637   0.372 -0.5014  0.3380  0.1078
   37MOL    C9021042   1.160   5.786   0.378 -0.2521  0.6037  0.3926
   37MOL    O9121043   1.099   5.819   0.502  0.3083 -0.2874 -0.3262
   37MOL    C9221044   1.286   5.868   0.345 -0.0005 -0.1490 -0.4369
   37MOL    O9321045   1.250   5.996   0.300  0.3695  0.4193  0.0738
   37MOL    C9421046   1.362   6.079   0.271  0.7199  0.2261  0.2648
   37MOL    C9521047   1.308   6.224   0.229 -0.4500  0.5857 -0.5310
   37MOL    C9621048   1.427   6.320   0.216 -0.1072  0.4107 -0.2979
   37MOL    O9721049   1.407   6.445   0.282  0.1234 -0.0275 -0.2464
   37MOL    C9821050   1.516   6.535   0.252  0.3698  0.1571  0.2376
   37MOL    O9921051   1.494   6.590   0.127 -0.4289  0.3909 -0.1609
   37MOL   C10021052   1.523   6.641   0.361 -0.1008  0.4792  0.6114
   37MOL   O10121053   1.658   6.696   0.381  0.0053 -0.0972 -0.2292
   37MOL   H10221054   1.303   5.628   0.421 -1.0324 -0.2965  1.0482
   37MOL   H10321055   1.144   5.566   0.426  3.2975 -1.3174  2.5460
   37MOL   H10421056   1.090   5.800   0.295  0.9582 -3.7215 -1.5398
   37MOL   H10521057   1.010   5.851   0.493 -0.4347 -2.2100 -0.1917
   37MOL   H10621058   1.348   5.878   0.434 -0.1759 -0.1754 -0.3117
   37MOL   H10721059   1.349   5.831   0.265 -1.5446 -1.4126 -1.0967
   37MOL   H10821060   1.421   6.041   0.188  1.0802 -0.5021  0.8572
   37MOL   H10921061   1.430   6.084   0.355  1.5066  0.8029 -0.3875
   37MOL   H11021062   1.243   6.256   0.311  0.2279 -1.0448  0.6571
   37MOL   H11121063   1.242   6.235   0.143 -0.2345  0.0664 -0.7649
   37MOL   H11221064   1.511   6.268   0.261 -1.2729 -1.6112 -0.3901
   37MOL   H11321065   1.458   6.330   0.112  1.5949  2.6250  0.3733
   37MOL   H11421066   1.611   6.484   0.260  1.8223  2.8786  1.1244
   37MOL   H11521067   1.523   6.524   0.066  0.0975  1.2470 -0.8423
   37MOL   H11621068   1.459   6.721   0.324 -1.7550 -0.8664  0.4997
   37MOL   H11721069   1.474   6.600   0.450  1.0541 -1.0392  0.5732
   37MOL   C11821070   1.715   6.690   0.514  0.0137  0.7420  0.0840
   37MOL   C11921071   1.783   6.560   0.542  0.0707 -0.1430  0.0457
   37MOL   O12021072   1.675   6.468   0.545 -0.2276 -0.0529 -0.2648
   37MOL   C12121073   1.859   6.566   0.676  0.0215  0.6687  0.3425
   37MOL   O12221074   1.934   6.454   0.700  0.1435 -0.4389 -0.3086
   37MOL   C12321075   1.991   6.450   0.828  0.2566 -0.1574 -0.4171
   37MOL   C12421076   2.066   6.321   0.838  0.4801  0.5031 -0.5203
   37MOL   C12521077   1.985   6.191   0.852  0.1776 -0.6001  0.0707
   37MOL   O12621078   2.063   6.083   0.812  0.0735 -0.7314 -0.3133
   37MOL   C12721079   2.000   5.964   0.793 -0.5179 -0.6577  0.1770
   37MOL   O12821080   2.090   5.865   0.837  0.4577 -0.1839 -0.3454
   37MOL   C12921081   1.966   5.938   0.646 -0.2502 -0.0589 -0.0246
   37MOL   O13021082   1.830   5.972   0.624 -0.1949  0.7530  0.1757
   37MOL   H13121083   1.779   6.778   0.516 -0.5043  1.1624 -1.1858
   37MOL   H13221084   1.643   6.703   0.595 -0.3931  1.1131 -0.3334
   37MOL   H13321085   1.846   6.540   0.455 -0.6220  2.6924 -1.1914
   37MOL   H13421086   1.701   6.377   0.551  0.7255  0.2810  0.8677
   37MOL   H13521087   1.915   6.659   0.683 -0.4156  1.0367 -0.8878
   37MOL   H13621088   1.793   6.579   0.762  2.4826  1.7544  2.1245
   37MOL   H13721089   1.920   6.446   0.910  0.6997 -0.8880 -0.0675
   37MOL   H13821090   2.059   6.534   0.832 -0.6343  0.6233 -1.3016
   37MOL   H13921091   2.143   6.327   0.915  1.4124  2.3419 -1.5498
   37MOL   H14021092   2.130   6.317   0.750 -1.3771 -0.6099 -1.8635
   37MOL   H14121093   1.939   6.184   0.950  0.3731 -0.1771  0.1955
   37MOL   H14221094   1.906   6.213   0.780 -0.8319  0.3789  1.4531
   37MOL   H14321095   1.912   5.959   0.857 -0.5994 -2.9920 -0.0803
   37MOL   H14421096   2.141   5.833   0.765  2.6751  1.3029  0.4997
   37MOL   H14521097   2.038   5.994   0.587  0.9440  0.8393  2.2293
   37MOL   H14621098   1.983   5.832   0.623  2.5265  0.9695 -3.0416
   37MOL   C14721099   1.801   5.996   0.483  0.5601  0.0906  0.0033
   37MOL   C14821100   1.807   6.158   0.467  0.1171  0.4743  0.0636
   37MOL   O14921101   1.694   6.200   0.530 -0.0999 -0.1239 -0.1554
   37MOL   C15021102   1.822   6.202   0.319 -0.2515 -0.8783 -0.4351
   37MOL   O15121103   1.723   6.149   0.238  0.7466  0.1911 -0.6751
   37MOL   C15221104   1.764   6.155   0.104 -0.1969  0.0680 -0.6194
   37MOL   C15321105   1.660   6.112   0.007  0.1716  0.4913  0.3423
   37MOL   C15421106   1.635   5.963   0.028 -1.0154  0.1274  0.0573
   37MOL   O15521107   1.514   5.946   7.654  0.4973 -0.8066  0.5010
   37MOL   C15621108   1.460   5.815   7.662  0.4570  0.2889 -0.4540
   37MOL   O15721109   1.532   5.723   7.583  0.4721  0.1878 -0.5477
   37MOL   C15821110   1.303   5.814   7.617 -0.0391  0.0714 -0.1267
   37MOL   O15921111   1.237   5.924   7.669 -0.3344 -0.4465  0.1099
   37MOL   H16021112   1.701   5.967   0.450  0.2533 -0.2773  1.2296
   37MOL   H16121113   1.869   5.939   0.420 -0.0508  0.4279 -0.9805
   37MOL   H16221114   1.898   6.192   0.516  0.0239 -0.1357  0.6710
   37MOL   H16321115   1.648   6.122   0.555  0.0597  0.1384  0.9531
   37MOL   H16421116   1.824   6.311   0.321  0.1625 -0.8838  2.8053
   37MOL   H16521117   1.922   6.175   0.284 -0.8098 -1.9261 -1.2309
   37MOL   H16621118   1.851   6.090   0.094  0.5322  0.7878  0.8299
   37MOL   H16721119   1.805   6.255   0.089  1.1552 -0.1103  1.6628
   37MOL   H16821120   1.681   6.150   7.602  0.3920  1.6941  0.8482
   37MOL   H16921121   1.561   6.156   0.024  0.3181  0.2914  1.7730
   37MOL   H17021122   1.716   5.901   7.686 -1.1254  0.6027 -1.0163
   37MOL   H17121123   1.639   5.937   0.134 -1.1734 -3.0686 -0.6643
   37MOL   H17221124   1.465   5.791   0.074  1.6027  0.2702 -0.4968
   37MOL   H17321125   1.518   5.743   7.492 -3.3060 -1.5909 -0.4433
   37MOL   H17421126   1.312   5.825   7.509 -1.3311 -0.0778 -0.2510
   37MOL   H17521127   1.265   5.718   7.652 -3.2225  1.3745  0.1557
   37MOL   C17621128   1.103   5.935   7.633 -0.0807 -0.6037 -0.3056
   37MOL   C17721129   1.042   6.063   7.686  0.1619  0.1149  0.0643
   37MOL   O17821130   1.013   6.043   0.128  0.0950 -0.7212 -0.0147
   37MOL   C17921131   0.909   6.092   7.606 -0.9572 -0.1137  0.0552
   37MOL   O18021132   0.960   6.121   7.479  0.2104  0.2700 -0.4343
   37MOL   C18121133   0.863   6.166   7.387 -0.2988 -0.4694  0.3383
   37MOL   C18221134   0.830   6.319   7.405  0.0918  0.1337 -0.1824
   37MOL   C18321135   0.707   6.369   7.323  0.0469 -0.5056  0.4005
   37MOL   O18421136   0.701   6.509   7.332  0.1545 -0.4934  0.2613
   37MOL   C18521137   0.614   6.552   7.428  0.0896  0.1875 -0.3830
   37MOL   O18621138   0.477   6.528   7.409 -0.0092  0.1732 -0.0511
   37MOL   C18721139   0.623   6.705   7.425  0.3641 -0.5906  0.5012
   37MOL   O18821140   0.573   6.763   7.312  0.0075 -0.5346 -0.5726
   37MOL   H18921141   1.047   5.843   7.649  0.4779 -1.1680 -1.4632
   37MOL   H19021142   1.107   5.937   7.524  0.0505  1.9430 -0.2720
   37MOL   H19121143   1.113   6.145   7.671  1.1150 -0.4653  1.3559
   37MOL   H19221144   1.096   6.019   0.168  0.4696  0.1497 -0.2652
   37MOL   H19321145   0.843   6.006   7.616  0.6095 -1.3713 -0.4616
   37MOL   H19421146   0.861   6.181   7.648  2.0832  0.8918  1.5210
   37MOL   H19521147   0.774   6.103   7.386 -0.0113 -0.8931 -2.1876
   37MOL   H19621148   0.911   6.149   7.290  0.5712 -2.0351  1.0243
   37MOL   H19721149   0.926   6.367   7.384 -0.0983  0.4408 -0.3436
   37MOL   H19821150   0.805   6.340   7.509  0.0612 -0.1001 -0.1420
   37MOL   H19921151   0.720   6.354   7.216 -0.8034  0.9097  0.0852
   37MOL   H20021152   0.617   6.313   7.351  0.4269 -1.1208  0.3921
   37MOL   H20121153   0.629   6.514   7.528 -0.6337  0.2574 -0.2411
   37MOL   H20221154   0.464   6.601   7.350  0.9676  0.2658 -0.1642
   37MOL   H20321155   0.577   6.746   7.515 -0.4826  0.8662 -0.5792
   37MOL   H20421156   0.730   6.720   7.440  0.3803  0.6126 -0.7220
   37MOL   C20521157   0.583   6.901   7.307  0.4693  0.3467  0.2297
   37MOL   C20621158   0.513   6.947   7.183 -0.5764  0.0050 -0.5088
   37MOL   O20721159   0.492   7.085   7.206 -0.0682  0.2633 -0.1386
   37MOL   C20821160   0.584   6.919   7.051  0.1211  0.3251 -0.3411
   37MOL   O20921161   0.506   6.922   6.934 -0.0583 -0.5840  0.2428
   37MOL   C21021162   0.470   7.055   6.895 -0.5168  0.3343 -0.2609
   37MOL   C21121163   0.355   7.046   6.802  0.0374  0.7288  0.6039
   37MOL   C21221164   0.224   7.018   6.881  0.1270 -1.2453  1.0520
   37MOL   O21321165   0.209   7.121   6.984  0.4995  0.9693  0.2038
   37MOL   C21421166   0.131   7.070   7.089 -1.0123  0.4067 -0.7041
   37MOL   O21521167   0.003   7.024   7.051 -0.4746  0.2635  0.4764
   37MOL   C21621168   0.107   7.178   7.189 -0.0939 -0.8378  0.2310
   37MOL   O21721169   0.232   7.223   7.236  0.4787 -0.0941  0.2777
   37MOL   H21821170   0.688   6.930   7.311  0.9263 -1.1697 -0.2821
   37MOL   H21921171   0.544   6.953   7.394 -0.9552  2.4585 -1.6301
   37MOL   H22021172   0.420   6.893   7.170 -0.1280 -0.7438 -0.6742
   37MOL   H22121173   0.403   7.113   7.194  0.2668  1.7953  0.8298
   37MOL   H22221174   0.673   6.982   7.043 -0.6208  1.7099  2.1360
   37MOL   H22321175   0.619   6.819   7.022  1.3521  1.0634 -1.4868
   37MOL   H22421176   0.558   7.093   6.843  1.7373  0.1292  3.2218
   37MOL   H22521177   0.443   7.128   6.972  0.7333 -0.2683  0.7599
   37MOL   H22621178   0.363   6.957   6.739  0.9341  0.6431  0.8368
   37MOL   H22721179   0.339   7.135   6.742 -1.1963  0.1812  0.1032
   37MOL   H22821180   0.144   7.024   6.808  1.6923 -1.7019 -0.7624
   37MOL   H22921181   0.226   6.920   6.928 -1.0975 -0.4745  2.7738
   37MOL   H23021182   0.172   6.984   7.142  0.6298  0.3570 -2.0131
   37MOL   H23121183   7.638   7.098   7.045 -0.3437  0.6095  3.0857
   37MOL   H23221184   0.068   7.264   7.134 -1.6561 -0.4394  1.9261
   37MOL   H23321185   0.023   7.149   7.252 -0.1754  1.7012  1.3406
   37MOL   C23421186   0.217   7.310   7.342  0.7455  0.3319 -0.7649
   37MOL   C23521187   0.347   7.347   7.404  0.5948  1.0908 -0.2347
   37MOL   O23621188   0.406   7.226   7.444  0.4009 -0.0987  0.0993
   37MOL   C23721189   0.324   7.438   7.525 -0.4005  0.2446  0.0167
   37MOL   O23821190   0.447   7.488   7.579  0.1595 -0.1495  0.2181
   37MOL   C23921191   0.441   7.515   0.023 -0.2174 -0.2544  0.1831
   37MOL   C24021192   0.381   7.646   0.064  0.5406  0.0135  0.3588
   37MOL   C24121193   0.370   7.668   0.218 -0.6959  0.6336  0.6922
   37MOL   O24221194   0.238   0.008   0.254  0.4132  0.5719 -0.9525
   37MOL   C24321195   0.194   0.132   0.222  0.8477 -0.2326  0.5832
   37MOL   O24421196   0.236   0.237   0.312  0.1106  0.0818  0.7207
   37MOL   C24521197   0.038   0.128   0.227 -0.2455 -0.2402  0.0088
   37MOL   O24621198   7.676   0.082   0.099  0.5305 -0.3147 -0.2761
   37MOL   H24721199   0.154   7.392   7.308  1.5000  1.3138  0.1541
   37MOL   H24821200   0.157   7.263   7.420  0.1664 -0.6194 -1.7724
   37MOL   H24921201   0.420   7.387   7.333  1.0290 -2.0107 -1.6436
   37MOL   H25021202   0.448   7.198   7.364 -0.3349  0.3895 -0.4663
   37MOL   H25121203   0.267   7.525   7.492 -0.3285  0.3856  0.2652
   37MOL   H25221204   0.264   7.390   7.603  1.1785 -0.5718  0.7472
   37MOL   H25321205   0.546   7.532   0.047  0.0216 -2.1208  0.5451
   37MOL   H25421206   0.404   7.429   0.079 -2.2289  0.3723 -0.1545
   37MOL   H25521207   0.278   7.659   0.031  0.6819 -0.3537 -0.2541
   37MOL   H25621208   0.432   0.039   0.024 -1.3524  0.6639 -0.6887
   37MOL   H25721209   0.384   7.576   0.274  2.2929  0.9574  0.5581
   37MOL   H25821210   0.439   0.051   0.250 -0.8427  0.9807  0.1856
   37MOL   H25921211   0.222   0.155   0.119  0.1261 -0.0865  0.4186
   37MOL   H26021212   0.227   0.207   0.401  0.0627 -1.4243  0.2335
   37MOL   H26121213   0.010   0.061   0.308 -0.9174  0.3127  0.2405
   37MOL   H26221214   7.691   0.227   0.248 -0.6692  0.5011 -3.9198
   37MOL   C26321215   7.642   7.638   0.105  0.7308 -0.8217  0.1447
   37MOL   C26421216   7.550   7.597   7.681 -0.1003 -0.4486 -0.3132
   37MOL   O26521217   7.634   7.614   7.578 -0.1253 -0.0957  0.1650
   37MOL   C26621218   7.512   7.447   0.004  0.7911  0.6076  0.4148
   37MOL   O26721219   7.433   7.443   0.120  0.1437  0.2615  0.3491
   37MOL   C26821220   7.404   7.307   0.155 -0.5205  0.0592 -0.0497
   37MOL   C26921221   7.314   7.319   0.275  0.1599 -0.1764  0.4216
   37MOL   C27021222   7.266   7.182   0.325 -1.0633  0.1348  0.5049
   37MOL   O27121223   7.379   7.120   0.386 -0.5091  0.0563  0.6446
   37MOL   C27221224   7.354   6.997   0.436 -0.1887  0.1656 -0.0210
   37MOL   O27321225   7.311   6.908   0.334  0.3797  0.5710  0.4230
   37MOL   C27421226   7.481   6.946   0.494 -0.5560 -0.5837 -0.6947
   37MOL   O27521227   7.531   7.019   0.605  0.0469  0.2758 -0.1367
   37MOL   H27621228   7.592   7.605   0.196 -0.5810 -1.1033 -0.6569
   37MOL   H27721229   0.038   7.577   0.108 -0.0203 -2.0558 -1.3030
   37MOL   H27821230   7.464   7.664   7.681  1.3279  1.4445  0.2663
   37MOL   H27921231   7.654   0.011   7.588 -1.7467  0.3762 -0.7185
   37MOL   H28021232   7.458   7.403   7.615 -0.4251  1.2128  0.8717
   37MOL   H28121233   7.599   7.385   0.026 -0.4782 -1.0114  0.9923
   37MOL   H28221234   7.500   7.264   0.182 -0.9538 -1.0189 -0.2148
   37MOL   H28321235   7.361   7.248   0.074  1.1336  1.2128 -1.8515
   37MOL   H28421236   7.232   7.390   0.261 -0.3036 -1.2040 -2.5076
   37MOL   H28521237   7.367   7.363   0.359  0.2505  1.1320 -0.3139
   37MOL   H28621238   7.189   7.201   0.400 -2.9015 -0.6155 -1.1449
   37MOL   H28721239   7.211   7.127   0.249 -0.1918  1.0808 -0.8383
   37MOL   H28821240   7.275   7.006   0.511  0.5832  1.4838  0.6620
   37MOL   H28921241   7.386   6.898   0.278 -0.2353  2.2072 -0.7444
   37MOL   H29021242   7.465   6.842   0.522  3.9305 -1.8051 -2.2454
   37MOL   H29121243   7.562   6.951   0.422  2.7435  0.5812  2.9432
   37MOL   C29221244   7.663   6.980   0.647  0.0140 -0.1981 -0.2008
   37MOL   C29321245   0.019   7.056   0.768  0.8010 -0.1065  0.8780
   37MOL   O29421246   7.662   6.977   0.874 -0.2578 -0.0674  0.6129
   37MOL   C29521247   0.172   7.074   0.785  0.0872  0.2323 -0.3099
   37MOL   O29621248   0.213   7.156   0.894 -0.3113 -0.2194  0.3517
   37MOL   C29721249   0.205   7.295   0.854  0.1287  0.3618 -0.0539
   37MOL   C29821250   0.241   7.364   0.982 -0.0132  0.3489  0.0051
   37MOL   C29921251   0.270   7.510   0.964 -0.9324  0.4782  0.0775
   37MOL   O30021252   0.258   7.574   1.091 -0.3896 -0.6380  0.1700
   37MOL   C30121253   0.273   0.018   1.080 -0.7464 -0.0741 -0.1221
   37MOL   O30221254   0.175   0.087   1.007 -0.1027 -0.3636  0.3202
   37MOL   C30321255   0.274   0.062   1.229 -0.4119 -0.4691  0.1174
   37MOL   O30421256   0.153   0.015   1.285 -0.1318 -0.3521 -0.0302
   37MOL   H30521257   7.683   6.873   0.643  0.0392 -0.2330  0.6921
   37MOL   H30621258   0.027   7.017   0.563  0.7987  1.8725  1.2005
   37MOL   H30721259   7.663   7.153   0.763  0.5953 -0.2724 -0.3548
   37MOL   H30821260   7.691   6.888   0.859 -0.1875  0.2859 -1.5291
   37MOL   H30921261   0.215   6.975   0.805  2.7199  1.6437  1.3400
   37MOL   H31021262   0.221   7.109   0.694 -1.4428 -2.9224 -2.4299
   37MOL   H31121263   0.102   7.319   0.826 -0.1270 -2.3251 -1.5691
   37MOL   H31221264   0.278   7.313   0.774  2.1880 -0.4986  1.5815
   37MOL   H31321265   0.320   7.308   1.032  0.1421 -1.0300 -1.7428
   37MOL   H31421266   0.156   7.357   1.049 -2.3882  1.1558 -2.8077
   37MOL   H31521267   0.373   7.521   0.932 -0.4745 -0.7437  1.0641
   37MOL   H31621268   0.204   7.559   0.893 -1.5173 -1.3935 -0.7170
   37MOL   H31721269   0.367   0.044   1.032  1.7437 -2.3735  3.2603
   37MOL   H31821270   0.097   0.065   1.056 -0.5240 -0.8059 -0.5412
   37MOL   H31921271   0.286   0.171   1.232 -0.0488 -0.4313 -1.8687
   37MOL   H32021272   0.360   0.023   1.284 -0.6679  2.5316  2.8286
   37MOL   C32121273   0.144   0.045   1.429  0.5526 -0.2731 -1.4056
   37MOL   C32221274   0.009   7.691   1.481 -0.4707  0.3290  0.7882
   37MOL   O32321275   0.024   7.553   1.508 -0.0139 -0.5966 -0.2435
   37MOL   C32421276   7.669   0.077   1.609 -0.0160 -0.3847 -0.4001
   37MOL   O32521277   7.588   0.194   1.584 -0.3592  0.6648  0.2327
   37MOL   C32621278   7.532   0.250   1.703  0.0375  0.7912  0.3013
   37MOL   C32721279   7.443   0.371   1.669 -0.1476  0.1943 -0.2879
   37MOL   C32821280   7.337   0.331   1.567  0.1389 -0.0341  0.4047
   37MOL   O32921281   7.261   0.220   1.621  0.2810 -0.1789  0.0674
   37MOL   C33021282   7.178   0.170   1.525  0.2922  0.1039 -0.1963
   37MOL   O33121283   7.244   0.073   1.443  0.1580  0.0743 -0.2315
   37MOL   C33221284   7.059   0.106   1.600 -0.2150 -0.2512  0.3144
   37MOL   O33321285   6.979   0.215   1.648 -0.1336 -0.7562 -0.0226
   37MOL   H33421286   0.153   0.153   1.436 -2.8426 -0.0341  0.4138
   37MOL   H33521287   0.231   0.004   1.480  0.5067 -1.3359 -2.1793
   37MOL   H33621288   7.631   0.012   1.401  0.5972  1.5704  0.0331
   37MOL   H33721289   7.692   7.506   1.430 -1.7007 -0.1757  0.0399
   37MOL   H33821290   0.067   0.103   1.660 -0.5478  1.6176 -0.3942
   37MOL   H33921291   7.617   0.010   1.677  2.3594 -0.7610  1.0823
   37MOL   H34021292   7.614   0.284   1.767 -0.1583  1.8199  0.0097
   37MOL   H34121293   7.477   0.179   1.765  1.2977 -0.2709  0.2320
   37MOL   H34221294   7.398   0.405   1.762  0.1732  2.5605 -0.9723
   37MOL   H34321295   7.496   0.461   1.640 -2.2379  1.5018 -0.1485
   37MOL   H34421296   7.277   0.417   1.538  2.1051  0.5243 -2.1872
   37MOL   H34521297   7.390   0.310   1.474 -0.0454  3.2893 -0.5428
   37MOL   H34621298   7.145   0.243   1.452  0.9485 -1.4530 -2.1006
   37MOL   H34721299   7.305   0.120   1.387  1.0322 -1.9583 -1.0302
   37MOL   H34821300   7.000   0.040   1.536 -2.0262  2.2152 -0.6283
   37MOL   H34921301   7.094   0.045   1.683 -0.3522 -0.0457  0.5225
   37MOL   C35021302   6.875   0.167   1.738 -0.3956 -0.1052  0.2950
   37MOL   C35121303   6.813   0.286   1.825 -1.1869  0.0408  0.2180
   37MOL   O35221304   6.685   0.239   1.870  0.0976 -0.4037  0.6153
   37MOL   C35321305   6.902   0.324   1.942  0.5239  0.3181 -0.1539
   37MOL   O35421306   6.908   0.464   1.936  0.1438  0.2903 -0.7569
   37MOL   C35521307   7.036   0.530   1.964  0.0950 -0.6853  0.9989
   37MOL   C35621308   7.110   0.504   2.097 -0.5560 -0.2599 -1.0818
   37MOL   C35721309   7.234   0.593   2.107 -0.3091  0.1839  0.0903
   37MOL   O35821310   7.294   0.590   2.243 -0.0675  0.6902  0.1590
   37MOL   C35921311   7.395   0.681   2.265  0.4196 -0.9018 -0.2713
   37MOL   O36021312   7.336   0.808   2.288  0.9927 -0.2600  0.2955
   37MOL   C36121313   7.472   0.649   2.393 -0.0507  0.0314  0.6514
   37MOL   O36221314   7.553   0.760   2.421  0.2095  0.4316 -0.3892
   37MOL   H36321315   6.909   0.081   1.797  1.3995  1.1060  1.0769
   37MOL   H36421316   6.793   0.132   1.676 -0.3623  0.1512  0.1102
   37MOL   H36521317   6.796   0.372   1.760 -1.7197  0.3167  0.7128
   37MOL   H36621318   6.638   0.311   1.910 -0.3881 -1.0957  1.3087
   37MOL   H36721319   6.856   0.298   2.037  0.7960  4.8066  1.3470
   37MOL   H36821320   7.005   0.289   1.938  0.6716  0.5549  1.2147
   37MOL   H36921321   7.011   0.636   1.953  0.2489 -0.4839  2.4481
   37MOL   H37021322   7.108   0.511   1.884 -0.0129  0.8809  0.5020
   37MOL   H37121323   7.131   0.398   2.114 -1.5264 -0.2112  0.6396
   37MOL   H37221324   7.043   0.520   2.182 -0.6377 -1.8418 -0.8260
   37MOL   H37321325   7.301   0.561   2.027 -0.9221  0.1445 -0.4021
   37MOL   H37421326   7.218   0.697   2.077 -0.6923 -0.5039 -2.1485
   37MOL   H37521327   7.464   0.681   2.181  1.8112  2.5738  0.7797
   37MOL   H37621328   7.407   0.868   2.307  0.5696  0.7572 -1.2052
   37MOL   H37721329   7.400   0.632   2.473 -2.3452  2.2184 -0.8725
   37MOL   H37821330   7.523   0.556   2.369 -0.6435 -0.4421  1.2118
   37MOL   C37921331   7.622   0.755   2.544  0.3973 -0.0848 -0.1493
   37MOL   C38021332   0.053   0.841   2.541  0.2301 -0.1286 -0.6312
   37MOL   O38121333   0.014   0.973   2.567 -0.3865  0.2341 -0.3272
   37MOL   C38221334   0.149   0.796   2.653 -0.5789  0.0841  0.2449
   37MOL   O38321335   0.093   0.791   2.781  0.0605  0.3651  0.5048
   37MOL   C38421336   0.085   0.909   2.860  0.4539  0.5405  0.3821
   37MOL   C38521337   7.638   0.939   2.914  0.4640 -1.0710  0.1467
   37MOL   C38621338   7.562   1.060   2.852 -0.0615 -0.2493 -0.9449
   37MOL   O38721339   7.496   1.022   2.725 -0.2792 -0.1033  0.1678
   37MOL   C38821340   7.427   1.118   2.650 -0.4030 -0.1383  0.4117
   37MOL   O38921341   7.511   1.193   2.568  1.1606 -0.2452 -0.0428
   37MOL   C39021342   7.332   1.043   2.563  0.3502 -0.2619  0.6570
   37MOL   O39121343   7.230   0.992   2.643 -0.2963  0.4367 -0.0873
   37MOL   H39221344   7.662   0.657   2.570  0.1227  0.1740  1.2756
   37MOL   H39321345   7.546   0.770   2.621  1.2417 -2.5758  1.2334
   37MOL   H39421346   0.108   0.835   2.448  0.1299 -2.2435 -0.5846
   37MOL   H39521347   7.621   0.979   2.602  0.0462  2.1941  0.4899
   37MOL   H39621348   0.182   0.695   2.630  0.3476  0.8100 -1.7541
   37MOL   H39721349   0.240   0.857   2.656  0.5426 -1.6300  2.0682
   37MOL   H39821350   0.131   0.997   2.815  2.5560  0.1800  1.7769
   37MOL   H39921351   0.147   0.890   2.947 -0.2052  0.0659  0.7525
   37MOL   H40021352   7.645   0.973   3.017 -2.2167 -1.0363  0.3454
   37MOL   H40121353   7.575   0.851   2.923 -0.6424 -0.1973  1.0297
   37MOL   H40221354   7.487   1.099   2.921  1.1536  0.1402  0.1847
   37MOL   H40321355   7.642   1.131   2.837 -1.4426  0.8859 -3.1664
   37MOL   H40421356   7.367   1.186   2.710  1.0146  1.7554 -0.2591
   37MOL   H40521357   7.479   1.281   2.586 -1.2475 -1.4150  1.7961
   37MOL   H40621358   7.287   1.118   2.498 -0.1766 -0.8607  0.3271
   37MOL   H40721359   7.394   0.979   2.500 -0.2869  0.8289 -1.1112
   37MOL   C40821360   7.155   0.894   2.573 -0.6222 -0.4713 -0.1790
   37MOL   C40921361   7.069   0.942   2.460  0.2361  0.2736 -0.0211
   37MOL   O41021362   6.977   1.034   2.515 -0.4541  0.4220 -0.2646
   37MOL   C41121363   7.012   0.821   2.384 -0.1662 -0.1089  0.6768
   37MOL   O41221364   6.951   0.880   2.280 -0.2909  0.2772 -0.7395
   37MOL   C41321365   6.895   0.792   2.188  0.5205  0.0785 -0.5110
   37MOL   C41421366   6.808   0.865   2.079  0.3096 -0.3153  0.8579
   37MOL   C41521367   6.769   0.761   1.968 -0.4227  0.0088  0.0365
   37MOL   O41621368   6.675   0.822   1.892 -0.4347 -0.2940 -0.2878
   37MOL   C41721369   6.628   0.740   1.791  0.3959  0.0458 -0.2434
   37MOL   O41821370   6.709   0.729   1.675 -0.0910 -0.3650 -0.0639
   37MOL   C41921371   6.477   0.784   1.749 -0.2489 -0.0778  0.0467
   37MOL   O42021372   6.395   0.670   1.723 -1.1522  0.0613  0.1237
   37MOL   H42121373   7.095   0.844   2.648  1.1475 -0.3318  1.3625
   37MOL   H42221374   7.213   0.810   2.537  2.8239  1.6441  0.1672
   37MOL   H42321375   7.127   1.005   2.393  1.0839  0.7743  1.1583
   37MOL   H42421376   6.911   1.054   2.450 -0.4966  2.0575  0.2619
   37MOL   H42521377   7.093   0.755   2.351 -0.4711  0.2081 -0.7306
   37MOL   H42621378   6.943   0.770   2.451 -2.9693  1.8474 -0.6507
   37MOL   H42721379   6.981   0.744   2.140  1.8039  0.5958  1.2056
   37MOL   H42821380   6.839   0.722   2.250 -1.1950  0.8116 -1.2083
   37MOL   H42921381   6.863   0.951   2.040 -0.6247  0.1011  0.4261
   37MOL   H43021382   6.718   0.891   2.134 -0.4348 -1.5966  0.2774
   37MOL   H43121383   6.854   0.753   1.901  0.9691  0.1328  1.7428
   37MOL   H43221384   6.738   0.664   2.005 -0.9297  0.5490  1.0709
   37MOL   H43321385   6.623   0.634   1.818  3.7139  0.3373  1.7745
   37MOL   H43421386   6.658   0.701   1.601 -0.8609 -0.6095  0.5538
   37MOL   H43521387   6.443   0.834   1.840 -2.7799  1.7221 -1.8396
   37MOL   H43621388   6.477   0.856   1.668  0.8501 -1.0181 -0.8136
   37MOL   C43721389   6.264   0.697   1.747  0.5388 -0.5441 -0.4699
   37MOL   C43821390   6.194   0.615   1.645 -0.4192  0.2483  0.7501
   37MOL   O43921391   6.220   0.667   1.512  0.2721  0.4150 -0.7522
   37MOL   C44021392   6.037   0.620   1.659 -0.5339 -0.5866 -0.1629
   37MOL   O44121393   5.948   0.523   1.596  0.7415 -0.4168  0.7417
   37MOL   C44221394   5.958   0.534   1.451  0.0734  0.7717 -0.3622
   37MOL   C44321395   5.832   0.472   1.383 -0.0436 -0.7982 -0.3704
   37MOL   C44421396   5.813   0.536   1.244  0.3576  0.1364 -0.1534
   37MOL   O44521397   5.790   0.675   1.250 -0.5690 -0.1029  0.0990
   37MOL   C44621398   5.805   0.729   1.120 -0.0576  0.5644  0.5472
   37MOL   O44721399   5.937   0.760   1.099 -0.1982 -0.8381 -0.1108
   37MOL   C44821400   5.705   0.852   1.104  0.0344  0.1772  0.5563
   37MOL   O44921401   5.587   0.811   1.032 -0.1096  0.0829  0.3250
   37MOL   H45021402   6.237   0.668   1.849  0.2564 -1.5156 -0.8110
   37MOL   H45121403   6.235   0.802   1.750 -0.9442 -0.9672  3.7599
   37MOL   H45221404   6.228   0.512   1.651 -1.8947 -0.4472 -1.9726
   37MOL   H45321405   6.170   0.748   1.514  0.7854  0.7239 -0.3587
   37MOL   H45421406   6.012   0.620   1.765 -0.8947  0.0376 -0.2429
   37MOL   H45521407   5.999   0.717   1.627  0.4825 -0.4728 -1.0675
   37MOL   H45621408   6.040   0.473   1.413 -0.3262  0.2957 -0.4568
   37MOL   H45721409   5.977   0.634   1.411  0.6797 -0.2297 -2.5956
   37MOL   H45821410   5.745   0.489   1.448  0.7950  1.3659  0.2372
   37MOL   H45921411   5.848   0.365   1.374  2.3738 -0.3517 -1.5119
   37MOL   H46021412   5.906   0.529   1.188  0.1209  0.9576 -0.6602
   37MOL   H46121413   5.738   0.486   1.183 -1.5474  1.6370  0.8955
   37MOL   H46221414   5.781   0.653   1.046  2.3515 -0.1974  0.4975
   37MOL   H46321415   5.977   0.798   1.177  2.0988 -2.6335 -0.3426
   37MOL   H46421416   5.696   0.910   1.196 -0.1254 -0.7611  1.1341
   37MOL   H46521417   5.756   0.922   1.037  0.8771 -0.5359  0.4468
   37MOL   C46621418   5.477   0.769   1.115  0.1248  0.2912 -0.0004
   37MOL   C46721419   5.378   0.686   1.033 -0.6815  0.0664  0.0815
   37MOL   O46821420   5.284   0.622   1.103 -0.2170  0.2029  0.2898
   37MOL   C46921421   5.315   0.773   0.916 -0.2368  0.2645 -0.5741
   37MOL   O47021422   5.241   0.689   0.833 -0.2599  0.0287  0.2645
   37MOL   C47121423   5.110   0.732   0.817  0.0178  0.0615  0.3769
   37MOL   C47221424   5.033   0.617   0.746  0.1384 -0.3433  0.3206
   37MOL   C47321425   4.885   0.613   0.786 -0.5982  0.3056 -0.0552
   37MOL   O47421426   4.866   0.602   0.928  0.0760  0.8502 -0.0457
   37MOL   C47521427   4.735   0.640   0.959 -0.3663 -0.5003  0.3538
   37MOL   O47621428   4.706   0.780   0.925 -0.2892  0.6684 -0.2718
   37MOL   C47721429   4.713   0.621   1.112 -0.1159 -0.8569  0.8839
   37MOL   O47821430   4.612   0.524   1.139 -0.3468  0.2937 -0.4584
   37MOL   H47921431   5.430   0.864   1.143 -0.2021  0.5015 -1.2226
   37MOL   H48021432   5.509   0.721   1.208  1.7172  0.2150 -0.5769
   37MOL   H48121433   5.426   0.603   0.982  0.7314  0.9041  0.0385
   37MOL   H48221434   5.222   0.686   1.133 -0.0594  1.1267 -1.2879
   37MOL   H48321435   5.265   0.858   0.963 -2.0896 -0.9903 -0.2478
   37MOL   H48421436   5.393   0.817   0.854 -1.3153  1.7520 -0.8852
   37MOL   H48521437   5.114   0.826   0.762  1.3671  1.2491  2.4177
   37MOL   H48621438   5.065   0.762   0.912 -2.3897  1.6725 -1.2111
   37MOL   H48721439   5.076   0.517   0.750 -0.3312 -0.5704 -0.3153
   37MOL   H48821440   5.030   0.637   0.639 -0.1683  0.0959  0.4109
   37MOL   H48921441   4.832   0.693   0.736 -0.4566 -0.0410 -0.7645
   37MOL   H49021442   4.833   0.527   0.744  0.3470 -1.0335  1.4241
   37MOL   H49121443   4.664   0.581   0.900 -0.2052 -0.8017  0.4612
   37MOL   H49221444   4.616   0.799   0.949  0.5465  1.7774  2.1856
   37MOL   H49321445   4.808   0.588   1.153 -0.5951 -1.3903  1.5662
   37MOL   H49421446   4.673   0.709   1.162  3.3742  0.6790  1.0628
   37MOL   C49521447   4.656   0.399   1.110  0.0732  0.6695 -0.9198
   37MOL   C49621448   4.539   0.324   1.173  0.1212  0.3634 -0.1770
   37MOL   O49721449   4.426   0.360   1.089 -0.0890 -0.1916  1.0820
   37MOL   C49821450   4.552   0.166   1.163 -0.4319 -0.8701  0.1042
   37MOL   O49921451   4.437   0.121   1.242 -0.0818 -0.3228  0.2731
   37MOL   C50021452   4.423   7.675   1.239 -0.6594 -0.2598  0.3317
   37MOL   C50121453   4.295   7.637   1.313  0.0385 -0.2289  0.3319
   37MOL   C50221454   4.249   7.494   1.293 -0.4298 -0.1771  0.6032
   37MOL   O50321455   4.108   7.485   1.297 -0.2782  0.1166 -0.8046
   37MOL   C50421456   4.051   7.366   1.243 -0.6030 -0.1951 -0.0385
   37MOL   O50521457   4.068   7.363   1.102  0.5165 -0.0360 -0.3070
   37MOL   C50621458   3.902   7.367   1.276  0.1990  0.2663 -0.2270
   37MOL   O50721459   3.842   7.491   1.246 -0.1272 -0.7191 -0.3286
   37MOL   H50821460   4.745   0.376   1.168  0.5424  0.7109 -1.6166
   37MOL   H50921461   4.664   0.382   1.003  3.2156 -1.1379 -0.4492
   37MOL   H51021462   4.527   0.361   1.274  0.2693 -1.2935  0.4579
   37MOL   H51121463   4.435   0.452   1.067 -0.2871 -0.7178 -1.2882
   37MOL   H51221464   4.548   0.126   1.062 -0.7644  1.8602 -0.9832
   37MOL   H51321465   4.641   0.127   1.213  1.2907  2.2470 -0.4566
   37MOL   H51421466   4.505   7.613   1.275  0.0256  0.3905 -0.1030
   37MOL   H51521467   4.412   7.637   1.138 -1.3261 -2.7252  1.3073
   37MOL   H51621468   4.220   0.014   1.276  0.5661 -0.2872 -0.8703
   37MOL   H51721469   4.304   7.652   1.421 -1.4502 -2.3010  0.7732
   37MOL   H51821470   4.280   7.457   1.196 -0.3197 -1.6613  1.1856
   37MOL   H51921471   4.290   7.428   1.370  0.6699  1.5206  1.4946
   37MOL   H52021472   4.091   7.276   1.289  0.0133  0.7964  1.3714
   37MOL   H52121473   4.003   7.412   1.056 -0.2197  0.3253  1.0763
   37MOL   H52221474   3.860   7.281   1.224 -0.4511  0.7101 -0.4369
   37MOL   H52321475   3.879   7.353   1.382  1.2934  0.3389  0.0205
   37MOL   C52421476   3.714   7.518   1.285  0.8870 -0.4250  0.4020
   37MOL   C52521477   3.659   7.641   1.216  0.2977  0.2908  0.3938
   37MOL   O52621478   3.659   7.613   1.081  0.3451  0.6018  0.5754
   37MOL   C52721479   3.756   0.060   1.260  0.3320  0.5259 -0.0225
   37MOL   O52821480   3.699   0.188   1.243  0.2415 -0.0027  0.0831
   37MOL   C52921481   3.763   0.292   1.323 -0.6558 -0.2015 -0.9856
   37MOL   C53021482   3.689   0.428   1.288 -0.3508  0.4563  0.3635
   37MOL   C53121483   3.535   0.420   1.289  0.2923 -0.4299  0.2541
   37MOL   O53221484   3.487   0.551   1.268 -0.2405 -0.8109 -0.1694
   37MOL   C53321485   3.351   0.557   1.239 -0.3413 -0.8207  0.0733
   37MOL   O53421486   3.281   0.534   1.358 -0.5495 -0.4382  0.2807
   37MOL   C53521487   3.311   0.705   1.185 -0.5109 -0.7048 -0.1462
   37MOL   O53621488   3.203   0.694   1.100  0.0280  0.3298  0.2470
   37MOL   H53721489   3.714   7.523   1.394 -0.2654  0.1003  0.3802
   37MOL   H53821490   3.656   7.431   1.254 -1.3457  0.6671  1.4131
   37MOL   H53921491   3.558   7.661   1.253  0.4365  0.7474  0.5242
   37MOL   H54021492   3.736   7.567   1.051 -0.3399  0.6721 -1.3606
   37MOL   H54121493   3.773   0.052   1.367  2.4510  1.5062 -0.2506
   37MOL   H54221494   3.852   0.063   1.207 -0.3764 -0.4524 -1.3974
   37MOL   H54321495   3.870   0.292   1.306 -0.5928  0.5627 -0.6030
   37MOL   H54421496   3.752   0.271   1.429  2.4717  1.0217 -0.3695
   37MOL   H54521497   3.725   0.462   1.191  1.1527  1.6577  1.3261
   37MOL   H54621498   3.729   0.506   1.353  0.8589 -1.1068  1.5276
   37MOL   H54721499   3.481   0.349   1.227  1.9038 -1.4396 -0.0184
   37MOL   H54821500   3.519   0.383   1.390 -3.1963 -0.4334 -0.2419
   37MOL   H54921501   3.324   0.484   1.163  1.0535 -0.4081 -0.8436
   37MOL   H55021502   3.308   0.455   1.403 -2.3294 -0.8266  0.7316
   37MOL   H55121503   3.311   0.771   1.272  2.7751  1.2884 -1.5499
   37MOL   H55221504   3.392   0.742   1.122  0.0659  0.2516  1.1029
   37MOL   C55321505   3.180   0.820   1.032 -0.4162  0.2447 -0.6156
   37MOL   C55421506   3.066   0.811   0.927 -1.0969 -0.0517 -0.7448
   37MOL   O55521507   3.009   0.937   0.895  0.2534 -0.9187 -0.2757
   37MOL   C55621508   2.957   0.728   0.974 -0.1089 -0.8831  0.0830
   37MOL   O55721509   2.857   0.710   0.875 -0.4774 -0.6569 -0.3449
   37MOL   C55821510   2.761   0.612   0.917  0.2606 -1.2415 -0.0255
   37MOL   C55921511   2.629   0.619   0.837 -0.2100 -0.4700  0.5038
   37MOL   C56021512   2.529   0.509   0.864  0.5129  0.1297  0.1408
   37MOL   O56121513   2.400   0.543   0.814  0.0302 -0.3043  0.0981
   37MOL   C56221514   2.377   0.525   0.684 -0.1087 -0.1884 -0.2792
   37MOL   O56321515   2.327   0.394   0.645 -0.2862  0.4438  0.5248
   37MOL   C56421516   2.269   0.624   0.647  0.1311 -0.5419 -0.3193
   37MOL   O56521517   2.143   0.561   0.653  0.2298  0.2198  0.3857
   37MOL   H56621518   3.275   0.856   0.991  0.9356 -1.5119  0.9067
   37MOL   H56721519   3.142   0.894   1.103 -0.3379 -1.3311  1.0801
   37MOL   H56821520   3.108   0.778   0.832  0.8078  0.1136  0.0086
   37MOL   H56921521   2.923   0.912   0.866 -0.4916  0.2324  0.8809
   37MOL   H57021522   3.002   0.632   1.001  2.0009  0.2844  0.8606
   37MOL   H57121523   2.915   0.774   1.063 -0.5958  0.6177 -0.8989
   37MOL   H57221524   2.790   0.510   0.890 -0.6779 -1.4106 -0.4105
   37MOL   H57321525   2.739   0.614   1.024  1.0752  0.5958  0.1119
   37MOL   H57421526   2.661   0.616   0.733  1.0788  1.2711  0.8324
   37MOL   H57521527   2.595   0.722   0.846  0.8142 -0.2444  2.0372
   37MOL   H57621528   2.549   0.409   0.823 -2.5177 -0.8006  0.8383
   37MOL   H57721529   2.527   0.500   0.972 -0.2815  1.5583  0.2438
   37MOL   H57821530   2.461   0.541   0.616  0.6685 -3.6346 -0.2161
   37MOL   H57921531   2.241   0.403   0.685 -0.6191 -1.1965  0.2152
   37MOL   H58021532   2.279   0.706   0.718  0.3939 -1.8523  1.1885
   37MOL   H58121533   2.282   0.676   0.552 -2.0616 -0.3663 -0.5576
   37MOL   H58221534   2.084   0.634   0.662 -0.2248 -0.1136  0.0840
   38MOL     C121535   6.631   0.998   5.260 -0.2112  0.0418 -0.4938
   38MOL     C221536   6.540   0.926   5.161  0.2731  0.3532 -0.0261
   38MOL     O321537   6.432   1.004   5.138  0.1185 -0.5058  0.0140
   38MOL     C421538   6.611   0.898   5.024 -0.2351  0.7253  0.7386
   38MOL     O521539   6.695   1.009   4.971 -0.5763  0.4562  0.4898
   38MOL     C621540   6.742   0.982   4.840  0.2146 -0.0570  0.3232
   38MOL     C721541   6.658   1.052   4.731 -0.1273 -0.8923 -0.6244
   38MOL     C821542   6.730   1.046   4.593 -0.2673 -0.3939 -0.7430
   38MOL     O921543   6.845   1.128   4.581 -0.0827  0.4632  0.4558
   38MOL    C1021544   6.912   1.129   4.460  0.1834  0.5465 -0.4809
   38MOL    O1121545   7.002   1.020   4.450  0.5765  0.2231  0.1785
   38MOL    C1221546   6.983   1.264   4.444  0.3366  0.2775 -0.1976
   38MOL    O1321547   6.889   1.351   4.381  0.4377  0.2404 -0.3075
   38MOL    H1421548   6.705   0.929   5.298  1.9246  2.9363  0.7326
   38MOL    H1521549   6.572   1.028   5.347  0.5561  1.0964 -0.3244
   38MOL    H1621550   6.502   0.833   5.202  4.2503 -1.4137 -0.0762
   38MOL    H1721551   6.457   1.077   5.083  0.4500  0.1612  1.0269
   38MOL    H1821552   6.668   0.806   5.032 -1.0852  0.0921 -0.3659
   38MOL    H1921553   6.531   0.869   4.956  0.1176 -0.7075  0.9262
   38MOL    H2021554   6.760   0.876   4.821  1.8155 -0.0897  1.7874
   38MOL    H2121555   6.840   1.030   4.835  0.5840 -0.7208  0.9736
   38MOL    H2221556   6.638   1.155   4.760  1.4867 -0.3583 -1.3473
   38MOL    H2321557   6.561   1.007   4.711 -0.2628 -1.2505  0.7710
   38MOL    H2421558   6.752   0.944   4.561  1.2810 -0.7360  1.3107
   38MOL    H2521559   6.658   1.086   4.522 -0.8745 -2.8852 -1.5482
   38MOL    H2621560   6.837   1.125   4.381  1.2011  1.0029 -1.4995
   38MOL    H2721561   7.089   1.050   4.473  1.3853 -0.3822 -2.0457
   38MOL    H2821562   7.024   1.304   4.537  0.3630  0.4933 -0.3021
   38MOL    H2921563   7.060   1.251   4.367  1.0359 -1.4526  0.7675
   38MOL    H3021564   6.696   1.076   5.221 -1.5327  1.0095 -0.8174
   38MOL    C3121565   6.810   1.424   4.475 -0.0982 -0.3609 -0.2222
   38MOL    C3221566   6.721   1.528   4.404 -0.3572 -0.1400 -0.2009
   38MOL    O3321567   6.774   1.650   4.433  0.1516 -0.1823  0.3533
   38MOL    C3421568   6.580   1.538   4.454 -0.2731  0.1697 -0.0147
   38MOL    O3521569   6.495   1.444   4.395  0.0289  0.3390  0.0579
   38MOL    C3621570   6.504   1.306   4.437 -0.1443  0.0613  1.1752
   38MOL    C3721571   6.387   1.227   4.379 -0.3678 -0.5412  0.2956
   38MOL    C3821572   6.359   1.102   4.459 -0.6491 -0.0960  0.2490
   38MOL    O3921573   6.268   1.011   4.395 -0.1887  0.3024  0.3633
   38MOL    C4021574   6.257   0.891   4.470 -0.3637  0.1652  0.7019
   38MOL    O4121575   6.366   0.807   4.468 -0.4523  0.6556 -0.5611
   38MOL    C4221576   6.132   0.830   4.417 -0.3256 -0.0008  0.1659
   38MOL    O4321577   6.025   0.882   4.494 -0.1763  0.3961  0.0126
   38MOL    H4421578   6.754   1.358   4.542 -1.7372 -0.9319 -2.1277
   38MOL    H4521579   6.883   1.470   4.542  0.0277  0.2236 -0.7604
   38MOL    H4621580   6.727   1.519   4.296  1.0438 -1.0331 -0.0578
   38MOL    H4721581   6.867   1.654   4.415  0.1901  1.2097  0.8076
   38MOL    H4821582   6.588   1.531   4.562 -1.0175  0.8601  0.0823
   38MOL    H4921583   6.523   1.628   4.431  0.7118  0.5008 -1.2381
   38MOL    H5021584   6.499   1.293   4.545 -0.9149  0.7940  1.2341
   38MOL    H5121585   6.601   1.271   4.402 -1.6031 -2.2794 -0.7152
   38MOL    H5221586   6.405   1.208   4.273 -1.0933  2.2795 -0.3908
   38MOL    H5321587   6.300   1.290   4.392  0.9529  1.1886  1.0295
   38MOL    H5421588   6.455   1.059   4.486  0.2205 -0.0949 -2.6328
   38MOL    H5521589   6.309   1.138   4.549  0.3483 -0.8288  1.0943
   38MOL    H5621590   6.232   0.917   4.573 -3.4613 -1.0609  0.3329
   38MOL    H5721591   6.358   0.764   4.384 -0.5443  0.2010 -0.3224
   38MOL    H5821592   6.114   0.851   4.311 -0.0161  1.2571  0.3569
   38MOL    H5921593   6.134   0.721   4.416 -0.3634  0.0017 -0.2164
   38MOL    C6021594   5.904   0.809   4.479  0.4261  0.4132 -0.0348
   38MOL    C6121595   5.819   0.847   4.601  0.8893 -0.6036  0.1349
   38MOL    O6221596   5.862   0.784   4.719 -0.1987  0.3331  0.2381
   38MOL    C6321597   5.676   0.812   4.581  0.2737 -0.1429  0.4377
   38MOL    O6421598   5.617   0.914   4.498 -0.0570  0.0801  0.3403
   38MOL    C6521599   5.478   0.895   4.481  0.5331 -0.4920 -1.1251
   38MOL    C6621600   5.434   0.967   4.361  0.0930 -0.3394  0.2277
   38MOL    C6721601   5.288   0.960   4.328 -0.7111 -0.1173  1.0130
   38MOL    O6821602   5.249   1.083   4.263  0.1386  0.0881  0.4063
   38MOL    C6921603   5.117   1.073   4.222  0.1436  0.0964 -0.2346
   38MOL    O7021604   5.029   1.073   4.331  0.3216 -0.1827 -0.2017
   38MOL    C7121605   5.089   1.204   4.144  0.5761 -0.1829  0.0157
   38MOL    O7221606   5.034   1.169   4.016  0.0043  0.0492 -0.8052
   38MOL    H7321607   5.913   0.702   4.465  2.3352  0.7484 -1.5662
   38MOL    H7421608   5.851   0.841   4.389  1.1935  0.3898 -0.4955
   38MOL    H7521609   5.826   0.955   4.614  0.7329 -0.3062 -2.0378
   38MOL    H7621610   5.884   0.695   4.697  1.5395  0.7260  0.2556
   38MOL    H7721611   5.662   0.711   4.541 -0.7405 -0.0929  0.6452
   38MOL    H7821612   5.622   0.810   4.676 -1.3307 -1.6003 -0.4677
   38MOL    H7921613   5.432   0.933   4.573  1.7598 -1.0055 -0.2932
   38MOL    H8021614   5.447   0.791   4.475 -2.1824  0.2300 -0.3099
   38MOL    H8121615   5.501   0.935   4.282 -1.3228 -2.6009 -0.1123
   38MOL    H8221616   5.460   1.069   4.388  0.1436 -0.4118  0.4589
   38MOL    H8321617   5.222   0.946   4.413 -1.0845  1.2543  0.9512
   38MOL    H8421618   5.264   0.878   4.260 -0.2913 -0.1138  0.8581
   38MOL    H8521619   5.109   0.984   4.159  1.5400 -1.3669  1.5746
   38MOL    H8621620   5.039   1.154   4.378 -1.3151 -0.0554 -0.0498
   38MOL    H8721621   5.038   1.284   4.200  3.2171  1.2753  0.4246
   38MOL    H8821622   5.184   1.251   4.117  0.7765  0.9680  2.5432
   38MOL    C8921623   4.901   1.126   4.019  0.0635  0.7080 -0.0484
   38MOL    C9021624   4.792   1.239   4.022 -0.0122 -0.2451 -0.0929
   38MOL    O9121625   4.794   1.307   3.896  0.3492  0.0899 -0.2473
   38MOL    C9221626   4.653   1.183   4.047  0.1954  1.0058 -0.2084
   38MOL    O9321627   4.631   1.156   4.185 -0.5306  0.3007  0.1835
   38MOL    C9421628   4.512   1.090   4.210  0.3122  0.1256  0.2600
   38MOL    C9521629   4.527   1.054   4.356  0.3155  0.5194 -0.0185
   38MOL    C9621630   4.630   0.952   4.389  0.0065 -0.2134 -0.2793
   38MOL    O9721631   4.590   0.828   4.332 -0.1279 -0.3830  0.0326
   38MOL    C9821632   4.700   0.739   4.310 -0.7934  0.0520  0.3381
   38MOL    O9921633   4.759   0.696   4.426  0.2708  0.3163 -0.6388
   38MOL   C10021634   4.636   0.622   4.234  0.4703  0.6106 -0.2313
   38MOL   O10121635   4.730   0.537   4.171  0.0332  0.4758  0.1579
   38MOL   H10221636   4.896   1.041   4.087 -0.9736  0.1241 -0.8315
   38MOL   H10321637   4.893   1.066   3.929  2.2947  0.7553 -0.2999
   38MOL   H10421638   4.815   1.305   4.105 -3.2879 -1.5583  1.9643
   38MOL   H10521639   4.861   1.374   3.895  2.0858 -1.5946 -3.1146
   38MOL   H10621640   4.577   1.257   4.022 -0.2862  0.7392  0.4371
   38MOL   H10721641   4.638   1.098   3.981 -0.9581  0.7177  0.4112
   38MOL   H10821642   4.497   0.997   4.155 -0.3834  0.6135 -0.3837
   38MOL   H10921643   4.431   1.160   4.189  0.4275  0.4926  1.0135
   38MOL   H11021644   4.430   1.012   4.381  0.6447 -0.0704  0.2911
   38MOL   H11121645   4.535   1.152   4.404 -2.4723  0.3803  0.8198
   38MOL   H11221646   4.724   0.984   4.344  0.8220  0.5260  1.8726
   38MOL   H11321647   4.642   0.957   4.497 -0.7928 -0.1813 -0.1907
   38MOL   H11421648   4.778   0.791   4.254  0.3919 -0.5232  1.4287
   38MOL   H11521649   4.708   0.621   4.453  1.5184  0.3592  2.0282
   38MOL   H11621650   4.575   0.564   4.305 -2.9702  3.4443 -0.7370
   38MOL   H11721651   4.565   0.660   4.161 -1.0448 -4.7669 -1.7873
   38MOL   C11821652   4.666   0.417   4.122 -0.3406  0.6606 -0.3794
   38MOL   C11921653   4.768   0.330   4.054  0.1988  0.3508  0.4209
   38MOL   O12021654   4.702   0.250   3.959  0.4107  0.3755  0.2519
   38MOL   C12121655   4.861   0.247   4.142  0.1071  0.2100  0.3321
   38MOL   O12221656   4.969   0.217   4.065  0.0750  0.4715  0.2793
   38MOL   C12321657   5.074   0.153   4.137 -0.4905  0.4361 -0.2238
   38MOL   C12421658   5.173   0.110   4.019 -0.3467 -0.0328 -0.4561
   38MOL   C12521659   5.314   0.098   4.073  0.8777  1.0423  0.1673
   38MOL   O12621660   5.324   7.681   4.170 -0.3821 -0.4437 -0.8192
   38MOL   C12721661   5.444   7.660   4.223  0.1799  0.3359 -0.3923
   38MOL   O12821662   5.539   7.604   4.132  0.4977  0.0939 -0.8970
   38MOL   C12921663   5.421   7.562   4.348 -0.3230  0.6931 -0.6234
   38MOL   O13021664   5.488   7.608   4.464 -0.6317  0.0227  0.3798
   38MOL   H13121665   4.630   0.354   4.204  1.0848 -0.7159 -0.7863
   38MOL   H13221666   4.578   0.448   4.065  0.0026  0.0620 -1.2521
   38MOL   H13321667   4.829   0.402   3.999  0.4638 -0.6508 -0.6385
   38MOL   H13421668   4.765   0.197   3.913  1.7343  1.1735  1.0964
   38MOL   H13521669   4.906   0.310   4.218  0.0865 -0.4688  0.9126
   38MOL   H13621670   4.823   0.164   4.203  1.2854  0.5566  1.5405
   38MOL   H13721671   5.030   0.073   4.195  0.5530  0.2034  0.2554
   38MOL   H13821672   5.135   0.214   4.203  0.6380 -0.6496 -0.2593
   38MOL   H13921673   5.180   0.192   3.948 -0.0952 -0.9023 -1.4500
   38MOL   H14021674   5.137   0.016   3.977  0.1340 -0.0576 -0.8167
   38MOL   H14121675   5.388   0.073   3.997  0.7501  1.7859 -0.2052
   38MOL   H14221676   5.348   0.191   4.118 -1.3020  1.5824  0.7474
   38MOL   H14321677   5.478   0.058   4.270  1.9602 -1.0335  1.1253
   38MOL   H14421678   5.610   7.569   4.184 -1.5643  0.5196  2.3557
   38MOL   H14521679   5.317   7.541   4.371  0.3236 -0.5314  1.4049
   38MOL   H14621680   5.458   7.461   4.331 -1.0388 -0.3466  3.3860
   38MOL   C14721681   5.615   7.559   4.498 -0.3002  0.5834 -0.3281
   38MOL   C14821682   5.745   7.612   4.428 -0.2491  0.1000  0.2303
   38MOL   O14921683   5.749   7.567   4.294  0.3652 -0.5395  0.7418
   38MOL   C15021684   5.880   7.575   4.497  0.0364 -0.9113  0.0339
   38MOL   O15121685   5.892   7.434   4.498 -0.5552  0.0117  0.4349
   38MOL   C15221686   6.021   7.390   4.532  0.1414 -0.3688 -0.5883
   38MOL   C15321687   6.033   7.238   4.520  0.7915 -0.7817  0.3728
   38MOL   C15421688   5.929   7.171   4.607 -0.2694  0.4290  0.2662
   38MOL   O15521689   5.947   7.026   4.603 -0.4188 -0.3821  0.0776
   38MOL   C15621690   5.842   6.950   4.658  0.2297  0.3246 -0.5332
   38MOL   O15721691   5.838   6.951   4.794 -0.0782 -0.0220  0.1298
   38MOL   C15821692   5.856   6.802   4.613 -0.2156 -0.1004  0.0470
   38MOL   O15921693   5.750   6.764   4.523  0.7887  0.3516 -0.2207
   38MOL   H16021694   5.620   7.451   4.511  2.8678  0.7152 -0.2396
   38MOL   H16121695   5.640   7.597   4.597 -0.5780 -1.7133  0.6747
   38MOL   H16221696   5.724   0.024   4.420 -0.3289 -0.0225 -1.4419
   38MOL   H16321697   5.789   7.481   4.298  0.1351 -0.7829 -1.3629
   38MOL   H16421698   5.972   7.612   4.451  0.2729  0.0732  1.2656
   38MOL   H16521699   5.881   7.613   4.599 -2.4003  0.8617 -0.5709
   38MOL   H16621700   6.051   7.431   4.629 -1.8709  0.5188 -0.3180
   38MOL   H16721701   6.102   7.420   4.466 -2.3080  0.2431 -3.4138
   38MOL   H16821702   6.138   7.209   4.532  1.2986  0.6313 -0.6130
   38MOL   H16921703   6.003   7.227   4.416  1.2945 -0.2441  0.1657
   38MOL   H17021704   5.930   7.200   4.711 -0.8086 -1.7519  0.9189
   38MOL   H17121705   5.831   7.200   4.567 -0.9658 -1.4410  0.5533
   38MOL   H17221706   5.747   6.995   4.628  1.0856  2.0745 -0.6399
   38MOL   H17321707   5.759   6.903   4.813  0.6925 -1.9122 -1.2854
   38MOL   H17421708   5.955   6.797   4.567 -0.7574  0.2155 -1.1915
   38MOL   H17521709   5.853   6.737   4.700  1.1037 -0.9686 -0.5406
   38MOL   C17621710   5.785   6.727   4.394  0.6851 -0.5839 -0.2828
   38MOL   C17721711   5.834   6.587   4.390  0.0587  0.0064  0.0270
   38MOL   O17821712   5.893   6.555   4.261  0.4393 -0.1129  1.0805
   38MOL   C17921713   5.733   6.482   4.415 -0.0319 -0.3777  0.0405
   38MOL   O18021714   5.788   6.360   4.427 -0.4730 -0.0086  0.5287
   38MOL   C18121715   5.691   6.263   4.442  0.4340 -0.1581  0.0714
   38MOL   C18221716   5.749   6.120   4.425  0.2006  0.4633 -0.1997
   38MOL   C18321717   5.638   6.023   4.462  0.2000 -0.5845 -0.3390
   38MOL   O18421718   5.684   5.892   4.435  0.8356  0.3331  0.0234
   38MOL   C18521719   5.620   5.787   4.506  0.0879 -0.4670  0.2912
   38MOL   O18621720   5.648   5.791   4.653  0.3919 -0.4339  0.5337
   38MOL   C18721721   5.665   5.654   4.455  0.1358 -0.4086  0.1098
   38MOL   O18821722   5.632   5.639   4.312  0.0595  0.2818 -0.4289
   38MOL   H18921723   5.859   6.800   4.361 -1.0890  0.6179 -1.7540
   38MOL   H19021724   5.695   6.744   4.335  1.1288  1.9714 -0.2780
   38MOL   H19121725   5.905   6.574   4.471 -0.3091 -1.5766  0.1083
   38MOL   H19221726   5.951   6.483   4.280  1.3844 -0.3122 -2.2402
   38MOL   H19321727   5.681   6.510   4.507 -0.6745 -1.7637  0.1159
   38MOL   H19421728   5.671   6.485   4.325 -1.1076 -1.2108  0.7395
   38MOL   H19521729   5.605   6.277   4.376  1.8655  1.6218 -1.4815
   38MOL   H19621730   5.652   6.273   4.543 -0.9735 -0.2594 -0.4556
   38MOL   H19721731   5.839   6.108   4.485  1.0573 -1.8366 -1.8675
   38MOL   H19821732   5.763   6.106   4.317 -1.5412 -1.0332 -0.2731
   38MOL   H19921733   5.601   6.028   4.565  1.0872 -0.5055 -0.0209
   38MOL   H20021734   5.545   6.037   4.407  0.1398  2.3082  0.3854
   38MOL   H20121735   5.511   5.788   4.497  0.0632 -0.3044  0.5780
   38MOL   H20221736   5.595   5.721   4.686  0.2547  0.2278  1.7465
   38MOL   H20321737   5.773   5.654   4.469  0.3910  2.8140 -1.4281
   38MOL   H20421738   5.628   5.572   4.516  2.4978 -0.6627  1.2542
   38MOL   C20521739   5.657   5.508   4.267  0.1975  0.1446 -0.1895
   38MOL   C20621740   5.802   5.481   4.241 -0.2985  0.2610 -0.2708
   38MOL   O20721741   5.806   5.338   4.202  0.4341 -0.2612  0.3130
   38MOL   C20821742   5.847   5.549   4.117  0.0559 -0.2647  0.6357
   38MOL   O20921743   5.789   5.490   3.998  0.7229 -0.1901 -0.0866
   38MOL   C21021744   5.815   5.581   3.889 -0.3268  0.5867 -0.6812
   38MOL   C21121745   5.692   5.588   3.801  0.2695 -0.0323  0.8527
   38MOL   C21221746   5.569   5.644   3.879 -0.2871 -0.5679  0.4249
   38MOL   O21321747   5.582   5.779   3.926 -0.5196 -0.7289  0.0582
   38MOL   C21421748   5.492   5.803   4.030 -0.2958  0.0243  0.3563
   38MOL   O21521749   5.357   5.824   3.982 -0.1921  0.3919 -0.3542
   38MOL   C21621750   5.536   5.928   4.105  0.6688 -0.6142  0.3993
   38MOL   O21721751   5.546   6.032   4.009  0.0505 -0.0243 -0.3317
   38MOL   H21821752   5.602   5.498   4.173  0.1842 -1.0184 -0.0645
   38MOL   H21921753   5.623   5.428   4.333  1.9906  0.5783  1.2933
   38MOL   H22021754   5.862   5.508   4.328 -2.7960 -0.6582  1.7755
   38MOL   H22121755   5.746   5.336   4.129 -3.5185  1.9490  3.2996
   38MOL   H22221756   5.800   5.646   4.128 -1.5917 -0.5927 -2.6707
   38MOL   H22321757   5.956   5.553   4.109 -0.1309  0.2843 -1.9561
   38MOL   H22421758   5.897   5.551   3.823 -0.2384  0.3093 -0.4461
   38MOL   H22521759   5.850   5.682   3.913 -1.2109  0.2738  2.1501
   38MOL   H22621760   5.662   5.487   3.771 -0.1962 -0.2748  2.1015
   38MOL   H22721761   5.703   5.654   3.715 -1.5183 -0.7001  0.0738
   38MOL   H22821762   5.485   5.653   3.809  1.4111 -0.1995 -1.6207
   38MOL   H22921763   5.548   5.574   3.960  0.6899  0.6345  1.7363
   38MOL   H23021764   5.490   5.727   4.109 -0.2721  0.8476  1.1512
   38MOL   H23121765   5.349   5.903   3.931 -0.0800 -0.0181 -1.0222
   38MOL   H23221766   5.459   5.959   4.176  0.2216 -0.2076 -0.2626
   38MOL   H23321767   5.634   5.904   4.146  1.4632  2.1755  0.2422
   38MOL   C23421768   5.584   6.160   4.063  0.1071  0.3521 -1.1038
   38MOL   C23521769   5.572   6.267   3.950 -0.3388  0.1460  0.1489
   38MOL   O23621770   5.674   6.248   3.858 -0.0055 -0.0761 -0.3140
   38MOL   C23721771   5.599   6.406   4.006 -0.9209 -0.3718 -0.4175
   38MOL   O23821772   5.587   6.517   3.917  0.3063 -0.6672 -0.2559
   38MOL   C23921773   5.577   6.633   3.983 -0.5553 -0.1782  0.2482
   38MOL   C24021774   5.432   6.682   3.982  0.1802 -0.3856  0.1179
   38MOL   C24121775   5.422   6.837   3.994 -0.5354  0.1940  0.0225
   38MOL   O24221776   5.291   6.867   4.036 -0.6729 -0.1330  0.1430
   38MOL   C24321777   5.197   6.911   3.944 -0.1218 -0.3048  0.7718
   38MOL   O24421778   5.220   7.036   3.897 -0.2125  0.8753  0.6056
   38MOL   C24521779   5.049   6.897   3.992 -0.0488 -0.1981  0.3924
   38MOL   O24621780   5.033   6.956   4.115 -1.0029  0.1678 -0.5591
   38MOL   H24721781   5.514   6.189   4.141  0.5148 -1.1703 -0.1457
   38MOL   H24821782   5.677   6.172   4.118 -0.1808  1.9706 -0.9648
   38MOL   H24921783   5.474   6.281   3.903 -1.1355  0.3940  1.8329
   38MOL   H25021784   5.687   6.333   3.819 -1.8192 -0.4979 -1.9474
   38MOL   H25121785   5.536   6.424   4.093  2.0177  1.4684  1.4271
   38MOL   H25221786   5.699   6.423   4.046 -0.8992  1.8286 -1.3259
   38MOL   H25321787   5.637   6.702   3.924  2.9044 -2.3958  1.0280
   38MOL   H25421788   5.636   6.639   4.075  3.4963 -1.9428 -2.1205
   38MOL   H25521789   5.377   6.628   4.060  1.9323 -2.4805 -0.0365
   38MOL   H25621790   5.382   6.645   3.893 -0.4193  2.9391 -0.9642
   38MOL   H25721791   5.490   6.877   4.069 -1.8581  0.8133  0.9116
   38MOL   H25821792   5.464   6.892   3.910  0.4474 -1.1948 -0.4229
   38MOL   H25921793   5.208   6.836   3.865 -2.6467 -0.2495  0.3010
   38MOL   H26021794   5.205   7.094   3.971  0.6000 -0.8767  2.1755
   38MOL   H26121795   4.983   6.944   3.920  0.7083 -0.3644 -0.4180
   38MOL   H26221796   5.030   6.789   3.994 -0.7219 -0.0894 -0.0254
   38MOL   C26321797   5.055   6.866   4.231  0.3073 -0.3144 -0.0768
   38MOL   C26421798   4.981   6.924   4.354  0.8393 -0.0279 -0.5152
   38MOL   O26521799   4.843   6.944   4.321 -0.0522 -0.0524 -0.0183
   38MOL   C26621800   4.991   6.831   4.475 -0.4172 -0.7619 -0.1141
   38MOL   O26721801   4.986   6.902   4.596 -0.2120 -0.5171 -0.1580
   38MOL   C26821802   4.991   6.815   4.713  0.0318 -0.2211  0.5354
   38MOL   C26921803   5.004   6.909   4.827  0.2798 -0.3718 -0.5417
   38MOL   C27021804   5.024   6.845   4.968  0.0487  0.3482 -0.1810
   38MOL   O27121805   5.051   6.941   5.065 -0.6390  0.5271  0.0093
   38MOL   C27221806   4.949   7.034   5.114 -0.0805  0.3901 -0.0389
   38MOL   O27321807   4.845   6.958   5.175  0.1653 -0.8276  0.3933
   38MOL   C27421808   5.020   7.140   5.205  0.3583  0.2382  0.2348
   38MOL   O27521809   4.941   7.256   5.198 -0.1739  0.3158  0.4105
   38MOL   H27621810   5.162   6.853   4.250  0.1758  2.4552  2.7532
   38MOL   H27721811   5.008   6.769   4.217 -2.0508  0.8164 -0.1858
   38MOL   H27821812   5.032   7.016   4.382  0.8635  0.3233 -1.6719
   38MOL   H27921813   4.808   6.858   4.300  0.2983 -0.2953  0.4028
   38MOL   H28021814   4.927   6.743   4.464  0.8859 -1.7467  0.1072
   38MOL   H28121815   5.091   6.789   4.479  0.4963  1.1222 -2.0292
   38MOL   H28221816   5.078   6.751   4.710  1.2718  1.4937 -1.1811
   38MOL   H28321817   4.908   6.745   4.720 -0.3098  0.2782  1.6322
   38MOL   H28421818   4.911   6.967   4.832  0.1226 -0.7264  0.7899
   38MOL   H28521819   5.088   6.977   4.810 -0.1037  0.4617  0.7597
   38MOL   H28621820   4.940   6.777   4.985 -0.7799  0.9358 -1.8411
   38MOL   H28721821   5.109   6.777   4.979 -0.2543  0.3996  2.9736
   38MOL   H28821822   4.907   7.084   5.027 -0.0491 -1.9090 -1.4091
   38MOL   H28921823   4.867   6.954   5.267 -0.3237  0.7804  0.5986
   38MOL   H29021824   5.019   7.096   5.305 -2.0437 -0.0998  0.0799
   38MOL   H29121825   5.113   7.176   5.160 -0.9110  2.1267 -0.9741
   38MOL   C29221826   4.981   7.350   5.299 -0.7919  0.4480  0.3708
   38MOL   C29321827   4.887   7.473   5.303 -0.3711  0.2439  0.0240
   38MOL   O29421828   4.774   7.461   5.379 -0.3658  0.0348 -0.0035
   38MOL   C29521829   4.954   7.605   5.345 -0.3900  0.3799 -0.1369
   38MOL   O29621830   4.998   7.583   5.479 -0.2526  0.3726 -0.2685
   38MOL   C29721831   5.055   0.006   5.541  0.1740  0.5006  0.1768
   38MOL   C29821832   5.039   0.013   5.699  0.0643 -0.1674 -0.4581
   38MOL   C29921833   5.125   7.611   5.778 -0.6344  0.3674  0.1289
   38MOL   O30021834   5.118   7.645   5.912  0.7517  0.3522 -0.1999
   38MOL   C30121835   5.038   7.551   5.980  0.0917 -0.3376 -0.1797
   38MOL   O30221836   5.090   7.421   5.985 -0.0496  0.3379  0.0215
   38MOL   C30321837   5.020   7.590   6.121  1.0829  0.6957 -0.2876
   38MOL   O30421838   4.938   0.013   6.139  0.8753  0.3526 -0.8280
   38MOL   H30521839   4.986   7.309   5.399  3.9880  2.1063  0.9409
   38MOL   H30621840   5.077   7.397   5.276 -1.5073  1.3732 -0.8602
   38MOL   H30721841   4.867   7.508   5.202  3.6593  2.8152  0.0437
   38MOL   H30821842   4.803   7.423   5.460 -0.2672 -0.1719 -0.1355
   38MOL   H30921843   5.037   7.624   5.277 -0.5022 -0.1338 -0.4165
   38MOL   H31021844   4.895   0.003   5.347 -3.0699 -1.3123  2.1478
   38MOL   H31121845   4.994   0.086   5.499 -0.6670 -0.9780 -1.4922
   38MOL   H31221846   5.157   0.023   5.509  0.0313 -2.9475 -2.4002
   38MOL   H31321847   4.933   0.001   5.720  0.3659  1.5728  2.3044
   38MOL   H31421848   5.065   0.112   5.737 -2.5449  0.7942 -1.0958
   38MOL   H31521849   5.075   7.516   5.757 -1.6647  1.0607 -0.5591
   38MOL   H31621850   5.228   7.607   5.741 -0.3940 -1.1788  0.9067
   38MOL   H31721851   4.945   7.544   5.924 -0.1399 -0.6612  0.2467
   38MOL   H31821852   5.162   7.423   6.047 -0.1604  1.3511  0.1182
   38MOL   H31921853   5.121   7.603   6.158  0.9371 -0.7573  0.6529
   38MOL   H32021854   4.980   7.505   6.175 -0.0338  1.0621 -0.5212
   38MOL   C32121855   5.000   0.139   6.104  0.1556  0.1042  0.3667
   38MOL   C32221856   4.896   0.253   6.109  0.2448  0.6777 -0.2727
   38MOL   O32321857   4.861   0.268   6.251  0.9989 -0.2030 -0.0170
   38MOL   C32421858   4.940   0.385   6.050 -0.1045  0.6909 -0.0166
   38MOL   O32521859   4.958   0.378   5.906  0.3991 -0.1847  0.1746
   38MOL   C32621860   4.836   0.406   5.848  0.2354  0.0131 -0.2924
   38MOL   C32721861   4.846   0.339   5.706 -0.2734 -0.0718 -0.0073
   38MOL   C32821862   4.719   0.347   5.621 -0.2774 -0.0697 -0.2278
   38MOL   O32921863   4.719   0.253   5.518 -0.4694 -0.0262 -0.0807
   38MOL   C33021864   4.596   0.242   5.452 -0.0028  0.2911 -0.2705
   38MOL   O33121865   4.567   0.357   5.377  0.1471 -0.0242 -0.0978
   38MOL   C33221866   4.620   0.130   5.344  0.2399  0.2746 -0.2390
   38MOL   O33321867   4.500   0.091   5.284  0.0658 -0.0014  0.0497
   38MOL   H33421868   5.048   0.146   6.006 -0.4235  1.3026  0.1638
   38MOL   H33521869   5.079   0.158   6.177  2.2394 -0.1633 -1.7381
   38MOL   H33621870   4.806   0.219   6.057 -1.6206 -1.0643  3.8709
   38MOL   H33721871   4.848   0.183   6.290  2.0150 -0.0689  0.6360
   38MOL   H33821872   5.030   0.413   6.104 -0.0560  0.2387  0.1459
   38MOL   H33921873   4.873   0.467   6.074 -2.2760 -1.2140  0.7212
   38MOL   H34021874   4.825   0.514   5.845 -2.1316 -0.1141  1.6301
   38MOL   H34121875   4.746   0.369   5.898  0.3245  1.5391  1.0257
   38MOL   H34221876   4.940   0.363   5.656  0.7415 -1.6855  1.0630
   38MOL   H34321877   4.863   0.235   5.735 -1.3596 -0.3187 -0.2383
   38MOL   H34421878   4.631   0.349   5.684  0.5683 -0.2269  0.9812
   38MOL   H34521879   4.720   0.443   5.570  1.3126  0.0419 -0.0345
   38MOL   H34621880   4.519   0.203   5.519  1.1437 -2.4545 -0.4741
   38MOL   H34721881   4.533   0.314   5.300  1.6666  0.1085 -0.8763
   38MOL   H34821882   4.689   0.172   5.271 -1.4076  1.5385 -1.1214
   38MOL   H34921883   4.667   0.039   5.381  1.1016  0.1209 -1.6629
   38MOL   C35021884   4.516   0.046   5.150 -0.5355 -0.3991  0.0092
   38MOL   C35121885   4.390   7.671   5.099  0.6435  0.7204  0.5107
   38MOL   O35221886   4.313   0.076   5.035 -0.2501 -0.2998  0.0651
   38MOL   C35321887   4.418   7.571   4.979  0.0444  0.2964 -0.6086
   38MOL   O35421888   4.297   7.511   4.936  0.1470  0.3082  0.5956
   38MOL   C35521889   4.318   7.429   4.823  0.6991 -0.3095 -0.6843
   38MOL   C35621890   4.259   7.495   4.699 -0.1126 -0.5371 -0.2285
   38MOL   C35721891   4.325   7.633   4.654  0.3874  0.0144  0.3283
   38MOL   O35821892   4.240   7.689   4.553 -0.3981  0.3068 -0.0391
   38MOL   C35921893   4.260   0.126   4.512 -0.6011  0.5884 -0.0516
   38MOL   O36021894   4.356   0.134   4.411 -0.8163 -0.2232  0.0634
   38MOL   C36121895   4.125   0.169   4.447 -0.1279 -0.8069 -0.0265
   38MOL   O36221896   4.117   0.100   4.322 -0.3617  0.5053  0.4058
   38MOL   H36321897   4.591   7.661   5.160 -0.5405 -0.5259 -0.9909
   38MOL   H36421898   4.559   0.120   5.083  1.7532 -1.5494  0.1341
   38MOL   H36521899   4.317   7.632   5.170  2.5638 -0.1261  2.0782
   38MOL   H36621900   4.248   0.032   4.982  0.5346  0.2374 -1.3689
   38MOL   H36721901   4.475   7.611   4.894  0.9012  1.4218  0.4642
   38MOL   H36821902   4.479   7.488   5.015 -2.2640 -0.3899  1.8553
   38MOL   H36921903   4.277   7.331   4.846  2.2177 -1.0001 -0.8449
   38MOL   H37021904   4.421   7.402   4.799  0.3845 -2.1407 -0.0825
   38MOL   H37121905   4.155   7.514   4.727  0.7385  0.6430  2.2744
   38MOL   H37221906   4.267   7.430   4.612  0.0268  0.9428 -1.3386
   38MOL   H37321907   4.338   0.005   4.740  1.2478  1.6736 -1.0621
   38MOL   H37421908   4.424   7.609   4.616  0.7459 -0.3351  1.4613
   38MOL   H37521909   4.277   0.194   4.595  1.6452  1.8195 -1.4720
   38MOL   H37621910   4.314   0.112   4.330 -0.1659 -3.3410  0.5304
   38MOL   H37721911   4.054   0.137   4.524  2.2070  3.5655  4.2521
   38MOL   H37821912   4.120   0.278   4.440 -2.0170 -0.9484 -1.1374
   38MOL   C37921913   4.001   0.117   4.243  0.5233  0.4135  0.5922
   38MOL   C38021914   3.880   0.045   4.306  0.0337 -0.4657 -0.0875
   38MOL   O38121915   3.761   0.101   4.261  0.2464  0.9764  0.0341
   38MOL   C38221916   3.884   7.583   4.283 -0.6107  0.4109 -0.6314
   38MOL   O38321917   3.792   7.518   4.380 -0.5204 -0.1004 -0.1663
   38MOL   C38421918   3.858   7.482   4.499 -0.0171  0.3483 -0.5016
   38MOL   C38521919   3.808   7.343   4.533 -0.5440  0.4961 -0.1268
   38MOL   C38621920   3.872   7.285   4.661  0.2420  0.0499  0.1466
   38MOL   O38721921   3.816   7.157   4.677 -0.3533  0.0551 -0.1965
   38MOL   C38821922   3.887   7.072   4.752 -0.5761 -1.2407  0.1103
   38MOL   O38921923   3.910   7.113   4.882  0.6397 -0.0063  0.2376
   38MOL   C39021924   3.806   6.939   4.754 -0.0705  0.2693  0.0260
   38MOL   O39121925   3.676   6.964   4.804  0.2994 -0.4585 -0.3194
   38MOL   H39221926   4.018   0.066   4.148  1.3900 -1.9070  1.9472
   38MOL   H39321927   3.964   0.218   4.228 -0.4757  0.0819  0.8227
   38MOL   H39421928   3.879   0.058   4.414 -0.8168  0.9647 -0.2554
   38MOL   H39521929   3.689   0.041   4.276  1.7116 -0.8482 -0.0923
   38MOL   H39621930   3.852   7.564   4.181 -0.3278 -0.0405 -0.6377
   38MOL   H39721931   3.985   7.543   4.284 -1.1948 -1.0883 -0.0460
   38MOL   H39821932   3.815   7.544   4.577 -2.9115 -2.1945  0.0504
   38MOL   H39921933   3.967   7.490   4.498 -0.1024  1.6480  0.0212
   38MOL   H40021934   3.831   7.278   4.448  1.3138 -0.3933  1.0173
   38MOL   H40121935   3.699   7.350   4.532 -0.5857 -0.0200 -1.1763
   38MOL   H40221936   3.978   7.264   4.648  0.8453  3.1124 -0.1946
   38MOL   H40321937   3.866   7.345   4.752  0.3769  0.7289 -0.2860
   38MOL   H40421938   3.983   7.054   4.702 -0.4865  1.9323 -0.9709
   38MOL   H40521939   3.823   7.116   4.920 -0.3001 -0.2017 -1.8136
   38MOL   H40621940   3.800   6.909   4.650 -0.7657 -1.5071  0.5692
   38MOL   H40721941   3.857   6.856   4.802  1.0074  1.8330  1.6595
   38MOL   C40821942   3.656   6.957   4.943 -0.3649  0.0738 -0.3204
   38MOL   C40921943   3.573   7.079   4.965 -0.1231 -0.3812 -0.7187
   38MOL   O41021944   3.666   7.186   4.983 -0.2734  0.2169 -0.4309
   38MOL   C41121945   3.501   7.069   5.100  0.5976 -0.1828  0.2852
   38MOL   O41221946   3.411   7.177   5.117  0.3164 -0.4375  0.5200
   38MOL   C41321947   3.343   7.177   5.243 -0.2717  0.1492  0.8401
   38MOL   C41421948   3.217   7.266   5.237  0.2688  0.0401 -0.1862
   38MOL   C41521949   3.128   7.269   5.364  0.0156 -0.1652 -0.4724
   38MOL   O41621950   3.028   7.174   5.341 -0.0100  0.2363 -0.4860
   38MOL   C41721951   2.915   7.194   5.418  0.4109 -0.4422 -0.6219
   38MOL   O41821952   2.938   7.178   5.548  0.4860  0.0811  0.5441
   38MOL   C41921953   2.808   7.095   5.381 -0.9431  0.1542  0.1868
   38MOL   O42021954   2.858   6.961   5.386 -0.4347  0.1768  0.4319
   38MOL   H42121955   3.745   6.958   5.007 -0.2848 -3.3974 -0.3017
   38MOL   H42221956   3.606   6.865   4.973 -1.6922  1.1750  0.9755
   38MOL   H42321957   3.504   7.106   4.885  0.6527  3.4168 -0.1785
   38MOL   H42421958   3.618   7.261   4.950  0.6187  1.1741  0.4369
   38MOL   H42521959   3.439   6.979   5.100  1.9301 -1.1216  1.1636
   38MOL   H42621960   3.571   7.062   5.184  0.6946 -0.4768  0.1810
   38MOL   H42721961   3.314   7.082   5.287 -1.6514  1.1451  2.1333
   38MOL   H42821962   3.414   7.220   5.314 -1.2370  0.7443  1.4472
   38MOL   H42921963   3.155   7.240   5.151 -1.0698 -1.0614  1.0773
   38MOL   H43021964   3.255   7.367   5.220  2.2343 -0.6688 -0.1955
   38MOL   H43121965   3.183   7.235   5.452  1.2996  0.9272 -0.8362
   38MOL   H43221966   3.088   7.368   5.387  2.2029  0.4435  0.8870
   38MOL   H43321967   2.879   7.296   5.402  0.1585 -0.1486  1.7557
   38MOL   H43421968   2.930   7.085   5.564  4.1196 -0.5505 -0.7103
   38MOL   H43521969   2.726   7.097   5.452 -0.5353 -0.0550  0.6687
   38MOL   H43621970   2.778   7.116   5.279  1.1491  1.4849 -0.1940
   38MOL   C43721971   2.756   6.865   5.347 -0.0334  0.0909  1.2239
   38MOL   C43821972   2.767   6.733   5.422  0.0199  0.2589 -0.3886
   38MOL   O43921973   2.726   6.749   5.556  0.2296 -0.2698 -0.0398
   38MOL   C44021974   2.912   6.688   5.432  0.2538 -0.0216  0.0101
   38MOL   O44121975   2.908   6.570   5.509 -0.2863 -0.3089 -0.2627
   38MOL   C44221976   3.003   6.472   5.483  0.3932  0.0838  0.1804
   38MOL   C44321977   2.958   6.397   5.350 -0.7237 -0.3079  0.2723
   38MOL   C44421978   2.810   6.361   5.344 -0.4088 -0.3120  0.0180
   38MOL   O44521979   2.778   6.288   5.222  0.4162  0.2181  0.0629
   38MOL   C44621980   2.647   6.248   5.207  0.5360  0.0237 -0.1990
   38MOL   O44721981   2.618   6.136   5.288 -0.3795 -0.4044  0.1116
   38MOL   C44821982   2.611   6.223   5.062  0.1106  0.2131 -0.3792
   38MOL   O44921983   2.558   6.344   5.004  0.4077 -0.3606  0.4073
   38MOL   H45021984   2.655   6.906   5.349  1.0159  2.9157 -0.9314
   38MOL   H45121985   2.771   6.844   5.241  1.2030 -1.6148  1.7186
   38MOL   H45221986   2.709   6.657   5.369  2.7425 -2.4464  0.3547
   38MOL   H45321987   2.790   6.701   5.606  1.2325  1.7349  0.6660
   38MOL   H45421988   2.960   6.678   5.335  2.8502 -1.3770  1.3699
   38MOL   H45521989   2.979   6.750   5.492 -0.9538  0.0494  1.3185
   38MOL   H45621990   2.999   6.401   5.567  0.1538  1.5412  1.4190
   38MOL   H45721991   3.106   6.506   5.474  0.1410  0.6730 -0.4834
   38MOL   H45821992   3.023   6.309   5.347  1.1102  1.0339 -0.3819
   38MOL   H45921993   2.994   6.449   5.262 -1.1818 -1.7643 -0.7930
   38MOL   H46021994   2.784   6.304   5.433 -0.2576 -0.6154 -0.1303
   38MOL   H46121995   2.738   6.442   5.342 -1.0987 -0.9321 -1.0730
   38MOL   H46221996   2.584   6.329   5.244  0.8239 -0.6911  1.8981
   38MOL   H46321997   2.629   6.056   5.239  1.2572  0.1085 -0.4018
   38MOL   H46421998   2.695   6.168   5.017  1.0177  1.5907 -0.3906
   38MOL   H46521999   2.528   6.153   5.065  2.4823 -2.7454 -1.0857
   38MOL   C46622000   2.486   6.322   4.882 -0.2049 -0.0760 -0.0289
   38MOL   C46722001   2.460   6.471   4.836  0.6739 -0.3774  0.6583
   38MOL   O46822002   2.532   6.491   4.716  0.4846 -0.0016  0.3410
   38MOL   C46922003   2.312   6.497   4.803 -0.2804 -0.5213 -0.6534
   38MOL   O47022004   2.295   6.635   4.763  0.1332 -0.4580  0.1364
   38MOL   C47122005   2.157   6.669   4.741 -0.1371 -0.5925  0.2856
   38MOL   C47222006   2.077   6.662   4.878 -1.1714 -0.4679  0.1411
   38MOL   C47322007   1.925   6.690   4.858 -0.1287 -0.6047 -0.0798
   38MOL   O47422008   1.839   6.692   4.973 -0.4367  0.6436  0.3055
   38MOL   C47522009   1.808   6.567   5.014  0.6274 -0.5489 -0.5939
   38MOL   O47622010   1.684   6.526   4.959  0.2822  0.2076  0.4044
   38MOL   C47722011   1.800   6.557   5.168 -0.5177  0.0138  0.1066
   38MOL   O47822012   1.923   6.504   5.221 -0.3513  0.1155  0.6251
   38MOL   H47922013   2.401   6.257   4.902  2.2136 -3.0840  0.6947
   38MOL   H48022014   2.560   6.259   4.834  1.0260 -1.3250  3.3738
   38MOL   H48122015   2.505   6.546   4.901 -0.0666  2.5938 -2.1072
   38MOL   H48222016   2.521   6.582   4.692  0.5405  0.1280  0.7912
   38MOL   H48322017   2.269   6.431   4.729 -0.4194 -0.0766 -0.9677
   38MOL   H48422018   2.265   6.482   4.900 -0.1195 -1.5200 -0.7196
   38MOL   H48522019   2.106   6.606   4.668 -1.5010 -1.0389  1.6070
   38MOL   H48622020   2.153   6.775   4.716 -0.7346 -0.8406 -0.6626
   38MOL   H48722021   2.114   6.731   4.954  1.5572  0.3270 -1.8526
   38MOL   H48822022   2.095   6.568   4.931  2.2302  0.4678  0.7822
   38MOL   H48922023   1.920   6.784   4.804 -0.8978  0.2487  1.4387
   38MOL   H49022024   1.889   6.632   4.773  1.5764 -0.1325 -1.1556
   38MOL   H49122025   1.882   6.492   4.986 -0.6915 -1.6645 -1.1369
   38MOL   H49222026   1.640   6.592   4.908 -0.6445  1.0846  2.2821
   38MOL   H49322027   1.779   6.660   5.195  0.6999  0.6824 -1.3826
   38MOL   H49422028   1.713   6.500   5.198 -1.5332  0.8686 -1.1431
   38MOL   C49522029   2.021   6.603   5.262 -0.4583  0.2054  0.1078
   38MOL   C49622030   2.161   6.533   5.287  0.1462  0.5884 -0.3470
   38MOL   O49722031   2.199   6.458   5.169 -0.1907 -0.1925  0.0374
   38MOL   C49822032   2.287   6.630   5.304 -0.0173  0.4347  0.3726
   38MOL   O49922033   2.267   6.718   5.407  0.2370 -0.4132  0.2818
   38MOL   C50022034   2.381   6.795   5.439  0.0020 -0.2517 -0.2784
   38MOL   C50122035   2.350   6.920   5.530  0.0829 -0.4469 -0.1769
   38MOL   C50222036   2.464   7.028   5.527  0.0218 -0.1582 -0.5142
   38MOL   O50322037   2.430   7.141   5.601  0.3041 -0.8354 -0.6040
   38MOL   C50422038   2.515   7.252   5.609  0.0475  0.5803  0.3008
   38MOL   O50522039   2.626   7.225   5.682 -0.5565 -0.2882 -0.4942
   38MOL   C50622040   2.430   7.369   5.678 -0.0769 -0.7100 -0.4466
   38MOL   O50722041   2.414   7.342   5.814  0.1415  0.5060 -0.5717
   38MOL   H50822042   1.994   6.658   5.353  0.5445 -2.8397  2.3409
   38MOL   H50922043   2.043   6.677   5.185 -0.4562  0.0312 -0.0564
   38MOL   H51022044   2.156   6.456   5.364 -0.6718 -0.7009 -1.6755
   38MOL   H51122045   2.122   6.427   5.125  1.8754 -0.0778 -3.8247
   38MOL   H51222046   2.382   6.577   5.319 -0.4235 -0.7232 -1.0419
   38MOL   H51322047   2.303   6.698   5.220 -0.1725  1.5760  1.2539
   38MOL   H51422048   2.420   6.823   5.341  0.3683  0.5754  0.1017
   38MOL   H51522049   2.450   6.723   5.484 -0.2823 -0.1782  0.2820
   38MOL   H51622050   2.332   6.887   5.632 -2.1683  1.5431  0.1230
   38MOL   H51722051   2.257   6.966   5.496 -0.1009  0.1251  1.1055
   38MOL   H51822052   2.552   6.977   5.568 -0.8428  0.3953  2.1099
   38MOL   H51922053   2.485   7.062   5.425 -0.2452  1.7492  0.0450
   38MOL   H52022054   2.542   7.279   5.507  0.4892 -2.3020 -0.3746
   38MOL   H52122055   2.618   7.259   5.769  0.2682 -1.2498 -0.0261
   38MOL   H52222056   2.475   7.468   5.671 -4.5772  1.3788 -1.8255
   38MOL   H52322057   2.338   7.367   5.621 -0.8533 -1.6820  0.8179
   38MOL   C52422058   2.325   7.234   5.853  0.7494  0.3838 -0.1130
   38MOL   C52522059   2.275   7.252   5.999  0.1917  0.1982 -0.0046
   38MOL   O52622060   2.229   7.138   6.062 -0.2209 -0.2937 -0.2656
   38MOL   C52722061   2.169   7.370   5.997 -0.1183  0.2831  0.5176
   38MOL   O52822062   2.157   7.440   6.121 -0.0622 -0.1843 -0.9822
   38MOL   C52922063   2.123   7.356   6.232  0.5527 -0.0969 -0.0058
   38MOL   C53022064   2.063   7.430   6.347 -0.0937  0.7810 -0.7465
   38MOL   C53122065   2.033   7.341   6.470  0.5375 -0.0493  0.4256
   38MOL   O53222066   1.974   7.413   6.573 -0.1689 -0.1355  0.3997
   38MOL   C53322067   1.935   7.344   6.685  0.0135  0.2462 -0.3153
   38MOL   O53422068   2.044   7.325   6.771  0.0330  0.1097 -0.0066
   38MOL   C53522069   1.824   7.421   6.754 -0.5282  0.6469 -0.9417
   38MOL   O53622070   1.859   7.548   6.791  0.3544 -0.1044  0.0569
   38MOL   H53722071   2.379   7.139   5.846 -0.4870 -0.3729  0.5389
   38MOL   H53822072   2.238   7.234   5.788  0.2482 -2.7538  0.4809
   38MOL   H53922073   2.370   7.272   6.049 -0.4648 -1.5765  1.9837
   38MOL   H54022074   2.158   7.112   6.006 -0.3320  2.7840 -1.6190
   38MOL   H54122075   2.194   7.445   5.923  0.6004 -0.7107 -0.2593
   38MOL   H54222076   2.074   7.324   5.968  0.5549 -1.0853  0.4515
   38MOL   H54322077   2.215   7.303   6.259  0.4909 -0.0443  0.3114
   38MOL   H54422078   2.061   7.276   6.192  1.1421 -0.6316  0.1417
   38MOL   H54522079   1.972   7.470   6.304 -1.5273  1.0835  2.3777
   38MOL   H54622080   2.134   7.508   6.378  2.2634 -2.2613  1.9205
   38MOL   H54722081   1.983   7.247   6.447  0.7698  0.3960 -2.0530
   38MOL   H54822082   2.126   7.299   6.509  0.5365 -0.5791 -0.1264
   38MOL   H54922083   1.901   7.246   6.650 -1.0350  0.2130  0.7418
   38MOL   H55022084   2.039   7.399   6.829 -2.0691  0.9786 -1.2215
   38MOL   H55122085   1.746   7.429   6.679 -0.9257  1.3206 -0.4726
   38MOL   H55222086   1.790   7.368   6.843  1.8836 -2.1584 -1.6498
   38MOL   C55322087   1.740   7.625   6.825 -0.1810 -0.0802  0.0349
   38MOL   C55422088   1.682   7.595   6.960  0.0081 -0.4294 -0.3872
   38MOL   O55522089   1.586   7.495   6.940  0.1040 -0.0485 -0.2626
   38MOL   C55622090   1.595   0.015   7.023 -0.4503  0.3517  0.4542
   38MOL   O55722091   1.570   7.671   7.162 -0.2356 -0.2424 -0.1141
   38MOL   C55822092   1.512   0.082   7.241  0.3889  0.1315 -0.5274
   38MOL   C55922093   1.503   0.030   7.382 -0.4289  0.0864 -0.6471
   38MOL   C56022094   1.426   0.131   7.472  0.3647 -0.1175 -0.5227
   38MOL   O56122095   1.303   0.166   7.403 -0.0948 -0.5065  0.1372
   38MOL   C56222096   1.244   0.292   7.432 -0.7044 -0.1182 -0.6784
   38MOL   O56322097   1.319   0.393   7.360  0.0071 -0.0376 -0.4639
   38MOL   C56422098   1.101   0.296   7.381  0.6601 -0.1985 -0.7297
   38MOL   O56522099   1.086   0.328   7.245  0.2423  0.5408  0.1931
   38MOL   H56622100   1.663   7.611   6.749 -0.1625  2.2727 -0.4537
   38MOL   H56722101   1.771   0.034   6.808 -1.1944  0.2978  0.4261
   38MOL   H56822102   1.768   7.568   7.021 -0.3738 -0.7747 -0.0045
   38MOL   H56922103   1.551   7.468   7.023  0.3376  0.5429  0.0307
   38MOL   H57022104   1.640   0.114   7.031 -0.3867  0.2321  1.7148
   38MOL   H57122105   1.499   0.020   6.973  0.6689 -1.2464 -1.9844
   38MOL   H57222106   1.578   0.169   7.240 -1.6611  1.7135 -2.0178
   38MOL   H57322107   1.419   0.121   7.199  0.3567 -0.2474 -0.8125
   38MOL   H57422108   1.606   0.016   7.415 -1.0288  1.0176  1.7073
   38MOL   H57522109   1.453   7.627   7.386 -0.7769  0.3344  1.4142
   38MOL   H57622110   1.398   0.081   7.564 -1.7259 -1.4493 -1.8310
   38MOL   H57722111   1.487   0.215   7.505  0.5945 -0.5225  0.0782
   38MOL   H57822112   1.247   0.323   7.536 -1.1775 -1.2666 -0.3175
   38MOL   H57922113   1.304   0.372   7.269  0.8868 -4.1817  0.2829
   38MOL   H58022114   1.064   0.195   7.394 -0.3639  0.5337  2.5527
   38MOL   H58122115   1.046   0.365   7.445  2.5911 -0.6239  1.4857
   38MOL   H58222116   1.033   0.258   7.212  2.7294 -0.6700 -1.4134
   39MOL     C122117   2.762   7.421   0.570 -0.5338 -0.2799  0.0504
   39MOL     C222118   2.741   7.393   0.418 -0.0741 -0.0075  0.1156
   39MOL     O322119   2.730   7.523   0.365  0.2045  0.3167  0.4536
   39MOL     C422120   2.865   7.332   0.349 -0.0546 -0.7023  0.0192
   39MOL     O522121   2.986   7.402   0.384  0.7003 -0.0899  0.3661
   39MOL     C622122   3.099   7.324   0.344 -0.1458  0.9039 -0.5852
   39MOL     C722123   3.220   7.391   0.417 -0.1357  0.0396 -0.3315
   39MOL     C822124   3.201   7.437   0.555 -0.3169 -0.2254 -0.4714
   39MOL     O922125   3.332   7.465   0.616  0.6105  0.0677  0.6689
   39MOL    C1022126   3.360   7.594   0.650 -0.4643  0.2801 -0.5142
   39MOL    O1122127   3.274   7.651   0.749  0.1414 -0.4781  0.2213
   39MOL    C1222128   3.368   7.687   0.521  0.1242 -0.2700  0.5581
   39MOL    O1322129   3.397   0.133   0.545  0.0603  0.2160 -0.4424
   39MOL    H1422130   2.673   7.478   0.597  0.5306  1.4894 -0.0983
   39MOL    H1522131   2.847   7.479   0.608  0.2696 -1.1416 -0.4044
   39MOL    H1622132   2.653   7.328   0.418  0.2793 -0.4933 -0.7549
   39MOL    H1722133   2.821   7.548   0.371  0.7994 -0.6322 -3.7143
   39MOL    H1822134   2.874   7.230   0.386 -0.5643 -1.0718 -0.8631
   39MOL    H1922135   2.858   7.331   0.241  1.9497  0.5049 -0.1436
   39MOL    H2022136   3.109   7.317   0.236  1.3120 -0.5574 -0.3755
   39MOL    H2122137   3.095   7.223   0.386 -0.3003  0.9520 -0.4822
   39MOL    H2222138   3.254   7.480   0.363  0.7774 -0.5928 -0.8245
   39MOL    H2322139   3.307   7.325   0.416 -0.1042  0.0739  0.0961
   39MOL    H2422140   3.144   7.530   0.556 -0.6377 -0.4119  1.4430
   39MOL    H2522141   3.161   7.357   0.618 -0.9318 -0.5047 -1.2075
   39MOL    H2622142   3.461   7.581   0.688 -0.4219 -0.7994 -0.9879
   39MOL    H2722143   3.323   7.647   0.830  1.1571  1.3595 -0.2760
   39MOL    H2822144   3.451   7.645   0.465  1.0954  2.2439  0.0716
   39MOL    H2922145   3.275   7.673   0.466 -0.4244  1.3618  1.0578
   39MOL    H3022146   2.750   7.328   0.624  1.0131 -2.0729 -2.5588
   39MOL    C3122147   3.384   0.213   0.428  0.4650  0.0783 -0.6572
   39MOL    C3222148   3.443   0.353   0.435  0.3137 -0.3485  0.3368
   39MOL    O3322149   3.346   0.440   0.488  0.1615  0.1936 -0.1614
   39MOL    C3422150   3.496   0.408   0.299  0.2448 -0.0893 -0.2684
   39MOL    O3522151   3.418   0.371   0.190 -0.4090 -0.1683 -0.0626
   39MOL    C3622152   3.303   0.454   0.175 -0.4070  0.6014  0.8517
   39MOL    C3722153   3.228   0.405   0.052 -0.7263 -0.0352 -0.3861
   39MOL    C3822154   3.112   0.495   0.019  0.2606 -0.2025  0.5384
   39MOL    O3922155   3.050   0.444   7.598 -0.1497 -0.8174  0.5210
   39MOL    C4022156   2.958   0.525   7.538  0.1263  0.6750 -0.1364
   39MOL    O4122157   2.844   0.538   7.621 -0.4618  0.0374 -0.4491
   39MOL    C4222158   2.920   0.453   7.407  0.6023  0.0527  0.2422
   39MOL    O4322159   2.871   0.323   7.432 -0.1792  0.0574 -0.8288
   39MOL    H4422160   3.446   0.165   0.353  0.5432 -1.1451  0.1656
   39MOL    H4522161   3.282   0.210   0.389  0.6347 -1.6874 -0.9692
   39MOL    H4622162   3.520   0.353   0.512  0.2132 -2.0744  0.4442
   39MOL    H4722163   3.281   0.390   0.534  1.1590  0.4096  1.5374
   39MOL    H4822164   3.511   0.516   0.301  1.4848 -0.1800 -2.7334
   39MOL    H4922165   3.596   0.370   0.279  1.2937  2.4171 -0.0207
   39MOL    H5022166   3.332   0.556   0.147 -0.5005  0.3340 -0.2380
   39MOL    H5122167   3.238   0.454   0.262 -1.0221  1.1310  0.3913
   39MOL    H5222168   3.181   0.308   0.072  0.6599 -0.9182 -1.3426
   39MOL    H5322169   3.288   0.390   7.656 -2.8324 -1.5463 -1.6040
   39MOL    H5422170   3.032   0.489   0.093 -0.6755  2.2302 -0.1956
   39MOL    H5522171   3.155   0.595   0.020  1.9708 -0.9070 -0.8120
   39MOL    H5622172   3.002   0.624   7.525  0.4275  0.6183  0.4285
   39MOL    H5722173   2.802   0.453   7.626 -0.8520  0.1440 -1.8710
   39MOL    H5822174   2.835   0.501   7.359  0.4040 -2.5512 -2.1799
   39MOL    H5922175   3.001   0.448   7.335  0.1152  0.4680 -0.3316
   39MOL    C6022176   2.870   0.237   7.326  0.2249  0.9210 -0.1693
   39MOL    C6122177   2.784   0.113   7.362 -0.4007  0.3144  0.0278
   39MOL    O6222178   2.651   0.162   7.352  0.2164  0.0447 -0.0217
   39MOL    C6322179   2.811   0.066   7.512 -0.4227  0.0313 -0.2940
   39MOL    O6422180   2.781   7.622   7.518 -0.1245  0.4572 -0.3238
   39MOL    C6522181   2.813   7.555   7.638 -0.0648 -0.2179  0.1320
   39MOL    C6622182   2.728   7.429   7.657 -0.1488  0.1297 -0.8282
   39MOL    C6722183   2.583   7.452   7.617  0.0372  0.3573  0.1605
   39MOL    O6822184   2.486   7.374   7.685 -0.4254  0.0208  0.4027
   39MOL    C6922185   2.362   7.415   7.655  0.2769  0.1269  0.3256
   39MOL    O7022186   2.331   7.381   7.523  0.1705  0.2894  0.2170
   39MOL    C7122187   2.267   7.337   0.045  0.6012  0.2878 -0.2236
   39MOL    O7222188   2.275   7.350   0.184 -0.0509 -0.3185  0.0719
   39MOL    H7322189   2.973   0.215   7.298  0.0342 -0.1936 -0.0364
   39MOL    H7422190   2.822   0.290   7.244  0.4307 -0.8123 -1.4349
   39MOL    H7522191   2.806   0.034   7.289  3.0885  0.8900  0.3663
   39MOL    H7622192   2.646   0.242   7.403  2.4543 -0.2644  0.7491
   39MOL    H7722193   2.919   0.076   7.515 -0.2854 -1.2774 -0.7507
   39MOL    H7822194   2.759   0.127   7.586 -3.1179  0.9936 -2.8718
   39MOL    H7922195   2.795   7.629   0.022 -0.9449  1.7498 -1.9006
   39MOL    H8022196   2.921   7.542   7.632  0.0706  0.9047  0.0680
   39MOL    H8122197   2.727   7.385   0.062 -3.8071  1.1129 -0.3431
   39MOL    H8222198   2.775   7.349   7.600  1.2705  0.1555  0.2885
   39MOL    H8322199   2.575   7.430   7.510  1.3836  1.3049 -0.1428
   39MOL    H8422200   2.564   7.558   7.633 -1.6623  0.0281  0.4050
   39MOL    H8522201   2.344   7.520   7.680  1.3434  0.7397 -1.3957
   39MOL    H8622202   2.250   7.425   7.499  0.3501  1.3132  1.4255
   39MOL    H8722203   2.165   7.364   0.019  0.3841 -1.5720 -1.3979
   39MOL    H8822204   2.268   7.231   0.019  0.2939  0.3220 -0.3733
   39MOL    C8922205   2.188   7.267   0.259 -0.2475 -0.0510 -0.3903
   39MOL    C9022206   2.217   7.299   0.405 -0.3890 -0.5040  0.0036
   39MOL    O9122207   2.130   7.402   0.451 -0.0872  0.5795 -0.4459
   39MOL    C9222208   2.209   7.175   0.490 -0.6464  0.4006  0.0357
   39MOL    O9322209   2.256   7.206   0.617  0.0918 -0.0480  0.5543
   39MOL    C9422210   2.304   7.093   0.684 -0.4704 -0.3400  0.8860
   39MOL    C9522211   2.319   7.138   0.826 -0.3854  0.3116 -0.5922
   39MOL    C9622212   2.388   7.275   0.842  0.4670 -0.1281  0.0501
   39MOL    O9722213   2.432   7.282   0.976  0.2852  0.9470  0.1269
   39MOL    C9822214   2.479   7.401   1.027  0.2333 -0.1166 -0.4146
   39MOL    O9922215   2.371   7.501   1.043  0.3152  0.0328  0.3222
   39MOL   C10022216   2.543   7.379   1.158  0.3986  0.0514  0.6874
   39MOL   O10122217   2.674   7.329   1.138 -0.2635  0.4824  0.3187
   39MOL   H10222218   2.202   7.163   0.231 -0.0380 -0.4188  1.0540
   39MOL   H10322219   2.087   7.296   0.229 -0.6742 -2.6972 -1.6148
   39MOL   H10422220   2.319   7.339   0.406  0.0917 -1.7044 -0.4258
   39MOL   H10522221   2.156   7.403   0.542 -0.7017 -1.9135 -0.2047
   39MOL   H10622222   2.106   7.140   0.485 -0.7228  0.3475  1.7740
   39MOL   H10722223   2.280   7.105   0.445  0.1377  1.4461 -0.3995
   39MOL   H10822224   2.404   7.063   0.653 -0.3801  0.0274  0.8229
   39MOL   H10922225   2.246   7.002   0.672 -0.3949 -0.1442 -1.2639
   39MOL   H11022226   2.380   7.063   0.876 -0.3496  1.2786  0.8364
   39MOL   H11122227   2.223   7.138   0.879 -0.8523  1.9405 -1.4039
   39MOL   H11222228   2.480   7.292   0.786  1.0400 -0.1668  0.9512
   39MOL   H11322229   2.321   7.353   0.807 -0.6099 -1.0747 -0.0300
   39MOL   H11422230   2.549   7.441   0.953  2.4802 -1.4346  0.9242
   39MOL   H11522231   2.333   7.488   1.128  0.0432 -1.2119  0.0215
   39MOL   H11622232   2.550   7.479   1.201  0.4135  0.5552 -0.4694
   39MOL   H11722233   2.485   7.327   1.234 -0.3340  0.1550  0.2067
   39MOL   C11822234   2.733   7.291   1.260  0.5072 -0.4452  0.2964
   39MOL   C11922235   2.691   7.160   1.330  0.3714  0.1128 -0.2881
   39MOL   O12022236   2.757   7.143   1.446  0.2732  0.0906 -0.4564
   39MOL   C12122237   2.727   7.031   1.250  0.0978  0.6762 -0.4789
   39MOL   O12222238   2.650   6.918   1.290 -0.3740 -0.0445  0.3110
   39MOL   C12322239   2.705   6.798   1.235 -0.1528 -0.6593 -0.3989
   39MOL   C12422240   2.632   6.674   1.296 -0.1440 -0.0435  0.0565
   39MOL   C12522241   2.643   6.546   1.218 -1.0046  0.3741  0.3005
   39MOL   O12622242   2.557   6.557   1.106 -0.3248 -0.5295 -0.3895
   39MOL   C12722243   2.514   6.435   1.053 -0.6856  0.0255 -0.8851
   39MOL   O12822244   2.620   6.354   1.006 -0.2550  0.3363  0.1436
   39MOL   C12922245   2.406   6.456   0.939  0.0820 -0.3899  0.1865
   39MOL   O13022246   2.463   6.540   0.839 -0.4603  0.3845  0.0920
   39MOL   H13122247   2.840   7.275   1.246  0.5616 -0.3644  0.6198
   39MOL   H13222248   2.731   7.371   1.333  1.7773 -1.3094  1.3200
   39MOL   H13322249   2.583   7.157   1.341  0.3963 -1.0138 -0.2743
   39MOL   H13422250   2.728   7.072   1.500 -2.5605  2.2156  0.9601
   39MOL   H13522251   2.719   7.044   1.142  0.7397 -2.7270 -0.9924
   39MOL   H13622252   2.832   7.011   1.271 -0.3522 -0.2436  0.9851
   39MOL   H13722253   2.812   6.791   1.257  0.1356  1.5439 -0.9491
   39MOL   H13822254   2.697   6.803   1.126  3.3158  0.3794 -0.6690
   39MOL   H13922255   2.527   6.697   1.310 -0.9875 -2.9290 -1.0619
   39MOL   H14022256   2.670   6.646   1.395 -0.7680 -3.3230 -0.5517
   39MOL   H14122257   2.744   6.529   1.181 -0.4284  2.9565  0.5552
   39MOL   H14222258   2.618   6.455   1.272  0.6649  1.0777  2.3479
   39MOL   H14322259   2.464   6.381   1.133 -1.8407 -2.3915 -3.1792
   39MOL   H14422260   2.657   6.397   0.930 -2.5666  2.2236  0.0331
   39MOL   H14522261   2.387   6.361   0.889  0.7409 -1.4560  1.9134
   39MOL   H14622262   2.321   6.496   0.994  0.2518 -0.9241  0.8478
   39MOL   C14722263   2.368   6.562   0.736 -0.1316  0.2709 -0.2628
   39MOL   C14822264   2.426   6.674   0.652  0.1657  0.0443 -0.1487
   39MOL   O14922265   2.422   6.787   0.742  0.9183  0.0299  0.7995
   39MOL   C15022266   2.342   6.694   0.529  0.2115 -0.4826 -0.4368
   39MOL   O15122267   2.399   6.784   0.430  0.2451  0.0444  0.4988
   39MOL   C15222268   2.328   6.771   0.302  0.1253 -0.3059  0.3210
   39MOL   C15322269   2.191   6.842   0.298 -0.2429  0.2581 -0.4529
   39MOL   C15422270   2.157   6.889   0.151  0.3291 -0.0267  0.8340
   39MOL   O15522271   2.055   6.984   0.161  0.6859 -0.3217  0.0587
   39MOL   C15622272   1.989   7.016   0.040 -0.3225 -0.2991  0.0926
   39MOL   O15722273   2.064   7.109   7.660  0.0623  0.2150 -0.2075
   39MOL   C15822274   1.863   7.079   0.058  0.7125  0.5740  0.1278
   39MOL   O15922275   1.761   6.978   0.059 -0.1822 -0.0356  0.2150
   39MOL   H16022276   2.271   6.593   0.777  0.6218  0.8754  1.0896
   39MOL   H16122277   2.356   6.463   0.692  0.5877  0.2823 -0.4917
   39MOL   H16222278   2.528   6.647   0.625  0.5875  2.2595 -0.8952
   39MOL   H16322279   2.455   6.754   0.825 -0.2345 -2.7020  0.2322
   39MOL   H16422280   2.312   6.601   0.480  1.5428  0.2529 -2.7511
   39MOL   H16522281   2.248   6.737   0.562  0.7192 -1.0628  1.8153
   39MOL   H16622282   2.326   6.669   0.264  0.6063 -0.3882  0.5134
   39MOL   H16722283   2.393   6.812   0.225 -0.8896 -0.1441 -0.4613
   39MOL   H16822284   2.217   6.927   0.362 -0.0753 -0.1002 -0.0380
   39MOL   H16922285   2.111   6.786   0.349  0.1145 -2.2740 -2.5646
   39MOL   H17022286   2.241   6.946   0.111 -0.1611 -1.1532 -1.8863
   39MOL   H17122287   2.133   6.805   0.086 -0.0096  0.1722  0.7013
   39MOL   H17222288   1.971   6.929   7.672  0.8664 -0.7044  0.2945
   39MOL   H17322289   2.135   7.067   7.614 -1.0384  0.2783 -2.0135
   39MOL   H17422290   1.855   7.134   0.152  1.9704  2.3298 -0.7653
   39MOL   H17522291   1.839   7.151   7.675 -0.0477  0.6059  0.3834
   39MOL   C17622292   1.629   7.031   0.082 -0.4709  0.5122 -0.1956
   39MOL   C17722293   1.525   6.919   0.061  0.3487  0.4944  0.5521
   39MOL   O17822294   1.510   6.888   7.618  0.1493 -0.6940 -0.1576
   39MOL   C17922295   1.400   6.960   0.133 -0.3799 -0.1802 -0.3740
   39MOL   O18022296   1.411   6.968   0.275 -0.9323 -0.3857 -0.1864
   39MOL   C18122297   1.286   6.993   0.342 -1.2957 -0.2785  0.3705
   39MOL   C18222298   1.312   7.011   0.492  0.6909  0.1630  0.2785
   39MOL   C18322299   1.364   6.892   0.567 -0.3600  0.3946 -0.3034
   39MOL   O18422300   1.346   6.920   0.709  0.3229 -0.1635  0.7644
   39MOL   C18522301   1.374   6.813   0.788 -0.2862 -0.4057 -0.0275
   39MOL   O18622302   1.271   6.714   0.772 -0.7788 -0.2122 -0.2797
   39MOL   C18722303   1.355   6.873   0.930  0.0742  0.1399 -0.2800
   39MOL   O18822304   1.472   6.940   0.984 -0.2547 -0.0086  0.6372
   39MOL   H18922305   1.625   7.126   0.030  0.8997  1.4424  1.3263
   39MOL   H19022306   1.633   7.056   0.188 -1.9695  0.1628 -0.0511
   39MOL   H19122307   1.562   6.826   0.105 -3.3353 -0.5282  1.7081
   39MOL   H19222308   1.591   6.903   7.573  0.7490 -1.5281  0.6231
   39MOL   H19322309   1.369   7.052   0.083 -2.5797  0.9300  2.9394
   39MOL   H19422310   1.325   6.884   0.115 -0.1401 -0.9112  1.6482
   39MOL   H19522311   1.213   6.914   0.330  1.2855 -2.3555 -2.1468
   39MOL   H19622312   1.247   7.089   0.306 -0.0688  0.1447  0.1511
   39MOL   H19722313   1.213   7.022   0.535 -0.2591 -3.6917 -0.7551
   39MOL   H19822314   1.377   7.098   0.504  0.0109  0.9506 -1.5970
   39MOL   H19922315   1.303   6.806   0.539 -0.8390  0.0297  1.7779
   39MOL   H20022316   1.460   6.857   0.527  0.2035 -0.0787  1.3931
   39MOL   H20122317   1.471   6.765   0.781 -0.1283  0.0707 -1.4137
   39MOL   H20222318   1.298   6.654   0.704  2.2951  0.2393  0.4529
   39MOL   H20322319   1.271   6.942   0.924 -0.0011 -0.0012 -0.9071
   39MOL   H20422320   1.318   6.799   1.001  2.5502 -1.1482 -0.2633
   39MOL   C20522321   1.444   7.023   1.093  0.2483 -0.1104  0.0210
   39MOL   C20622322   1.564   7.081   1.166 -0.2148 -0.3182 -0.5945
   39MOL   O20722323   1.611   7.199   1.099  0.0781  0.1103 -0.5245
   39MOL   C20822324   1.535   7.126   1.305  0.3752 -0.4099  0.2262
   39MOL   O20922325   1.660   7.192   1.348  0.1759 -0.1438 -0.2390
   39MOL   C21022326   1.645   7.257   1.471  0.7993 -0.3801 -0.3945
   39MOL   C21122327   1.781   7.307   1.505 -0.2975 -0.3057 -0.4707
   39MOL   C21222328   1.790   7.381   1.638 -0.0513  0.1781  0.4105
   39MOL   O21322329   1.930   7.411   1.647  0.0330 -0.5822 -0.2348
   39MOL   C21422330   1.979   7.497   1.737 -0.4980 -0.3534 -0.3886
   39MOL   O21522331   1.958   7.455   1.871  0.4871  0.4337  0.6552
   39MOL   C21622332   1.920   7.636   1.717 -0.6670  0.0331  0.4317
   39MOL   O21722333   1.962   0.002   1.590  0.3302 -0.5235 -0.4216
   39MOL   H21822334   1.392   6.958   1.163 -4.0438  2.9352 -0.1234
   39MOL   H21922335   1.378   7.107   1.072 -0.1638 -0.5402 -0.4032
   39MOL   H22022336   1.640   7.003   1.172  1.4198  1.3027  0.3636
   39MOL   H22122337   1.659   7.239   1.169  1.0864 -1.9624  0.0199
   39MOL   H22222338   1.443   7.183   1.314 -0.5112 -2.1256  2.7226
   39MOL   H22322339   1.512   7.039   1.367 -1.4041  0.4216  0.7729
   39MOL   H22422340   1.607   7.179   1.536  0.5966 -0.7729 -0.9744
   39MOL   H22522341   1.565   7.330   1.463  0.8571 -0.4575 -1.8294
   39MOL   H22622342   1.820   7.371   1.426 -2.3999 -0.7115 -1.8948
   39MOL   H22722343   1.838   7.217   1.525  0.5751  0.4161  0.3402
   39MOL   H22822344   1.727   7.470   1.639 -0.2822  0.0149  0.4963
   39MOL   H22922345   1.760   7.324   1.726 -0.3059  2.2121  1.6603
   39MOL   H23022346   2.088   7.505   1.731 -0.4915  1.7348  1.8399
   39MOL   H23122347   2.035   7.401   1.884  0.9027  0.5712 -1.1198
   39MOL   H23222348   1.812   7.629   1.727 -0.7260 -1.7215 -1.2789
   39MOL   H23322349   1.949   0.010   1.797 -0.1229  1.9977 -1.4093
   39MOL   C23422350   1.953   0.145   1.585  0.2701 -0.0988  0.3316
   39MOL   C23522351   2.005   0.211   1.452 -0.2278 -0.4152 -0.0661
   39MOL   O23622352   1.983   0.347   1.440  0.5905  0.2639 -0.3977
   39MOL   C23722353   1.930   0.140   1.331 -0.2593 -0.4022  0.3559
   39MOL   O23822354   1.991   0.171   1.209 -0.6965 -0.1690  0.0997
   39MOL   C23922355   1.906   0.216   1.107  0.3953  0.5865  0.3405
   39MOL   C24022356   1.977   0.245   0.974  0.0274 -0.1609  0.0445
   39MOL   C24122357   2.033   0.385   0.964  0.4116  0.2179 -0.3940
   39MOL   O24222358   1.929   0.472   0.952 -0.1127  0.1104 -0.3088
   39MOL   C24322359   1.970   0.609   0.951 -0.1172 -0.0004 -0.5680
   39MOL   O24422360   2.010   0.659   1.076 -0.0902  0.0577  0.2032
   39MOL   C24522361   1.852   0.692   0.910 -0.5082  0.4711 -0.5260
   39MOL   O24622362   1.734   0.640   0.974  0.1126  0.7545  0.5906
   39MOL   H24722363   1.849   0.170   1.605  0.7986  1.6477  1.0411
   39MOL   H24822364   2.011   0.175   1.672  0.1549 -0.3781  0.5030
   39MOL   H24922365   2.110   0.181   1.454  0.4009  1.7547  0.7828
   39MOL   H25022366   1.913   0.357   1.377  0.2730  2.2977  0.2356
   39MOL   H25122367   1.936   0.032   1.345 -0.9140 -0.3814  0.8431
   39MOL   H25222368   1.821   0.145   1.333 -0.2868  0.1862 -1.7038
   39MOL   H25322369   1.846   0.300   1.141  1.3303  0.9293  1.1485
   39MOL   H25422370   1.840   0.131   1.092  0.4807  0.4952  0.4803
   39MOL   H25522371   1.913   0.232   0.887 -0.3248 -0.5113  0.3551
   39MOL   H25622372   2.058   0.175   0.952  0.8747  0.9913 -0.5112
   39MOL   H25722373   2.084   0.407   1.057  2.7636 -2.0940 -1.0684
   39MOL   H25822374   2.097   0.393   0.876  0.5895  0.1091 -0.2741
   39MOL   H25922375   2.051   0.622   0.880  0.9830 -0.3448  0.6115
   39MOL   H26022376   1.933   0.656   1.130 -0.7977 -0.4865 -0.8279
   39MOL   H26122377   1.868   0.793   0.946  0.4760  0.4441 -0.8689
   39MOL   H26222378   1.841   0.702   0.802 -1.6486  0.8168 -0.3871
   39MOL   C26322379   1.610   0.619   0.910  0.1660  0.3106  1.0613
   39MOL   C26422380   1.628   0.533   0.786 -0.3913 -0.1477 -0.1137
   39MOL   O26522381   1.660   0.403   0.849 -0.5318 -0.3295 -0.1841
   39MOL   C26622382   1.495   0.513   0.713 -0.3847  0.1545  0.7820
   39MOL   O26722383   1.455   0.628   0.652 -0.6671 -0.0464  1.2473
   39MOL   C26822384   1.321   0.621   0.597  0.7230  1.0687  0.1964
   39MOL   C26922385   1.214   0.619   0.719  0.7697  0.2026  0.2574
   39MOL   C27022386   1.079   0.676   0.668  0.4303  0.3322 -0.0529
   39MOL   O27122387   0.983   0.662   0.766 -0.1594 -0.2350 -0.0720
   39MOL   C27222388   0.859   0.689   0.720 -0.2243  0.2066  0.6017
   39MOL   O27322389   0.813   0.585   0.641  0.1513  0.2619  1.0186
   39MOL   C27422390   0.767   0.704   0.842 -0.5340  0.5144 -0.0922
   39MOL   O27522391   0.652   0.785   0.826 -0.5758  0.4904 -0.5185
   39MOL   H27622392   1.572   0.718   0.887 -0.6714  0.2323  2.0619
   39MOL   H27722393   1.543   0.575   0.984 -0.0610  2.1282  1.9612
   39MOL   H27822394   1.707   0.553   0.714  0.3639  0.1631  0.8048
   39MOL   H27922395   1.736   0.414   0.904  0.6800 -0.3641 -1.7855
   39MOL   H28022396   1.515   0.436   0.639  1.3376  0.9292  0.4103
   39MOL   H28122397   1.421   0.465   0.777 -0.8215  0.6424  0.6460
   39MOL   H28222398   1.310   0.537   0.528  0.2456  1.3672 -0.0924
   39MOL   H28322399   1.297   0.709   0.538  1.7602  0.3474 -1.3312
   39MOL   H28422400   1.258   0.696   0.782  3.2540 -1.3061  0.4232
   39MOL   H28522401   1.209   0.526   0.775 -0.3308  0.1775  0.1227
   39MOL   H28622402   1.092   0.780   0.639 -2.7024  0.5900 -0.7684
   39MOL   H28722403   1.043   0.624   0.579  2.7757  1.4265 -1.6885
   39MOL   H28822404   0.871   0.782   0.664  2.3490  0.7103  1.9087
   39MOL   H28922405   0.719   0.588   0.642  0.0743 -1.9375  1.1771
   39MOL   H29022406   0.747   0.604   0.882 -0.8612  0.6835  0.1688
   39MOL   H29122407   0.821   0.751   0.924  0.7028  1.2660 -1.2990
   39MOL   C29222408   0.604   0.836   0.950 -0.4637  0.0691 -0.8276
   39MOL   C29322409   0.519   0.730   1.019  0.3630 -0.4588  0.1021
   39MOL   O29422410   0.605   0.645   1.098 -0.1993 -0.3066  0.0759
   39MOL   C29522411   0.399   0.779   1.109  0.0047 -1.1517 -0.7662
   39MOL   O29622412   0.439   0.890   1.190  0.1319 -0.2257 -0.3668
   39MOL   C29722413   0.330   0.919   1.279 -0.6955  0.1161 -0.1191
   39MOL   C29822414   0.338   1.067   1.313 -0.1628  0.7678 -0.2859
   39MOL   C29922415   0.215   1.108   1.401  0.4401  0.2932  0.5008
   39MOL   O30022416   0.227   1.235   1.455  0.3053  0.3170  0.5685
   39MOL   C30122417   0.234   1.243   1.594 -0.3451 -0.0291 -0.0973
   39MOL   O30222418   0.352   1.169   1.645 -0.3551 -0.2009 -0.1932
   39MOL   C30322419   0.230   1.387   1.639 -0.6031  0.3431  0.1220
   39MOL   O30422420   0.299   1.461   1.552 -0.5051  0.1275  0.0444
   39MOL   H30522421   0.673   0.874   1.025 -1.9507  0.7312  0.2359
   39MOL   H30622422   0.539   0.922   0.929 -1.8107 -0.9959 -1.0685
   39MOL   H30722423   0.474   0.670   0.940  0.2622  1.5446 -1.4102
   39MOL   H30822424   0.637   0.699   1.169  1.8196 -0.3980 -0.7339
   39MOL   H30922425   0.319   0.814   1.045  0.3520 -2.7024 -2.0660
   39MOL   H31022426   0.369   0.693   1.169 -0.5163 -1.3643 -1.3348
   39MOL   H31122427   0.332   0.857   1.369  0.6458 -0.1669 -0.3293
   39MOL   H31222428   0.231   0.903   1.237 -0.9081  0.0059  0.4122
   39MOL   H31322429   0.336   1.123   1.219  0.0224 -0.9352 -1.3231
   39MOL   H31422430   0.429   1.079   1.372 -1.0255  2.7229  0.6809
   39MOL   H31522431   0.123   1.112   1.343  0.3350  0.4968  0.6798
   39MOL   H31622432   0.189   1.028   1.471  1.0800  1.8680  2.6071
   39MOL   H31722433   0.146   1.194   1.635 -0.4043  0.6207  0.5529
   39MOL   H31822434   0.427   1.213   1.609 -0.1941 -0.9865 -0.8399
   39MOL   H31922435   0.248   1.395   1.747 -0.1947  0.0971  0.0761
   39MOL   H32022436   0.131   1.431   1.631  0.2351  2.0708 -0.9558
   39MOL   C32122437   0.433   1.498   1.593  0.4390 -0.0389  0.3746
   39MOL   C32222438   0.524   1.449   1.478 -0.0978  0.2590 -0.6398
   39MOL   O32322439   0.495   1.314   1.441 -0.0315 -0.6145  0.1438
   39MOL   C32422440   0.527   1.538   1.353  0.0998  0.6774  0.7039
   39MOL   O32522441   0.404   1.519   1.287  0.0336 -0.5079  0.5962
   39MOL   C32622442   0.310   1.628   1.288  0.2947  0.3069  0.8548
   39MOL   C32722443   0.170   1.571   1.243 -0.9257  0.3089 -0.1540
   39MOL   C32822444   0.047   1.658   1.269  0.5087  1.0778  0.8561
   39MOL   O32922445   0.027   1.667   1.408  0.1619  0.1642 -0.1026
   39MOL   C33022446   7.608   1.731   1.439  0.0508 -0.5116 -0.1963
   39MOL   O33122447   7.518   1.639   1.487  0.9286 -0.1074 -0.0052
   39MOL   C33222448   7.641   1.826   1.555  0.3726  0.0647  0.2295
   39MOL   O33322449   0.033   1.762   1.653 -0.1939 -0.4659  0.4990
   39MOL   H33422450   0.467   1.450   1.685  1.4181  0.7399  0.4215
   39MOL   H33522451   0.431   1.606   1.606 -2.1913 -0.1191  0.8616
   39MOL   H33622452   0.628   1.439   1.510  0.3167 -1.6197 -2.4359
   39MOL   H33722453   0.412   1.323   1.396 -1.1992 -0.4824  2.2113
   39MOL   H33822454   0.605   1.507   1.283  0.6350  0.5939  1.3385
   39MOL   H33922455   0.543   1.644   1.373 -0.5187  1.3147 -1.9681
   39MOL   H34022456   0.342   1.697   1.210  1.2740 -1.6448 -0.5264
   39MOL   H34122457   0.308   1.686   1.380 -2.9226  0.8187  0.4998
   39MOL   H34222458   0.175   1.524   1.145  0.3431 -1.1101  0.5548
   39MOL   H34322459   0.157   1.493   1.318  1.1278  0.7198  0.6706
   39MOL   H34422460   0.055   1.756   1.223  1.6065  0.3256 -0.6002
   39MOL   H34522461   7.656   1.601   1.232  0.1978  0.6757  2.1572
   39MOL   H34622462   7.555   1.793   1.367 -0.8513 -0.8203  0.1916
   39MOL   H34722463   7.547   1.612   1.573 -0.0429 -0.4099  0.2367
   39MOL   H34822464   7.678   1.918   1.510  2.2458  1.3425  4.1376
   39MOL   H34922465   7.549   1.859   1.603  0.9058  1.1688  0.5158
   39MOL   C35022466   0.042   1.826   1.777  0.6168 -0.0208  0.8384
   39MOL   C35122467   0.142   1.757   1.866 -0.6385 -0.2474  0.0736
   39MOL   O35222468   0.188   1.853   1.967  0.3166 -0.4947 -0.2378
   39MOL   C35322469   0.094   1.636   1.933  0.0021  0.5351  0.2974
   39MOL   O35422470   0.194   1.574   2.017 -0.6529 -0.2255 -0.4439
   39MOL   C35522471   0.159   1.467   2.097  0.7115  0.2200  0.1693
   39MOL   C35622472   0.291   1.422   2.164 -0.2090 -0.1990 -0.2203
   39MOL   C35722473   0.254   1.323   2.281 -0.4238 -0.1066 -0.6104
   39MOL   O35822474   0.195   1.215   2.214  0.0274 -0.1116  0.1334
   39MOL   C35922475   0.148   1.113   2.297  0.5877 -0.3151  0.0224
   39MOL   O36022476   0.031   1.159   2.366 -0.4166 -0.2620  0.4976
   39MOL   C36122477   0.102   1.004   2.204 -0.1575 -0.2283  0.1727
   39MOL   O36222478   0.208   0.939   2.137 -0.0416  0.0275  0.4948
   39MOL   H36322479   7.636   1.829   1.820  0.4528 -0.7045  0.5128
   39MOL   H36422480   0.075   1.929   1.763 -2.9512  1.1055  0.1007
   39MOL   H36522481   0.222   1.724   1.799 -1.7333 -2.2447 -0.2897
   39MOL   H36622482   0.214   1.794   2.036 -1.8689 -0.2213  0.8736
   39MOL   H36722483   0.013   1.662   2.002 -1.2736 -0.6630 -0.7212
   39MOL   H36822484   0.048   1.572   1.857 -0.3173  1.1350 -0.0171
   39MOL   H36922485   0.109   1.381   2.053  0.3417  0.4462  0.1467
   39MOL   H37022486   0.090   1.506   2.172 -0.6885 -0.1622 -0.9009
   39MOL   H37122487   0.352   1.501   2.206 -2.2871  2.6292 -2.3315
   39MOL   H37222488   0.354   1.366   2.094  2.3312  0.6056  1.3334
   39MOL   H37322489   0.349   1.292   2.325 -0.8062  0.8725  0.9342
   39MOL   H37422490   0.199   1.374   2.360  1.6243 -0.1584  0.8909
   39MOL   H37522491   0.227   1.086   2.366  0.7456  0.2239  0.0534
   39MOL   H37622492   0.027   1.098   2.438  2.4901 -2.3685 -1.0008
   39MOL   H37722493   0.054   0.923   2.259 -2.5760  0.1848 -1.2584
   39MOL   H37822494   0.017   1.034   2.142  0.3141  1.5616  0.3734
   39MOL   C37922495   0.227   1.007   2.007  0.5425  0.2878  0.0653
   39MOL   C38022496   0.346   0.941   1.927 -0.4630  0.2205 -0.3323
   39MOL   O38122497   0.324   0.938   1.781  0.0628  0.3256 -0.5775
   39MOL   C38222498   0.485   0.975   1.974 -0.8159  0.1529  0.1636
   39MOL   O38322499   0.524   1.108   1.945 -0.4063 -0.1234 -0.6966
   39MOL   C38422500   0.667   1.139   1.971  0.3228  0.1794  0.6006
   39MOL   C38522501   0.708   1.215   1.846 -0.1907  0.1307  0.3564
   39MOL   C38622502   0.740   1.125   1.727  0.1244  0.3218 -0.3621
   39MOL   O38722503   0.768   1.212   1.614  0.0964  0.8794 -0.3117
   39MOL   C38822504   0.783   1.142   1.493  0.3913  0.0539 -0.0341
   39MOL   O38922505   0.659   1.098   1.449  0.2648  0.0834  0.5202
   39MOL   C39022506   0.846   1.244   1.393  0.3727  0.2272 -0.1205
   39MOL   O39122507   0.983   1.210   1.359  0.0421  0.3075 -0.4078
   39MOL   H39222508   0.249   1.114   2.009  3.3939 -0.2534  0.5807
   39MOL   H39322509   0.139   1.000   1.943  1.4101 -1.2211 -0.9911
   39MOL   H39422510   0.338   0.833   1.941  0.8608  0.2696  0.8872
   39MOL   H39522511   0.351   1.023   1.749  1.4210  1.0438  2.3111
   39MOL   H39622512   0.504   0.956   2.080  3.2642 -0.3304 -0.5635
   39MOL   H39722513   0.557   0.912   1.922 -0.0510 -0.3381  1.7592
   39MOL   H39822514   0.730   1.052   1.992  0.3546  0.5364  2.0013
   39MOL   H39922515   0.661   1.190   2.066  0.2190  1.1357  0.0848
   39MOL   H40022516   0.793   1.280   1.862  0.6193 -0.6063 -0.8575
   39MOL   H40122517   0.634   1.293   1.827 -1.4208 -1.0022  0.4085
   39MOL   H40222518   0.820   1.055   1.748 -0.5587  0.1807  1.9821
   39MOL   H40322519   0.655   1.059   1.708 -0.8646  1.2597  0.7170
   39MOL   H40422520   0.847   1.054   1.500  1.3736  0.6760 -0.9429
   39MOL   H40522521   0.598   1.170   1.447 -2.1034 -1.8437 -0.5352
   39MOL   H40622522   0.798   1.225   1.297  3.0986 -2.3369 -1.0554
   39MOL   H40722523   0.827   1.348   1.422  0.8192  0.3208 -0.1630
   39MOL   C40822524   1.073   1.282   1.449  0.1400 -0.4146 -0.1258
   39MOL   C40922525   1.222   1.249   1.428  0.1250 -0.8675  0.5734
   39MOL   O41022526   1.311   1.290   1.536  0.3454 -0.3404  0.9876
   39MOL   C41122527   1.282   1.300   1.295 -0.3088  0.5915  0.1281
   39MOL   O41222528   1.275   1.439   1.298  0.1681  0.0579 -0.3912
   39MOL   C41322529   1.351   1.500   1.192 -0.2477 -0.3295 -0.1204
   39MOL   C41422530   1.385   1.641   1.218 -0.6193 -0.3050 -0.6217
   39MOL   C41522531   1.276   1.732   1.242  0.9887 -0.5688 -0.0922
   39MOL   O41622532   1.312   1.872   1.269 -0.7300  0.4000 -0.1572
   39MOL   C41722533   1.207   1.961   1.249  0.0695  0.1003 -0.1541
   39MOL   O41822534   1.197   1.987   1.116 -0.4219 -0.1836  0.4573
   39MOL   C41922535   1.233   2.096   1.314 -0.4454  0.4340  0.0325
   39MOL   O42022536   1.144   2.190   1.258  0.4781  0.4687  0.1862
   39MOL   H42122537   1.040   1.258   1.549  1.8777 -1.1633  0.2897
   39MOL   H42222538   1.061   1.388   1.428 -0.8980 -0.0666  2.1239
   39MOL   H42322539   1.224   1.140   1.434  1.8902 -0.8391  0.7441
   39MOL   H42422540   1.355   1.368   1.506  0.5812 -0.9241 -0.2604
   39MOL   H42522541   1.386   1.273   1.276 -0.4092  0.4748 -0.2617
   39MOL   H42622542   1.220   1.267   1.211 -1.9076 -0.5519  1.7081
   39MOL   H42722543   1.437   1.451   1.147 -0.2236  0.3125 -0.7720
   39MOL   H42822544   1.288   1.505   1.103 -0.4681 -0.3089  0.0365
   39MOL   H42922545   1.438   1.668   1.127  0.6947 -0.7833 -0.0126
   39MOL   H43022546   1.462   1.643   1.295 -0.2143 -0.4516 -1.0196
   39MOL   H43122547   1.223   1.726   1.147  0.3439 -0.1101  0.2362
   39MOL   H43222548   1.205   1.687   1.313 -2.5714  1.0824 -2.4706
   39MOL   H43322549   1.112   1.916   1.278 -0.6939  0.7725 -1.6003
   39MOL   H43422550   1.185   2.081   1.111  0.2215 -0.1112  0.2815
   39MOL   H43522551   1.224   2.091   1.422  0.1398  1.4637  0.1390
   39MOL   H43622552   1.331   2.136   1.290 -0.6180  1.2445  0.6670
   39MOL   C43722553   1.010   2.173   1.313 -0.3224  0.6095 -0.5690
   39MOL   C43822554   0.939   2.312   1.318  0.7064 -0.1207 -0.5432
   39MOL   O43922555   0.991   2.390   1.431  0.0759  0.2828  0.6176
   39MOL   C44022556   0.787   2.287   1.339  0.7961 -1.0261  0.5282
   39MOL   O44122557   0.719   2.414   1.337 -0.6650 -0.5623 -0.1775
   39MOL   C44222558   0.584   2.413   1.305  0.2074 -0.7219  0.0469
   39MOL   C44322559   0.518   2.553   1.311 -0.3459  0.0212  0.9641
   39MOL   C44422560   0.369   2.533   1.293 -0.5845  0.3185  0.0186
   39MOL   O44522561   0.294   2.655   1.319 -0.3902 -0.0877  0.4027
   39MOL   C44622562   0.150   2.642   1.311  0.4068 -0.3603 -0.2229
   39MOL   O44722563   0.113   2.605   1.181 -0.2972  0.3439  0.6134
   39MOL   C44822564   0.085   2.768   1.357  0.2141 -0.6157 -0.0500
   39MOL   O44922565   0.040   2.749   1.489 -0.0591 -0.6076 -0.6184
   39MOL   H45022566   0.954   2.109   1.244 -2.0741  2.0113 -0.4802
   39MOL   H45122567   1.013   2.113   1.404 -0.8707  1.2177 -0.1442
   39MOL   H45222568   0.947   2.368   1.225 -0.6743  1.1089  0.0626
   39MOL   H45322569   0.969   2.330   1.501  0.3265  0.1008  0.5440
   39MOL   H45422570   0.748   2.222   1.261 -0.8784  1.0676 -0.4373
   39MOL   H45522571   0.750   2.236   1.428 -1.5075 -0.2501  0.0364
   39MOL   H45622572   0.528   2.351   1.375 -2.5773  3.0071  1.3003
   39MOL   H45722573   0.564   2.378   1.204  0.2306  1.6021 -0.8005
   39MOL   H45822574   0.553   2.632   1.243  1.1627 -0.2731  1.3886
   39MOL   H45922575   0.526   2.592   1.412 -1.6344 -0.3025  1.1942
   39MOL   H46022576   0.356   2.506   1.188  2.9279  0.4655 -0.5263
   39MOL   H46122577   0.335   2.452   1.357 -0.3263 -0.1087 -0.3793
   39MOL   H46222578   0.117   2.562   1.378  1.9123  1.3363  2.6188
   39MOL   H46322579   0.143   2.675   1.124  0.8662 -0.3782  0.3044
   39MOL   H46422580   0.161   2.846   1.349 -2.5262  2.0355 -1.3401
   39MOL   H46522581   0.005   2.810   1.296 -0.2742 -0.1098  0.9253
   39MOL   C46622582   7.643   2.843   1.541  0.2202 -0.4672  0.7107
   39MOL   C46722583   7.603   2.791   1.676 -0.2758 -0.4384  0.4369
   39MOL   O46822584   0.019   2.790   1.756  0.4465 -0.6206  0.2248
   39MOL   C46922585   7.484   2.862   1.732  0.4025 -0.2512  0.4203
   39MOL   O47022586   7.384   2.775   1.779 -0.3694 -0.2545 -0.1416
   39MOL   C47122587   7.403   2.723   1.910  0.5855  0.4799  0.5388
   39MOL   C47222588   7.263   2.670   1.934  0.2692 -0.0282 -0.5367
   39MOL   C47322589   7.266   2.599   2.068  0.7138 -0.4673  0.4659
   39MOL   O47422590   7.150   2.524   2.087 -0.0562  0.2059  0.2473
   39MOL   C47522591   7.153   2.441   2.196  0.3433  0.3308 -0.7651
   39MOL   O47622592   7.198   2.308   2.162 -0.0611  0.2596  0.5051
   39MOL   C47722593   7.009   2.429   2.257  0.4667 -0.3274 -0.3334
   39MOL   O47822594   6.991   2.537   2.348 -0.1848 -0.1866 -0.1032
   39MOL   H47922595   7.549   2.840   1.486  1.8134  2.2043 -2.3476
   39MOL   H48022596   7.682   2.945   1.543 -1.0290  0.0096  2.1068
   39MOL   H48122597   7.580   2.686   1.660  2.7067 -1.1266  0.3513
   39MOL   H48222598   0.084   2.751   1.701  1.6701  1.2000  0.3304
   39MOL   H48322599   7.518   2.924   1.816  1.3027 -0.4336  0.1968
   39MOL   H48422600   7.439   2.926   1.657 -3.0413 -0.6594  2.0155
   39MOL   H48522601   7.443   2.795   1.981  0.0941  0.8526  0.4412
   39MOL   H48622602   7.468   2.638   1.892  1.7478  1.1377  1.5525
   39MOL   H48722603   7.231   2.606   1.851 -1.3135 -0.4908  0.3953
   39MOL   H48822604   7.189   2.750   1.936 -0.7783 -0.9943 -0.1414
   39MOL   H48922605   7.355   2.536   2.074  0.1405 -1.4989 -1.4782
   39MOL   H49022606   7.268   2.669   2.152 -3.2521  0.6721 -0.2953
   39MOL   H49122607   7.221   2.477   2.273 -0.0342 -1.3692  0.4006
   39MOL   H49222608   7.269   2.326   2.102 -1.0867  3.3731  0.0975
   39MOL   H49322609   6.948   2.425   2.167 -0.5780  2.6492  0.1826
   39MOL   H49422610   7.000   2.334   2.311 -1.1134  1.1412  2.0684
   39MOL   C49522611   6.932   2.649   2.294  0.0395  0.2545  0.4525
   39MOL   C49622612   6.910   2.756   2.399  0.1251 -0.2116  0.0408
   39MOL   O49722613   6.823   2.706   2.501  0.3952  0.4636  0.3183
   39MOL   C49822614   7.038   2.798   2.469 -0.1283  0.0284 -0.5232
   39MOL   O49922615   7.112   2.863   2.367 -0.3484 -0.3272 -0.0214
   39MOL   C50022616   7.235   2.907   2.405  0.0468  0.7517  0.2482
   39MOL   C50122617   7.321   2.963   2.283  0.0487 -0.1713 -0.0868
   39MOL   C50222618   7.467   2.988   2.320 -0.6021  0.2998  0.0006
   39MOL   O50322619   7.457   3.094   2.416  0.0434 -0.0890  0.7901
   39MOL   C50422620   7.579   3.158   2.451 -0.5252 -0.0081 -0.7708
   39MOL   O50522621   7.657   3.063   2.519 -0.5916  0.1751  0.4176
   39MOL   C50622622   7.552   3.277   2.540  0.4381  0.4224 -0.3710
   39MOL   O50722623   7.505   3.233   2.669  0.0754 -0.5431  0.6859
   39MOL   H50822624   6.835   2.631   2.248 -0.5072  1.9258  0.9269
   39MOL   H50922625   7.002   2.692   2.223  1.0789 -0.5741  0.9580
   39MOL   H51022626   6.856   2.835   2.346 -0.0602  0.8085  1.7111
   39MOL   H51122627   6.866   2.631   2.539 -1.9806 -1.7100 -1.0976
   39MOL   H51222628   7.015   2.865   2.552  0.1597  0.4186 -0.7577
   39MOL   H51322629   7.107   2.720   2.500 -1.6790 -1.8207 -1.6428
   39MOL   H51422630   7.292   2.821   2.439 -0.5489  0.2857  0.0722
   39MOL   H51522631   7.229   2.978   2.488  2.3638 -0.0947  1.1776
   39MOL   H51622632   7.283   3.060   2.251 -1.5290 -0.6409  0.2943
   39MOL   H51722633   7.318   2.889   2.203 -1.4126 -1.1046  0.7984
   39MOL   H51822634   7.512   2.900   2.367 -0.2334  1.6747  2.3227
   39MOL   H51922635   7.510   3.018   2.225  0.0979  0.3953  0.3465
   39MOL   H52022636   7.630   3.195   2.362 -1.9027  0.9913 -1.1574
   39MOL   H52122637   7.616   3.044   2.602 -1.5259 -1.0909 -0.3132
   39MOL   H52222638   7.642   3.336   2.552  0.8835 -0.7241  2.3385
   39MOL   H52322639   7.489   3.351   2.491  0.6066  0.8301  0.0302
   39MOL   C52422640   7.403   3.297   2.726  0.3148 -0.7278  0.5185
   39MOL   C52522641   7.264   3.231   2.681  0.5574 -0.4160  0.6506
   39MOL   O52622642   7.168   3.338   2.655 -0.3779 -0.2043  0.3507
   39MOL   C52722643   7.199   3.116   2.757 -0.9011 -0.1889 -0.2642
   39MOL   O52822644   7.208   3.136   2.901 -0.5943  0.5048 -0.0506
   39MOL   C52922645   7.120   3.246   2.938  0.1204 -0.2294 -0.8511
   39MOL   C53022646   7.085   3.241   3.084  0.5126  0.0361  0.2398
   39MOL   C53122647   7.007   3.112   3.116  0.2151  0.7432 -0.3475
   39MOL   O53222648   6.989   3.090   3.256 -0.4723 -0.3839  0.2878
   39MOL   C53322649   6.937   2.970   3.288 -0.3849 -0.1521  0.0073
   39MOL   O53422650   7.037   2.874   3.304  0.0299 -0.0212 -0.1849
   39MOL   C53522651   6.866   2.986   3.420  0.6041 -0.3288 -0.6130
   39MOL   O53622652   6.962   3.010   3.513 -0.6871 -0.2602 -0.0656
   39MOL   H53722653   7.400   3.404   2.705 -0.3419 -1.1920 -1.9433
   39MOL   H53822654   7.428   3.285   2.831 -0.8967  1.8841  1.1586
   39MOL   H53922655   7.279   3.187   2.582  0.9939 -1.3289  1.1147
   39MOL   H54022656   7.109   3.326   2.582  2.3262 -0.0293 -1.9479
   39MOL   H54122657   7.094   3.095   2.739 -0.6903 -1.7606  0.3040
   39MOL   H54222658   7.241   3.023   2.721  0.3664 -0.4089  1.7264
   39MOL   H54322659   7.028   3.239   2.879  0.3901 -0.8015 -1.2086
   39MOL   H54422660   7.176   3.336   2.914 -0.3713  0.1157 -0.7026
   39MOL   H54522661   7.023   3.325   3.114 -0.1798 -0.5419  0.4408
   39MOL   H54622662   7.176   3.235   3.143  0.7199  0.2986 -0.0562
   39MOL   H54722663   6.907   3.116   3.072 -0.8798 -0.3450  1.9698
   39MOL   H54822664   7.064   3.034   3.066  1.2169  1.3048 -0.0853
   39MOL   H54922665   6.868   2.936   3.210  1.2972 -1.1607 -1.0624
   39MOL   H55022666   7.048   2.883   3.397 -1.3568  1.0009 -0.1138
   39MOL   H55122667   6.796   3.068   3.405  1.7989  0.5290 -1.5776
   39MOL   H55222668   6.812   2.893   3.441  0.2826  0.0517  0.2670
   39MOL   C55322669   6.907   3.040   3.641 -0.4505 -0.0452 -0.2303
   39MOL   C55422670   7.007   3.072   3.752  0.0845  0.1258 -0.1779
   39MOL   O55522671   7.048   3.208   3.746  0.1208 -0.0579  0.4731
   39MOL   C55622672   7.127   2.974   3.759  0.8405 -0.7524  0.1104
   39MOL   O55722673   7.193   2.996   3.879  0.2192 -0.4431 -0.2169
   39MOL   C55822674   7.290   2.894   3.904 -0.2937 -0.1137 -0.2405
   39MOL   C55922675   7.375   2.929   4.027  0.1474  0.4811 -0.0123
   39MOL   C56022676   7.492   2.827   4.053  0.8225  0.9230 -1.0462
   39MOL   O56122677   7.579   2.816   3.938  0.1604 -0.1334  0.3007
   39MOL   C56222678   7.681   2.717   3.958  0.4925  0.4393  0.3227
   39MOL   O56322679   7.632   2.593   3.925 -0.1742  0.5026 -0.4728
   39MOL   C56422680   0.109   2.751   3.864 -0.2220  0.1299 -0.2263
   39MOL   O56522681   0.165   2.634   3.820 -0.2509  0.7862  0.2702
   39MOL   H56622682   6.850   2.951   3.667 -1.7059  1.0560  0.8224
   39MOL   H56722683   6.846   3.130   3.639  1.3307  1.2097  1.5442
   39MOL   H56822684   6.956   3.063   3.848 -1.7679 -0.6335 -1.2099
   39MOL   H56922685   7.079   3.238   3.662 -1.4353 -0.3200 -0.2044
   39MOL   H57022686   7.088   2.873   3.746  1.7437 -0.7910 -2.6802
   39MOL   H57122687   7.199   2.973   3.678  0.3141  0.4622 -0.3890
   39MOL   H57222688   7.231   2.804   3.921  2.4453 -1.6384  1.5228
   39MOL   H57322689   7.363   2.885   3.823 -0.7782  3.5451 -1.1676
   39MOL   H57422690   7.311   2.925   4.115 -0.5499 -0.5799 -0.5573
   39MOL   H57522691   7.400   3.035   4.020 -1.6228  0.8987 -0.2404
   39MOL   H57622692   7.559   2.858   4.133  0.7267 -0.7752 -0.2667
   39MOL   H57722693   7.446   2.730   4.075 -1.2976  2.0508 -0.4405
   39MOL   H57822694   0.018   2.724   4.062 -3.0537  0.0784  1.4565
   39MOL   H57922695   7.612   2.589   3.832 -0.4998  0.4394 -0.4014
   39MOL   H58022696   0.068   2.815   3.785 -0.5071 -0.2379 -0.3826
   39MOL   H58122697   0.180   2.807   3.924 -1.0149 -1.4499  2.2657
   39MOL   H58222698   0.147   2.563   3.880 -0.0563  0.1585 -0.4084
   40MOL     C122699   7.017   2.942   4.466 -0.2332 -0.3454 -0.0303
   40MOL     C222700   6.984   3.008   4.327  0.3173  0.1302 -0.1543
   40MOL     O322701   7.088   3.071   4.266  0.6032 -0.1318  0.3101
   40MOL     C422702   6.936   2.903   4.229 -0.5015  0.2171 -0.0447
   40MOL     O522703   6.871   2.965   4.130 -0.0394  0.1346  0.4124
   40MOL     C622704   6.824   2.878   4.029  1.1800  0.8546  0.1036
   40MOL     C722705   6.709   2.944   3.959  0.6638  0.7873 -0.1137
   40MOL     C822706   6.637   2.856   3.861  0.5927 -0.0362  0.8996
   40MOL     O922707   6.548   2.920   3.771  0.3168  0.4603 -0.1049
   40MOL    C1022708   6.492   2.845   3.677  0.4466  0.6888 -0.2270
   40MOL    O1122709   6.563   2.848   3.551  0.1803  0.1832 -0.0659
   40MOL    C1222710   6.345   2.873   3.669 -0.6618 -0.1617 -0.0158
   40MOL    O1322711   6.268   2.758   3.706 -0.5206  0.2665  0.4870
   40MOL    H1422712   7.072   3.011   4.530 -0.5369  0.3198 -0.4826
   40MOL    H1522713   7.078   2.853   4.453 -0.2355 -0.5864  1.4474
   40MOL    H1622714   6.900   3.074   4.348  0.2411 -0.3253  1.0388
   40MOL    H1722715   7.053   3.102   4.184  1.7310  0.1187 -0.0894
   40MOL    H1822716   7.012   2.836   4.189  0.2561 -1.7652  4.4267
   40MOL    H1922717   6.868   2.834   4.278 -0.3752  0.2553  0.1913
   40MOL    H2022718   6.796   2.779   4.065  0.4803  0.2035 -2.1409
   40MOL    H2122719   6.900   2.867   3.951  1.0190 -0.1707  0.0862
   40MOL    H2222720   6.745   3.032   3.906 -1.1225  2.0598  0.7199
   40MOL    H2322721   6.642   2.982   4.037 -0.0990 -3.3216  1.3133
   40MOL    H2422722   6.712   2.795   3.811 -0.3003 -3.4197  3.4988
   40MOL    H2522723   6.574   2.791   3.922 -1.0661 -0.2980 -1.0245
   40MOL    H2622724   6.508   2.740   3.701  1.8297  1.3476  1.8780
   40MOL    H2722725   6.522   2.915   3.498 -1.5850 -0.7516  0.0914
   40MOL    H2822726   6.315   2.944   3.746 -4.0311 -0.6923 -0.7572
   40MOL    H2922727   6.318   2.909   3.570 -3.2410 -1.4249  0.1857
   40MOL    H3022728   6.933   2.920   4.533  0.9241  0.6014  1.7881
   40MOL    C3122729   6.124   2.775   3.681  0.7679  0.8705  0.0515
   40MOL    C3222730   6.044   2.639   3.709  0.2751 -0.2330  0.2096
   40MOL    O3322731   5.999   2.582   3.592  0.3565 -0.5135  0.0535
   40MOL    C3422732   5.923   2.653   3.806  0.6514  0.3027  0.0191
   40MOL    O3522733   5.979   2.665   3.933  0.1406 -0.5076  0.4533
   40MOL    C3622734   5.888   2.633   4.040 -0.1653 -0.3795 -0.1274
   40MOL    C3722735   5.961   2.679   4.169 -0.2743 -0.1902  0.0325
   40MOL    C3822736   5.950   2.832   4.189  0.0237 -0.4308 -0.2592
   40MOL    O3922737   5.830   2.855   4.267 -0.7294  0.1351 -0.4470
   40MOL    C4022738   5.814   2.986   4.309 -0.2756  0.0864 -0.0275
   40MOL    O4122739   5.888   3.023   4.417 -0.1214 -0.1633  0.5893
   40MOL    C4222740   5.662   2.991   4.337 -0.5361  0.2432 -0.2383
   40MOL    O4322741   5.583   3.022   4.220  0.1500 -0.0593  0.0054
   40MOL    H4422742   6.084   2.863   3.731 -0.9423 -0.2633  0.7186
   40MOL    H4522743   6.116   2.803   3.576 -0.0359  0.9729  0.1412
   40MOL    H4622744   6.104   2.552   3.736 -1.2005 -2.2801 -2.8671
   40MOL    H4722745   5.966   2.658   3.547 -0.9117 -2.0522 -1.7095
   40MOL    H4822746   5.863   2.743   3.789 -0.7431 -1.0450 -2.4122
   40MOL    H4922747   5.856   2.568   3.818  1.9227 -0.6746  0.3017
   40MOL    H5022748   5.870   2.526   4.045  0.3427 -0.4510  0.1124
   40MOL    H5122749   5.790   2.681   4.037 -0.5693 -1.1309  0.9977
   40MOL    H5222750   6.063   2.643   4.165 -0.5543 -0.9717 -0.1669
   40MOL    H5322751   5.905   2.629   4.247  1.3679 -0.9425  0.7372
   40MOL    H5422752   6.037   2.869   4.243  1.6124  0.1685 -3.1258
   40MOL    H5522753   5.956   2.884   4.094 -0.8328  1.0125  0.4615
   40MOL    H5622754   5.830   3.052   4.224 -3.3237 -0.2542 -0.9368
   40MOL    H5722755   5.840   3.056   4.492  2.6152  2.9466  1.0944
   40MOL    H5822756   5.633   2.899   4.388  0.4399 -0.0146 -0.1432
   40MOL    H5922757   5.640   3.066   4.412  1.3179 -0.2543  0.8295
   40MOL    C6022758   5.561   2.908   4.145  0.1274 -0.4166 -1.1707
   40MOL    C6122759   5.486   2.922   4.009  0.3945  0.2150 -0.0797
   40MOL    O6222760   5.349   2.938   4.033  0.5241 -0.2807 -0.0087
   40MOL    C6322761   5.504   2.797   3.916  0.0004 -0.4150  0.4622
   40MOL    O6422762   5.503   2.692   4.004 -0.0591  0.4431 -0.5793
   40MOL    C6522763   5.480   2.566   3.940  0.5988  0.3807  0.3564
   40MOL    C6622764   5.466   2.455   4.038  0.4314  0.3570  0.6939
   40MOL    C6722765   5.585   2.438   4.132 -0.0176  0.4039 -0.3451
   40MOL    O6822766   5.541   2.347   4.235  0.3920  0.0279 -0.2619
   40MOL    C6922767   5.628   2.336   4.341 -0.1632 -0.1414 -0.4304
   40MOL    O7022768   5.614   2.447   4.428 -0.6462 -0.2613 -0.1423
   40MOL    C7122769   5.591   2.207   4.420 -0.1060 -0.2063 -0.6861
   40MOL    O7222770   5.638   2.091   4.347  0.6413 -0.0810 -0.4938
   40MOL    H7322771   5.488   2.854   4.206 -0.6114 -0.1027 -1.7664
   40MOL    H7422772   5.646   2.842   4.128 -0.2563 -1.2524  0.0806
   40MOL    H7522773   5.512   3.009   3.949 -1.9701  1.3847  0.5163
   40MOL    H7622774   5.329   2.898   4.117 -2.6103 -0.5996 -0.8571
   40MOL    H7722775   5.427   2.791   3.839 -0.6551 -1.9392  1.1973
   40MOL    H7822776   5.602   2.799   3.868 -0.5847  0.1354 -0.7181
   40MOL    H7922777   5.560   2.556   3.867  2.0759  1.9262  1.7237
   40MOL    H8022778   5.387   2.580   3.885  0.0395  2.0129  1.6643
   40MOL    H8122779   5.448   2.356   3.996  0.1553  0.0646  1.5005
   40MOL    H8222780   5.376   2.483   4.092 -1.3769 -0.0247 -2.0057
   40MOL    H8322781   5.610   2.536   4.172  0.9948  0.5348 -1.2687
   40MOL    H8422782   5.677   2.404   4.085  0.9822  2.5888 -0.0034
   40MOL    H8522783   5.731   2.344   4.307  0.4494 -0.1730  1.3756
   40MOL    H8622784   5.525   2.433   4.456 -0.0433 -1.2479  1.3601
   40MOL    H8722785   5.645   2.202   4.514 -0.5323 -2.6619 -0.5211
   40MOL    H8822786   5.484   2.212   4.441 -0.9833 -1.3500 -4.4142
   40MOL    C8922787   5.579   1.967   4.364 -0.2627  0.1347 -0.5524
   40MOL    C9022788   5.613   1.872   4.245 -0.0332 -0.6756  0.0764
   40MOL    O9122789   5.582   1.949   4.130  0.0381 -0.3578 -0.1731
   40MOL    C9222790   5.758   1.822   4.239  0.8657  0.6138  0.1109
   40MOL    O9322791   5.754   1.684   4.201 -0.7263 -0.0809  0.2149
   40MOL    C9422792   5.894   1.645   4.170  0.4561 -0.4141 -0.0945
   40MOL    C9522793   5.885   1.547   4.050  0.2234  0.2133 -0.2871
   40MOL    C9622794   5.814   1.608   3.931  0.7573 -0.5873 -0.2359
   40MOL    O9722795   5.745   1.513   3.854 -0.2886  0.3576  1.1306
   40MOL    C9822796   5.707   1.558   3.729  0.3401 -0.7671  0.2060
   40MOL    O9922797   5.818   1.563   3.643  0.5428  0.2757 -0.1484
   40MOL   C10022798   5.598   1.467   3.671  0.2693  0.7632 -0.5602
   40MOL   O10122799   5.656   1.344   3.646 -0.3375 -0.0162 -0.1627
   40MOL   H10222800   5.474   1.975   4.390 -0.4093  1.7398 -1.5891
   40MOL   H10322801   5.622   1.917   4.451  0.4134  1.0424 -0.3566
   40MOL   H10422802   5.546   1.786   4.239 -0.0328 -0.7541  1.1350
   40MOL   H10522803   5.627   2.031   4.143 -2.2490  1.0653 -0.8772
   40MOL   H10622804   5.819   1.885   4.175 -0.4689  2.3540  0.4932
   40MOL   H10722805   5.799   1.811   4.340 -0.5276 -2.1892  0.4401
   40MOL   H10822806   5.936   1.596   4.258 -0.4716 -0.8528  0.1172
   40MOL   H10922807   5.953   1.732   4.143 -0.7998  0.9204  1.3974
   40MOL   H11022808   5.822   1.469   4.092  0.8404 -0.4041 -0.5193
   40MOL   H11122809   5.982   1.499   4.037  0.4568  0.3087  1.0267
   40MOL   H11222810   5.739   1.680   3.965  0.5499 -1.1997  0.6296
   40MOL   H11322811   5.894   1.649   3.870 -0.2573 -1.2482 -2.0560
   40MOL   H11422812   5.676   1.662   3.736  0.2735 -0.7521 -0.2814
   40MOL   H11522813   5.840   1.477   3.610 -0.4672 -0.2649  0.5743
   40MOL   H11622814   5.522   1.459   3.749  2.1570  1.0034  1.3692
   40MOL   H11722815   5.563   1.512   3.578 -1.5768 -0.7911 -0.6449
   40MOL   C11822816   5.574   1.258   3.569 -0.0127  0.6948  0.3066
   40MOL   C11922817   5.647   1.128   3.538 -0.4976 -0.2514 -0.4709
   40MOL   O12022818   5.731   1.167   3.435 -0.5586 -0.6423  0.1118
   40MOL   C12122819   5.554   1.017   3.502 -0.4247 -0.0451  0.5242
   40MOL   O12222820   5.615   0.891   3.495 -0.4078  0.4513  0.3719
   40MOL   C12322821   5.536   0.778   3.526 -1.0148 -0.1461  0.1567
   40MOL   C12422822   5.628   0.666   3.577  0.2073 -0.5434  0.8822
   40MOL   C12522823   5.701   0.697   3.711  0.6103 -0.0526  0.2152
   40MOL   O12622824   5.826   0.745   3.703 -0.7668  0.0369 -0.0646
   40MOL   C12722825   5.902   0.765   3.819  0.1754  0.2783  0.2136
   40MOL   O12822826   5.843   0.864   3.899 -0.1735 -0.5252 -0.6887
   40MOL   C12922827   6.047   0.796   3.784 -0.2138 -0.2645  0.2283
   40MOL   O13022828   6.104   0.675   3.747 -0.2307 -0.0933  0.1108
   40MOL   H13122829   5.483   1.226   3.620  0.2011 -0.3778  0.0300
   40MOL   H13222830   5.546   1.309   3.477 -1.1974  0.2383  0.4014
   40MOL   H13322831   5.694   1.101   3.632  1.1209  0.8855 -0.9389
   40MOL   H13422832   5.805   1.110   3.445 -1.6433 -2.1090 -0.0039
   40MOL   H13522833   5.465   1.012   3.565  1.4170  2.0419  3.4410
   40MOL   H13622834   5.512   1.039   3.404 -1.8719  1.8370  1.5202
   40MOL   H13722835   5.473   0.751   3.441 -1.7739  2.2634 -0.0968
   40MOL   H13822836   5.467   0.795   3.609 -1.6568 -1.7968 -0.0337
   40MOL   H13922837   5.713   0.666   3.508  0.9546  1.4077  1.7320
   40MOL   H14022838   5.584   0.567   3.578 -4.4181  1.4132  1.0700
   40MOL   H14122839   5.641   0.767   3.769 -0.4709  1.2895 -2.4304
   40MOL   H14222840   5.693   0.609   3.775  2.6379  0.8947  1.8254
   40MOL   H14322841   5.904   0.672   3.876 -0.1159  0.1177 -0.0357
   40MOL   H14422842   5.862   0.945   3.855  0.5633 -1.9793 -3.1375
   40MOL   H14522843   6.045   0.863   3.697 -2.6737  0.5463  0.8759
   40MOL   H14622844   6.098   0.848   3.865 -0.2289 -0.1900  0.1905
   40MOL   C14722845   6.248   0.671   3.744 -0.2538 -0.5795  0.3794
   40MOL   C14822846   6.310   0.772   3.644  0.1669  0.4043  0.2968
   40MOL   O14922847   6.269   0.751   3.509  0.0694  0.2057  0.3232
   40MOL   C15022848   6.467   0.767   3.637  0.0291  0.6659  0.3629
   40MOL   O15122849   6.514   0.635   3.625  0.5723 -0.6474 -0.2164
   40MOL   C15222850   6.570   0.600   3.502 -0.0466  0.3844  0.7714
   40MOL   C15322851   6.645   0.467   3.531 -0.1863 -0.3348  0.1436
   40MOL   C15422852   6.738   0.431   3.417  0.3949 -0.4408 -0.3175
   40MOL   O15522853   6.819   0.319   3.443  0.7002 -0.6640 -0.2658
   40MOL   C15622854   6.907   0.294   3.341  0.0930  0.3436  0.0711
   40MOL   O15722855   6.841   0.261   3.221  0.3873  0.5995  0.5560
   40MOL   C15822856   6.995   0.176   3.377 -0.1098  0.0627  0.8501
   40MOL   O15922857   7.087   0.202   3.486  0.5254  0.3043  0.5844
   40MOL   H16022858   6.267   0.565   3.725 -1.1323 -0.6419 -0.1756
   40MOL   H16122859   6.287   0.666   3.845  2.4352  0.1629 -0.5879
   40MOL   H16222860   6.289   0.875   3.672  0.0180  0.5466 -0.3202
   40MOL   H16322861   6.320   0.682   3.469  0.2425  0.8490 -0.5728
   40MOL   H16422862   6.500   0.815   3.544 -1.8977  0.8986 -0.2118
   40MOL   H16522863   6.520   0.822   3.715  1.4923 -1.2416  0.7569
   40MOL   H16622864   6.631   0.680   3.460  0.8652 -0.7431 -0.1145
   40MOL   H16722865   6.485   0.587   3.435 -1.1510  0.2908  2.1661
   40MOL   H16822866   6.585   0.382   3.563  0.1338 -0.8755 -0.6971
   40MOL   H16922867   6.722   0.480   3.607  1.5038 -1.7450 -1.2924
   40MOL   H17022868   6.678   0.414   3.327  1.0733  1.2187 -1.1140
   40MOL   H17122869   6.802   0.518   3.400  0.3447 -0.7285 -2.0781
   40MOL   H17222870   6.961   0.386   3.319 -0.6197  0.6499 -0.4062
   40MOL   H17322871   6.791   0.335   3.191 -0.7154 -0.5498 -0.5120
   40MOL   H17422872   6.928   0.089   3.385 -2.1659  1.4453 -0.6818
   40MOL   H17522873   7.055   0.167   3.287  0.1715  0.7676  0.9725
   40MOL   C17622874   7.193   0.105   3.502  0.1613 -0.4847 -0.0261
   40MOL   C17722875   7.144   7.674   3.563 -0.8042  0.5881 -0.0257
   40MOL   O17822876   7.068   0.013   3.681 -0.1766 -0.4143 -0.0260
   40MOL   C17922877   7.254   7.570   3.601 -0.6758 -0.3031  0.1415
   40MOL   O18022878   7.200   7.443   3.559  0.2199  0.0556  0.0348
   40MOL   C18122879   7.297   7.339   3.567 -0.3873  1.1928  0.0392
   40MOL   C18222880   7.243   7.208   3.510 -0.9100  0.8247 -0.1600
   40MOL   C18322881   7.330   7.091   3.553 -0.0464  0.4504 -0.4436
   40MOL   O18422882   7.464   7.101   3.495 -0.4874  0.4980  0.3115
   40MOL   C18522883   7.539   6.981   3.507  0.5417 -0.8866 -0.5460
   40MOL   O18622884   7.575   6.957   3.645  0.5522  0.1059 -0.3963
   40MOL   C18722885   7.666   7.001   3.423 -0.5864  0.0633  0.1717
   40MOL   O18822886   0.018   6.882   3.366  0.0328 -0.2416  0.5396
   40MOL   H18922887   7.257   0.165   3.566 -0.3522  0.1242 -0.0809
   40MOL   H19022888   7.250   0.087   3.410  0.9302  0.6721  0.2101
   40MOL   H19122889   7.080   7.621   3.493 -0.3290 -0.3773  0.2666
   40MOL   H19222890   7.056   0.107   3.686  1.3314 -0.2415  0.6058
   40MOL   H19322891   7.348   7.588   3.550 -0.5231  2.3338  1.2926
   40MOL   H19422892   7.272   7.586   3.707 -2.9851  1.5319  0.3136
   40MOL   H19522893   7.341   7.323   3.666 -1.2848  0.1080  0.2675
   40MOL   H19622894   7.387   7.373   3.515  0.1776 -1.9356 -1.0828
   40MOL   H19722895   7.225   7.202   3.403 -0.4956 -0.2027 -0.1793
   40MOL   H19822896   7.146   7.198   3.558  0.0921 -1.9019  1.3785
   40MOL   H19922897   7.336   7.081   3.662  0.0252 -1.2207 -0.5875
   40MOL   H20022898   7.282   6.998   3.522  0.6496  0.5101 -1.7493
   40MOL   H20122899   7.474   6.900   3.475 -0.4145 -0.4573  0.3053
   40MOL   H20222900   7.612   6.871   3.661  1.6425  0.8710  1.3100
   40MOL   H20322901   7.646   7.076   3.347 -1.1958  0.4931  0.7555
   40MOL   H20422902   0.049   7.064   3.469 -1.1769  0.8426  0.1057
   40MOL   C20522903   0.064   6.782   3.461  0.5949 -0.0688 -0.3947
   40MOL   C20622904   0.127   6.670   3.382  0.0279  0.4218 -0.4644
   40MOL   O20722905   0.251   6.711   3.321 -0.4647 -0.9800  0.3742
   40MOL   C20822906   0.155   6.544   3.477  0.6157  0.1157 -0.3348
   40MOL   O20922907   0.032   6.478   3.524 -0.4003  0.3918  0.5819
   40MOL   C21022908   0.054   6.338   3.551 -0.2116  0.3913  0.1248
   40MOL   C21122909   7.627   6.251   3.574  0.3067 -0.4749  0.1659
   40MOL   C21222910   7.669   6.105   3.613 -0.3483 -0.1357 -1.0292
   40MOL   O21322911   7.553   6.018   3.633  0.0174 -0.1224 -0.2051
   40MOL   C21422912   7.585   5.894   3.681  0.3982  0.8051 -0.0726
   40MOL   O21522913   7.648   5.812   3.592  0.5046  0.1422  0.6788
   40MOL   C21622914   7.454   5.825   3.730  0.3917  0.7513 -0.7478
   40MOL   O21722915   7.390   5.892   3.838 -0.2123  0.1505 -0.1199
   40MOL   H21822916   7.674   6.745   3.519 -1.0861  1.7245 -1.6260
   40MOL   H21922917   0.142   6.804   3.534 -0.2500 -1.0825  0.8269
   40MOL   H22022918   0.046   6.654   3.311 -1.0812  0.0483  0.8563
   40MOL   H22122919   0.315   6.733   3.387 -0.0068 -0.6978 -0.1683
   40MOL   H22222920   0.205   6.479   3.405  0.1423 -0.0911 -0.4788
   40MOL   H22322921   0.225   6.557   3.559 -0.2387 -2.7711  0.9257
   40MOL   H22422922   0.107   6.337   3.646 -1.4460 -0.3567  0.8210
   40MOL   H22522923   0.116   6.285   3.478 -0.0396  0.0117  0.5452
   40MOL   H22622924   7.562   6.256   3.486 -0.1784 -1.4562  0.4664
   40MOL   H22722925   7.556   6.293   3.645  1.3138  1.0668  0.2894
   40MOL   H22822926   0.046   6.072   3.538 -3.6654 -2.2258 -3.3952
   40MOL   H22922927   0.028   6.108   3.708  0.8104  0.2877 -1.6890
   40MOL   H23022928   7.652   5.889   3.767 -0.2579  0.6017  0.4393
   40MOL   H23122929   7.582   5.796   3.526  2.0606 -0.7531 -0.6986
   40MOL   H23222930   7.389   5.805   3.644 -0.1721  0.8436 -0.3485
   40MOL   H23322931   7.479   5.726   3.766 -3.8854 -0.6215 -1.2090
   40MOL   C23422932   7.317   6.011   3.805  0.4344  0.0769 -0.7710
   40MOL   C23522933   7.251   6.061   3.937  0.2272  0.4063  0.1217
   40MOL   O23622934   7.183   6.170   3.881 -0.2700 -0.1297  0.6166
   40MOL   C23722935   7.351   6.109   4.040  0.1986 -0.3915 -0.5093
   40MOL   O23822936   7.283   6.175   4.151 -0.0480 -0.2837 -0.3938
   40MOL   C23922937   7.327   6.134   4.280  0.1633 -0.2763 -0.3582
   40MOL   C24022938   7.236   6.195   4.387  0.9096 -0.6910 -0.2504
   40MOL   C24122939   7.234   6.128   4.529 -0.0143  0.8600  0.0763
   40MOL   O24222940   7.163   6.219   4.612  0.0616  0.0839 -0.5714
   40MOL   C24322941   7.145   6.181   4.744 -0.0418  0.3603 -0.6418
   40MOL   O24422942   7.045   6.087   4.763 -0.0991 -0.1608 -0.2199
   40MOL   C24522943   7.121   6.304   4.836  0.3440 -0.6247 -0.5618
   40MOL   O24622944   7.242   6.385   4.848 -0.1135 -0.0453  0.1511
   40MOL   H24722945   7.388   6.087   3.773 -1.0098  1.6147 -0.3340
   40MOL   H24822946   7.243   6.002   3.726 -1.5231 -2.8600  1.2695
   40MOL   H24922947   7.201   5.973   3.977  2.0532 -1.2244 -1.0818
   40MOL   H25022948   7.173   6.236   3.947  1.1957  1.2564 -0.5119
   40MOL   H25122949   7.412   6.024   4.074  1.1126  0.1190 -0.8547
   40MOL   H25222950   7.427   6.172   3.994  0.0691  0.3012  0.2238
   40MOL   H25322951   7.432   6.145   4.309  0.0887 -0.7424  0.0993
   40MOL   H25422952   7.328   6.026   4.262  0.9967 -0.1762 -0.9670
   40MOL   H25522953   7.138   6.200   4.340  1.4697  2.5520 -1.2358
   40MOL   H25622954   7.261   6.297   4.417  2.4671 -0.4316 -2.3291
   40MOL   H25722955   7.176   6.035   4.530  1.2145  0.0599  3.8486
   40MOL   H25822956   7.335   6.101   4.559 -0.0903  1.0121  0.4637
   40MOL   H25922957   7.235   6.131   4.779 -1.7903 -0.0880  3.4764
   40MOL   H26022958   6.958   6.122   4.753 -0.5663 -1.2254  0.0426
   40MOL   H26122959   7.034   6.357   4.795  0.8276 -0.4686 -1.3953
   40MOL   H26222960   7.106   6.270   4.939  1.5948 -0.5199 -0.3425
   40MOL   C26322961   7.238   6.495   4.940  0.8193  0.1408  0.3734
   40MOL   C26422962   7.328   6.601   4.886 -0.2436 -1.2271  0.4365
   40MOL   O26522963   7.454   6.539   4.919 -0.2161  0.4273  0.1475
   40MOL   C26622964   7.323   6.650   4.731 -0.4055  0.1188  0.4757
   40MOL   O26722965   7.362   6.786   4.725 -0.0128  0.8228  0.3322
   40MOL   C26822966   7.351   6.847   4.595  0.4497  0.1578  0.5277
   40MOL   C26922967   7.423   6.983   4.585 -0.4799 -0.0462 -0.3873
   40MOL   C27022968   7.430   7.038   4.442 -0.1205  0.3270  0.1962
   40MOL   O27122969   7.447   7.177   4.421  0.6858  0.0122  0.1577
   40MOL   C27222970   7.562   7.236   4.483 -0.0112 -0.3915 -0.0669
   40MOL   O27322971   7.680   7.208   4.411 -0.0230  0.0669 -0.1509
   40MOL   C27422972   7.550   7.380   4.513 -0.2402 -0.1020 -0.3039
   40MOL   O27522973   7.526   7.457   4.393 -0.0089  0.3574  0.7324
   40MOL   H27622974   7.260   6.473   5.044 -0.4347 -3.0058  0.0377
   40MOL   H27722975   7.142   6.546   4.944  1.5936  1.6614 -0.0708
   40MOL   H27822976   7.311   6.690   4.947 -0.1829  1.2209 -2.9859
   40MOL   H27922977   7.459   6.532   5.013  0.9378 -0.5766  0.0142
   40MOL   H28022978   7.402   6.592   4.684  0.3288  1.6989 -0.2944
   40MOL   H28122979   7.219   6.647   4.698 -0.1711  2.9008 -0.6565
   40MOL   H28222980   7.245   6.866   4.575 -0.0246 -1.0457  1.8186
   40MOL   H28322981   7.390   6.771   4.528  2.4827  1.1279  0.5866
   40MOL   H28422982   7.527   6.978   4.619 -0.7508  0.6445  0.5911
   40MOL   H28522983   7.392   7.055   4.661  1.7553  0.1076  0.4386
   40MOL   H28622984   7.507   6.987   4.384 -0.0267  1.0516 -0.3309
   40MOL   H28722985   7.331   7.013   4.404  0.5589 -0.6646 -0.9278
   40MOL   H28822986   7.576   7.178   4.575  1.8114 -2.1697 -1.4347
   40MOL   H28922987   7.689   7.268   4.339  1.9408 -0.6144 -0.5180
   40MOL   H29022988   7.475   7.386   4.592  1.6973  1.6351  1.4431
   40MOL   H29122989   7.650   7.409   4.545 -0.9595  0.1097  1.8479
   40MOL   C29222990   7.524   7.593   4.431 -0.8404 -0.2214 -0.2557
   40MOL   C29322991   7.539   7.681   4.305  0.0001 -0.2280 -0.4698
   40MOL   O29422992   7.678   7.680   4.257  0.6329  0.6491 -0.3461
   40MOL   C29522993   7.440   7.619   4.193  0.3923 -0.0526 -0.3758
   40MOL   O29622994   7.373   0.028   4.123 -0.2181  0.0456 -0.9927
   40MOL   C29722995   7.454   0.097   4.030  0.2972  0.5724  0.7236
   40MOL   C29822996   7.362   0.156   3.925 -0.1788  0.3503  0.0569
   40MOL   C29922997   7.254   0.256   3.978  0.6944  0.5490  0.3893
   40MOL   O30022998   7.178   0.286   3.864  0.6348  0.4162  0.3305
   40MOL   C30122999   7.068   0.366   3.897 -0.0967  0.2532  0.2330
   40MOL   O30223000   7.104   0.505   3.925 -0.2923  0.6314  0.1960
   40MOL   C30323001   6.973   0.371   3.776 -0.9356 -0.7130  0.2622
   40MOL   O30423002   6.920   0.245   3.760  0.0872  0.2073  0.3456
   40MOL   H30523003   7.437   7.611   4.494 -0.4670 -2.7386  1.0760
   40MOL   H30623004   7.605   7.620   4.499 -1.1124  0.3845 -0.1709
   40MOL   H30723005   7.498   0.084   4.332 -1.2776 -1.0211  0.4801
   40MOL   H30823006   0.006   0.066   4.213 -0.3566  1.4688  0.6068
   40MOL   H30923007   7.491   7.556   4.120  0.2051 -1.8707  1.0244
   40MOL   H31023008   7.354   7.571   4.240  0.7733 -0.1130  0.2655
   40MOL   H31123009   7.536   0.039   3.987  0.3213  1.0546  0.1000
   40MOL   H31223010   7.506   0.179   4.081  0.4731  0.0546  1.3798
   40MOL   H31323011   7.317   0.073   3.871  1.8525 -0.3010 -0.6856
   40MOL   H31423012   7.419   0.214   3.853 -1.4632  1.8888  0.2483
   40MOL   H31523013   7.191   0.201   4.049  0.6233  0.7788  0.5027
   40MOL   H31623014   7.297   0.345   4.024  1.3175  0.0017  0.8838
   40MOL   H31723015   7.013   0.332   3.985 -1.3394 -0.1438 -0.6868
   40MOL   H31823016   7.085   0.528   4.014 -1.6826  2.7702 -0.6137
   40MOL   H31923017   7.026   0.388   3.682 -3.2801  3.0525 -0.4882
   40MOL   H32023018   6.901   0.452   3.784  0.4952  0.7495 -1.0890
   40MOL   C32123019   6.797   0.214   3.826 -0.1569 -0.0053  0.4424
   40MOL   C32223020   6.749   0.074   3.799 -0.1469 -0.0044  0.1748
   40MOL   O32323021   6.834   7.677   3.869 -0.8748  0.1268  0.0758
   40MOL   C32423022   6.599   0.047   3.832 -0.2732 -1.1402  0.0389
   40MOL   O32523023   6.521   0.129   3.749  0.1184  0.1587  0.2784
   40MOL   C32623024   6.384   0.127   3.778 -0.0392 -0.4176 -0.0921
   40MOL   C32723025   6.328   0.231   3.682 -0.7732  0.0506 -0.2608
   40MOL   C32823026   6.177   0.246   3.695 -0.4818 -0.2447 -0.7046
   40MOL   O32923027   6.118   0.342   3.601 -0.1974  0.7959 -0.1010
   40MOL   C33023028   5.991   0.378   3.624  0.1332 -0.1455 -0.0811
   40MOL   O33123029   5.986   0.451   3.741  0.4024 -0.0605 -0.2171
   40MOL   C33223030   5.941   0.460   3.508  0.2955 -0.7151  0.6046
   40MOL   O33323031   5.877   0.375   3.413  0.1265 -0.6475  0.5806
   40MOL   H33423032   6.715   0.280   3.797 -0.4939 -0.2182  0.8943
   40MOL   H33523033   6.825   0.226   3.931  1.8570 -0.4759 -0.0266
   40MOL   H33623034   6.763   0.063   3.692  0.7675 -1.8893  0.4544
   40MOL   H33723035   6.900   7.652   3.806 -3.9131 -2.9360 -2.0652
   40MOL   H33823036   6.584   0.057   3.940 -0.8235  0.3702 -0.1710
   40MOL   H33923037   6.568   7.639   3.815  0.7406 -1.2133 -1.4327
   40MOL   H34023038   6.358   0.157   3.880  1.3747  0.4672  0.0236
   40MOL   H34123039   6.352   0.025   3.759 -0.5718 -0.4334  0.8726
   40MOL   H34223040   6.364   0.327   3.719 -0.3385 -0.0587 -0.3954
   40MOL   H34323041   6.353   0.220   3.577 -2.0189 -0.0287 -0.5502
   40MOL   H34423042   6.143   0.145   3.674 -0.7371  0.2862 -3.0313
   40MOL   H34523043   6.148   0.275   3.796  2.8041 -0.3416  0.3482
   40MOL   H34623044   5.926   0.291   3.632  1.0421 -0.8599 -0.4321
   40MOL   H34723045   6.004   0.541   3.722 -2.8682  0.0329 -3.3626
   40MOL   H34823046   5.864   0.528   3.545 -1.9390 -2.8266 -0.0297
   40MOL   H34923047   6.018   0.521   3.462  0.2317 -1.0980 -0.0119
   40MOL   C35023048   5.808   0.441   3.311  0.2190 -0.3524 -0.5457
   40MOL   C35123049   5.778   0.343   3.192  0.3508  0.0774  0.5269
   40MOL   O35223050   5.672   0.269   3.241  0.3677 -0.0334  0.1262
   40MOL   C35323051   5.730   0.422   3.068  0.2637  0.3877  0.1242
   40MOL   O35423052   5.702   0.326   2.967  0.4128 -0.0885 -0.5593
   40MOL   C35523053   5.578   0.359   2.903  0.0532  0.3801 -0.3130
   40MOL   C35623054   5.473   0.265   2.963  0.4676  0.0814 -0.3010
   40MOL   C35723055   5.333   0.277   2.905  0.0851  0.2779 -0.6464
   40MOL   O35823056   5.251   0.201   2.992  0.0704  0.4349  0.2529
   40MOL   C35923057   5.114   0.202   2.980  0.1414  0.0023  0.5432
   40MOL   O36023058   5.081   0.157   2.851 -0.3428 -0.1620  0.0309
   40MOL   C36123059   5.048   0.122   3.085 -0.4300 -0.4724 -0.0858
   40MOL   O36223060   5.123   7.692   3.092  0.2790  0.4165  1.0361
   40MOL   H36323061   5.869   0.523   3.275  2.6282 -1.9929 -0.3374
   40MOL   H36423062   5.722   0.484   3.363 -0.9797 -2.3250 -0.8390
   40MOL   H36523063   5.857   0.269   3.173 -0.5239 -0.3551 -1.5394
   40MOL   H36623064   5.668   0.197   3.179 -0.5998  1.0611 -1.0981
   40MOL   H36723065   5.648   0.490   3.091  1.1203  1.0496  1.2801
   40MOL   H36823066   5.809   0.486   3.031  0.7891  0.1915  0.8813
   40MOL   H36923067   5.581   0.329   2.798 -0.6089 -1.1632  0.0824
   40MOL   H37023068   5.560   0.466   2.906 -1.0680  0.1750  1.4218
   40MOL   H37123069   5.475   0.291   3.069  0.0269 -0.5153 -0.1463
   40MOL   H37223070   5.503   0.162   2.945  0.4947  0.1757 -0.8145
   40MOL   H37323071   5.301   0.381   2.905 -1.6611 -0.2041  2.3440
   40MOL   H37423072   5.335   0.239   2.803 -1.2937 -1.8315  0.0698
   40MOL   H37523073   5.091   0.309   2.979 -0.5813 -0.1549 -1.0656
   40MOL   H37623074   5.110   0.210   2.778 -1.7155  0.0190 -0.4027
   40MOL   H37723075   5.060   0.180   3.176 -0.1391 -0.8334  0.1092
   40MOL   H37823076   4.947   0.106   3.047 -0.3500 -2.5576  0.4955
   40MOL   C37923077   5.083   7.608   3.190 -0.6959 -0.0904 -0.0335
   40MOL   C38023078   5.139   7.466   3.173  0.1430 -0.2920  0.1762
   40MOL   O38123079   5.279   7.470   3.193  0.2757  0.5492  0.0995
   40MOL   C38223080   5.080   7.374   3.288 -0.1763  0.5893 -0.1964
   40MOL   O38323081   5.097   7.243   3.248  0.7014 -1.0197 -0.3467
   40MOL   C38423082   5.061   7.146   3.338 -0.0298 -0.3501  0.0904
   40MOL   C38523083   5.175   7.131   3.444  0.8762  0.2891  0.2198
   40MOL   C38623084   5.136   7.022   3.554 -0.8880 -0.6956  0.3768
   40MOL   O38723085   5.092   6.897   3.498  0.0060 -0.0081 -0.1112
   40MOL   C38823086   5.074   6.788   3.584  0.0218  1.0228  0.0762
   40MOL   O38923087   4.989   6.822   3.688  0.1613  0.0755 -0.1082
   40MOL   C39023088   5.009   6.676   3.493  0.3991  0.0158  0.0783
   40MOL   O39123089   5.088   6.558   3.503  0.3925 -0.4987  0.1255
   40MOL   H39223090   4.974   7.616   3.181 -0.5040  3.0012 -0.1634
   40MOL   H39323091   5.092   7.648   3.290 -0.0275  2.3569 -1.0418
   40MOL   H39423092   5.117   7.422   3.076  0.9911 -0.0861 -0.1049
   40MOL   H39523093   5.305   7.515   3.114  0.2181 -1.0809 -0.8688
   40MOL   H39623094   5.136   7.390   3.381 -0.2546  0.1962 -0.0823
   40MOL   H39723095   4.976   7.398   3.311 -0.7229  1.6837 -3.5912
   40MOL   H39823096   5.058   7.048   3.290  1.7137  0.9114 -2.6429
   40MOL   H39923097   4.962   7.168   3.379  0.2776  1.5733 -0.1625
   40MOL   H40023098   5.199   7.226   3.492 -0.0604 -0.0363  1.3620
   40MOL   H40123099   5.266   7.098   3.394  0.4309 -1.3923  0.4684
   40MOL   H40223100   5.221   7.009   3.621 -1.2942 -1.0536  0.8276
   40MOL   H40323101   5.061   7.065   3.619  1.3717  0.8259  2.0262
   40MOL   H40423102   5.168   6.745   3.618  0.6504  2.1510 -0.2078
   40MOL   H40523103   4.914   6.862   3.646  0.1562  0.3684  0.1748
   40MOL   H40623104   4.912   6.645   3.534 -0.0999 -0.9144 -1.7778
   40MOL   H40723105   4.987   6.709   3.392  0.0988 -3.1515 -0.9398
   40MOL   C40823106   5.035   6.439   3.542  0.4469  0.1731  0.4400
   40MOL   C40923107   5.018   6.420   3.691  0.1906 -0.4322  0.6358
   40MOL   O41023108   5.145   6.374   3.742 -0.1424 -0.3547  0.1828
   40MOL   C41123109   4.918   6.310   3.717  0.1827 -0.1912  0.7200
   40MOL   O41223110   4.782   6.353   3.697  0.4945 -0.0092  0.3599
   40MOL   C41323111   4.701   6.250   3.634  0.1195  0.0603  0.6878
   40MOL   C41423112   4.563   6.300   3.580 -0.4222  0.4600  0.2508
   40MOL   C41523113   4.498   6.197   3.483 -0.4343 -0.0625  0.2398
   40MOL   O41623114   4.367   6.234   3.445 -0.3118  0.2979  0.1155
   40MOL   C41723115   4.298   6.145   3.368 -0.4274 -0.4980 -0.3163
   40MOL   O41823116   4.360   6.115   3.247 -0.4628  0.2238  0.2462
   40MOL   C41923117   4.152   6.205   3.338 -0.1013  0.6479 -0.0253
   40MOL   O42023118   4.055   6.138   3.423  0.1969 -0.0303  0.2013
   40MOL   H42123119   5.083   6.352   3.498  2.7825  1.7551 -0.1974
   40MOL   H42223120   4.940   6.430   3.488  0.9500  2.9173 -0.9963
   40MOL   H42323121   4.972   6.507   3.738  0.5145  1.4173 -2.3301
   40MOL   H42423122   5.214   6.404   3.685  1.1972  0.9892  2.4323
   40MOL   H42523123   4.949   6.221   3.663 -1.6085 -0.8631  0.7793
   40MOL   H42623124   4.920   6.280   3.822 -1.5180 -0.3407  0.7280
   40MOL   H42723125   4.758   6.204   3.552  0.8828 -1.6076  2.1122
   40MOL   H42823126   4.691   6.169   3.706  1.6343 -1.9989 -1.3168
   40MOL   H42923127   4.576   6.398   3.533 -0.1951 -1.0505 -2.9803
   40MOL   H43023128   4.495   6.318   3.662  0.7399  0.9261  1.1168
   40MOL   H43123129   4.559   6.163   3.399 -3.3413  1.5683 -2.6483
   40MOL   H43223130   4.492   6.096   3.525  0.2227 -0.1656  0.0962
   40MOL   H43323131   4.288   6.056   3.430  0.6745 -0.8640 -0.6575
   40MOL   H43423132   4.363   6.192   3.192 -3.4692  2.0848  2.5292
   40MOL   H43523133   4.141   6.312   3.324  0.1990  0.4674 -1.6568
   40MOL   H43623134   4.132   6.174   3.235  1.2406  1.3809 -0.5121
   40MOL   C43723135   3.931   6.207   3.401 -0.8646  0.0201 -0.1718
   40MOL   C43823136   3.818   6.137   3.484  0.2054  0.3792  0.7510
   40MOL   O43923137   3.776   6.023   3.408  0.0703 -0.4285 -0.3450
   40MOL   C44023138   3.702   6.233   3.492 -0.0988 -0.7104  0.2476
   40MOL   O44123139   3.617   6.193   3.597  0.2971  0.3336  0.5746
   40MOL   C44223140   3.515   6.288   3.619 -0.2173  0.3207  0.2198
   40MOL   C44323141   3.449   6.228   3.736 -0.3664  0.0954  0.2981
   40MOL   C44423142   3.331   6.315   3.787 -0.5058 -0.1944 -0.5150
   40MOL   O44523143   3.386   6.430   3.846 -0.4580  0.3592  0.2748
   40MOL   C44623144   3.286   6.518   3.886  0.7541 -0.1133 -0.5769
   40MOL   O44723145   3.256   6.608   3.783 -0.3398 -0.1673  0.0067
   40MOL   C44823146   3.334   6.605   4.005 -0.1541 -0.2366 -0.3770
   40MOL   O44923147   3.356   6.514   4.105 -0.3328  0.1341 -0.7062
   40MOL   H45023148   3.946   6.311   3.429  1.0789  0.3125 -2.2302
   40MOL   H45123149   3.915   6.208   3.294 -1.6677  0.8210 -0.0527
   40MOL   H45223150   3.856   6.114   3.583 -0.4256  1.0714  1.1574
   40MOL   H45323151   3.782   5.948   3.466 -0.6741  0.2846  0.6615
   40MOL   H45423152   3.745   6.328   3.526 -2.1185  0.7890 -1.2149
   40MOL   H45523153   3.653   6.249   3.396 -2.7481  0.5440  1.7543
   40MOL   H45623154   3.443   6.309   3.540 -0.0259  1.2092  0.2715
   40MOL   H45723155   3.555   6.385   3.649  0.1945  0.1153  0.3461
   40MOL   H45823156   3.507   6.207   3.826  0.7835  1.9918  0.0271
   40MOL   H45923157   3.424   6.127   3.703  2.1881 -0.3547 -0.3875
   40MOL   H46023158   3.251   6.336   3.716 -0.6500 -0.7978 -0.5299
   40MOL   H46123159   3.273   6.269   3.868  0.1900  1.2977  0.8584
   40MOL   H46223160   3.195   6.465   3.917  1.3560 -0.1601  1.1892
   40MOL   H46323161   3.332   6.663   3.774  0.0254 -0.5878  0.4931
   40MOL   H46423162   3.425   6.650   3.966  0.7686 -1.5593  0.2137
   40MOL   H46523163   3.263   6.680   4.041 -0.6021 -1.6097  1.6481
   40MOL   C46623164   3.447   6.560   4.202 -0.3486 -0.0861  0.1297
   40MOL   C46723165   3.467   6.449   4.307 -0.0709 -0.1698  0.0110
   40MOL   O46823166   3.349   6.440   4.382 -0.5189  0.8730 -0.2127
   40MOL   C46923167   3.488   6.311   4.240  0.0475 -0.5156  0.0785
   40MOL   O47023168   3.552   6.216   4.321 -0.0085  0.2662 -0.1311
   40MOL   C47123169   3.527   6.078   4.285 -0.1331 -0.2927  0.2066
   40MOL   C47223170   3.600   5.996   4.389  0.1482  0.2216 -0.4881
   40MOL   C47323171   3.557   6.013   4.529 -0.0345  0.0591  0.4759
   40MOL   O47423172   3.440   5.941   4.562  0.0168 -0.5371  0.1941
   40MOL   C47523173   3.333   6.026   4.565  0.1092  0.7192 -0.1811
   40MOL   O47623174   3.332   6.082   4.694  0.1081  0.5226 -0.2640
   40MOL   C47723175   3.201   5.948   4.539 -0.4694  0.1590 -1.0837
   40MOL   O47823176   3.210   5.897   4.408 -0.0593 -0.6396 -0.0671
   40MOL   H47923177   3.425   6.657   4.246 -2.7070 -0.1950 -0.7780
   40MOL   H48023178   3.536   6.578   4.142  0.3211 -0.5267  0.9578
   40MOL   H48123179   3.554   6.486   4.362 -1.5280  0.8297  1.7016
   40MOL   H48223180   3.379   6.393   4.458  2.1582 -0.3120 -1.9015
   40MOL   H48323181   3.397   6.275   4.192 -0.1004 -0.6218  0.4356
   40MOL   H48423182   3.558   6.320   4.157  3.7079 -1.2036  2.9946
   40MOL   H48523183   3.567   6.064   4.184 -0.2261  1.7679 -0.1459
   40MOL   H48623184   3.420   6.060   4.272 -0.3500  0.8162  0.3428
   40MOL   H48723185   3.707   6.012   4.392  0.0932  0.6102 -0.5535
   40MOL   H48823186   3.576   5.894   4.358 -1.2415  0.6913 -1.0282
   40MOL   H48923187   3.627   5.955   4.590  1.3713  1.0116 -0.2059
   40MOL   H49023188   3.569   6.116   4.563  2.3082  0.2193 -0.6785
   40MOL   H49123189   3.334   6.105   4.491  0.1921  0.8636 -0.0249
   40MOL   H49223190   3.285   6.018   4.743  1.4440  0.2856  0.7468
   40MOL   H49323191   3.194   5.882   4.625 -1.0407  2.8799  1.0104
   40MOL   H49423192   3.122   6.022   4.551  1.8367  2.2910  1.9695
   40MOL   C49523193   3.150   5.771   4.393  0.4408 -0.4839  0.3135
   40MOL   C49623194   3.174   5.713   4.254  0.3818  0.2495 -0.1547
   40MOL   O49723195   3.131   5.813   4.165  0.2548  0.1064 -0.0618
   40MOL   C49823196   3.318   5.678   4.235 -0.8969 -0.4974  0.0666
   40MOL   O49923197   3.332   5.619   4.107  0.6515 -0.6994 -0.1432
   40MOL   C50023198   3.457   5.553   4.085  0.0132  0.2541  0.0585
   40MOL   C50123199   3.454   5.515   3.937  0.2260 -0.2283  0.4932
   40MOL   C50223200   3.585   5.435   3.903 -0.2038  0.0058  0.3487
   40MOL   O50323201   3.698   5.521   3.919  0.3692 -0.3336  0.4309
   40MOL   C50423202   3.813   5.472   3.849 -0.6631  0.2789 -0.6309
   40MOL   O50523203   3.858   5.351   3.909  0.8079  0.1124 -0.4771
   40MOL   C50623204   3.934   5.564   3.859  0.2091 -0.7181  0.1641
   40MOL   O50723205   3.966   5.630   3.735  0.2491 -0.2626  0.1418
   40MOL   H50823206   3.045   5.791   4.414  0.6480  1.0371 -0.0511
   40MOL   H50923207   3.192   5.713   4.475  0.6270  1.0286  1.2919
   40MOL   H51023208   3.114   5.623   4.241 -0.2106  0.2641  2.3503
   40MOL   H51123209   3.133   5.894   4.215 -2.3991  0.5704 -0.6365
   40MOL   H51223210   3.369   5.773   4.251  1.6204 -2.0354  1.5534
   40MOL   H51323211   3.350   5.611   4.315  0.4310 -0.0876 -0.1199
   40MOL   H51423212   3.459   5.462   4.145  1.7699  1.4087  1.8043
   40MOL   H51523213   3.537   5.621   4.114 -0.2905  1.5340 -2.0145
   40MOL   H51623214   3.452   5.604   3.874  0.7879 -1.2577 -1.0150
   40MOL   H51723215   3.371   5.446   3.922 -0.0150  0.5789 -2.0868
   40MOL   H51823216   3.604   5.355   3.974  1.9607  0.8138  0.7063
   40MOL   H51923217   3.578   5.406   3.799  1.7525  1.9969 -0.3813
   40MOL   H52023218   3.800   5.455   3.742 -0.4006  2.5742 -1.0482
   40MOL   H52123219   3.876   5.359   4.002  1.8983  2.5607 -0.8395
   40MOL   H52223220   3.912   5.636   3.938 -0.6742  0.9701 -1.6057
   40MOL   H52323221   4.014   5.512   3.912  1.5744  2.1419  1.0208
   40MOL   C52423222   4.094   5.697   3.737 -0.6450 -0.1509  0.4296
   40MOL   C52523223   4.083   5.786   3.605  0.0579  0.8542 -0.6646
   40MOL   O52623224   4.002   5.899   3.629 -0.0045  0.1369  0.5429
   40MOL   C52723225   4.032   5.719   3.482 -0.4712  0.8172 -0.0413
   40MOL   O52823226   4.074   5.798   3.376 -0.1264  0.1748  0.7597
   40MOL   C52923227   4.021   5.759   3.246  0.2015 -0.2275  0.8214
   40MOL   C53023228   4.075   5.855   3.144  0.2804 -0.5150  0.0585
   40MOL   C53123229   4.218   5.826   3.100 -0.7837  0.0267 -0.5239
   40MOL   O53223230   4.253   5.917   2.993 -0.9045  0.6566  0.2165
   40MOL   C53323231   4.386   5.915   2.956  0.2342  0.0748 -0.6218
   40MOL   O53423232   4.427   5.791   2.912  0.0712  0.1062  0.1279
   40MOL   C53523233   4.411   6.020   2.846  0.7338 -0.1153 -0.3493
   40MOL   O53623234   4.421   6.151   2.905  0.3053  0.3464 -0.4707
   40MOL   H53723235   4.183   5.634   3.731 -1.3410 -1.3486  2.2849
   40MOL   H53823236   4.104   5.766   3.820 -1.0628  1.0959 -0.5326
   40MOL   H53923237   4.182   5.824   3.580 -1.6030  3.7860 -3.0825
   40MOL   H54023238   4.005   5.948   3.548  0.9348 -0.6259  0.1152
   40MOL   H54123239   4.077   5.619   3.485 -1.3557  0.4201  0.0758
   40MOL   H54223240   3.927   5.691   3.484 -0.4041  0.4011 -1.8197
   40MOL   H54323241   3.914   5.777   3.252 -0.0488 -0.9472 -1.0718
   40MOL   H54423242   4.043   5.657   3.216  0.4059 -0.3922  1.5254
   40MOL   H54523243   4.070   5.961   3.169 -1.3687 -1.0753  2.2062
   40MOL   H54623244   4.025   5.841   3.048  2.1984  2.0497 -1.3912
   40MOL   H54723245   4.287   5.831   3.185 -0.3191 -0.7862 -0.8433
   40MOL   H54823246   4.239   5.724   3.068 -0.0171  0.0449 -0.1096
   40MOL   H54923247   4.452   5.931   3.041  0.4043  0.2843 -0.7924
   40MOL   H55023248   4.354   5.755   2.864  0.5082  0.5132 -0.8480
   40MOL   H55123249   4.514   6.006   2.814  0.0504  1.3494 -3.3950
   40MOL   H55223250   4.351   5.995   2.758 -1.6190  1.9010  0.6086
   40MOL   C55323251   4.305   6.224   2.919  0.1796  0.3539  0.4343
   40MOL   C55423252   4.353   6.359   2.971 -0.0158  0.6031  0.2295
   40MOL   O55523253   4.367   6.357   3.112 -0.3713 -0.4888  0.0784
   40MOL   C55623254   4.259   6.475   2.935  0.8020 -0.2214  0.1304
   40MOL   O55723255   4.314   6.594   2.984  0.1747  0.4052  0.3046
   40MOL   C55823256   4.250   6.707   2.928 -1.3960  0.1803 -0.8922
   40MOL   C55923257   4.308   6.835   2.989 -0.5652 -0.0939  0.0366
   40MOL   C56023258   4.229   6.959   2.932 -0.5106 -0.1054 -0.1062
   40MOL   O56123259   4.287   7.068   3.007  0.2468  0.2427  0.3303
   40MOL   C56223260   4.245   7.196   2.963 -0.2900  0.3290  0.1503
   40MOL   O56323261   4.112   7.220   2.999 -0.0100 -0.7916 -0.4737
   40MOL   C56423262   4.322   7.300   3.040  0.8925 -0.4740 -0.2406
   40MOL   O56523263   4.285   7.302   3.177 -0.2645 -0.5202 -0.5223
   40MOL   H56623264   4.228   6.184   2.984 -0.2285 -1.0590 -0.8965
   40MOL   H56723265   4.275   6.219   2.814 -1.2837  2.0788  0.7422
   40MOL   H56823266   4.447   6.390   2.925 -0.4596 -0.0985 -1.1907
   40MOL   H56923267   4.356   6.447   3.140 -0.9211 -0.4881 -0.1202
   40MOL   H57023268   4.229   6.475   2.831  0.4546 -0.3348  0.2290
   40MOL   H57123269   4.162   6.464   2.983  0.7418 -1.2571 -0.2184
   40MOL   H57223270   4.277   6.720   2.823  1.2230  1.1434 -0.1430
   40MOL   H57323271   4.142   6.701   2.928 -1.3509 -0.8069 -1.5124
   40MOL   H57423272   4.417   6.836   2.979 -0.5062  0.7384  0.6759
   40MOL   H57523273   4.299   6.822   3.097 -0.4907  0.4546  0.1108
   40MOL   H57623274   4.246   6.983   2.827 -2.3253  2.9570  0.2507
   40MOL   H57723275   4.122   6.950   2.950 -0.7149  0.2374 -1.1238
   40MOL   H57823276   4.262   7.198   2.856 -0.1538 -0.8595  0.1475
   40MOL   H57923277   4.117   7.251   3.089 -2.9356 -0.4474 -0.3554
   40MOL   H58023278   4.428   7.274   3.043  0.6662 -1.3674  0.0691
   40MOL   H58123279   4.309   7.397   2.993  2.1184 -0.9626 -1.6197
   40MOL   H58223280   4.286   7.213   3.209 -1.6666 -1.5579 -3.2776
   41MOL     C123281   5.086   3.381   4.811  0.5893 -0.2639 -0.1598
   41MOL     C223282   5.153   3.345   4.679  0.3161  0.0989 -0.3580
   41MOL     O323283   5.128   3.200   4.670  0.2756  0.6553  0.3373
   41MOL     C423284   5.108   3.432   4.560  1.1698 -0.4779  0.0048
   41MOL     O523285   4.971   3.437   4.555 -0.0633 -0.2334 -0.0879
   41MOL     C623286   4.910   3.484   4.444 -0.1662  0.2249  0.1872
   41MOL     C723287   4.767   3.512   4.477 -0.3368  0.2104  0.3720
   41MOL     C823288   4.678   3.563   4.364 -0.3352 -0.2879 -0.4421
   41MOL     O923289   4.554   3.579   4.424  0.0162 -0.2448  0.3138
   41MOL    C1023290   4.456   3.628   4.337  0.4415 -0.0754  0.2056
   41MOL    O1123291   4.481   3.756   4.287  0.4965 -0.1053 -0.8450
   41MOL    C1223292   4.326   3.634   4.427 -0.1610 -0.3791 -0.6381
   41MOL    O1323293   4.242   3.526   4.402 -0.1213 -0.1698 -0.6682
   41MOL    H1423294   5.112   3.483   4.839 -0.1824 -0.5120  1.5258
   41MOL    H1523295   5.124   3.325   4.897  0.4491  1.0006  0.7356
   41MOL    H1623296   5.261   3.352   4.688  0.2960  0.5238 -0.4508
   41MOL    H1723297   5.194   3.170   4.609 -0.6670  3.6771 -2.2980
   41MOL    H1823298   5.149   3.532   4.573 -2.0234  0.6254  1.8203
   41MOL    H1923299   5.152   3.395   4.467  0.9331  1.2020 -0.7993
   41MOL    H2023300   4.923   3.412   4.363 -2.3638 -1.8171  1.5938
   41MOL    H2123301   4.955   3.580   4.418 -0.4225  1.0126  2.5355
   41MOL    H2223302   4.772   3.586   4.556  3.0408  1.1860 -0.6429
   41MOL    H2323303   4.728   3.415   4.509  2.9296 -1.6289 -0.9378
   41MOL    H2423304   4.719   3.660   4.334  1.6194 -0.2571  2.1427
   41MOL    H2523305   4.680   3.488   4.285 -1.8927 -0.7848 -0.0236
   41MOL    H2623306   4.429   3.559   4.257 -1.3003 -0.9078  1.4703
   41MOL    H2723307   4.483   3.813   4.362  1.9744  0.9042 -1.6311
   41MOL    H2823308   4.360   3.645   4.530 -2.4134  1.5361 -0.0540
   41MOL    H2923309   4.275   3.727   4.402 -2.6516 -1.7782 -0.9057
   41MOL    H3023310   4.979   3.359   4.809 -0.2535  3.5832 -0.3985
   41MOL    C3123311   4.132   3.529   4.489 -0.4582  0.3656 -0.0498
   41MOL    C3223312   4.025   3.416   4.454 -1.1002 -0.3877 -0.3669
   41MOL    O3323313   3.897   3.462   4.500 -0.3090 -0.0661  0.1542
   41MOL    C3423314   4.064   3.275   4.507 -0.1596 -0.0431 -0.3147
   41MOL    O3523315   3.981   3.183   4.442  0.0760 -0.7523  0.5718
   41MOL    C3623316   3.995   3.053   4.478  0.3587 -0.2566  0.4595
   41MOL    C3723317   3.960   2.975   4.350  0.3746 -0.7858  0.3905
   41MOL    C3823318   3.987   2.822   4.355 -0.1621 -0.1947 -0.0793
   41MOL    O3923319   3.876   2.761   4.422 -0.3011 -0.2476 -0.2613
   41MOL    C4023320   3.898   2.627   4.449  0.0090  0.4812 -0.1824
   41MOL    O4123321   3.897   2.543   4.333  0.4436 -0.0457 -0.0876
   41MOL    C4223322   3.774   2.583   4.541 -0.5059 -0.5924  0.1794
   41MOL    O4323323   3.814   2.580   4.682 -0.2407 -0.0660 -0.0626
   41MOL    H4423324   4.174   3.538   4.589  1.8252  0.6513 -1.0034
   41MOL    H4523325   4.078   3.622   4.469 -1.4403 -0.5090 -1.5874
   41MOL    H4623326   4.021   3.397   4.347 -1.6206 -0.8112 -0.2759
   41MOL    H4723327   3.842   3.387   4.518  0.9438 -0.9059  0.4718
   41MOL    H4823328   4.166   3.247   4.479 -0.4045 -0.4707 -0.7768
   41MOL    H4923329   4.049   3.263   4.614  0.9521  0.4119 -0.0942
   41MOL    H5023330   3.922   3.040   4.559 -0.8156  0.7208 -0.4281
   41MOL    H5123331   4.092   3.024   4.517  0.2263 -1.2410  0.0643
   41MOL    H5223332   4.002   3.017   4.259  0.2865  3.5856  2.2502
   41MOL    H5323333   3.852   2.983   4.335  0.5966 -1.4850 -1.7086
   41MOL    H5423334   4.002   2.785   4.254  3.0300  0.3585  0.1356
   41MOL    H5523335   4.083   2.811   4.405 -0.3071  1.2227  0.5539
   41MOL    H5623336   3.991   2.602   4.501  0.2806  3.9279  1.0697
   41MOL    H5723337   3.811   2.547   4.295  0.2242 -1.5593  0.2197
   41MOL    H5823338   3.683   2.639   4.520  0.5894  1.2697  0.2366
   41MOL    H5923339   3.756   2.477   4.523 -2.8473 -0.3122  0.7823
   41MOL    C6023340   3.849   2.697   4.741  0.2508 -0.3202 -0.5020
   41MOL    C6123341   3.822   2.680   4.891 -0.7015  0.4578 -0.1205
   41MOL    O6223342   3.852   2.808   4.945  0.1401 -0.2935 -0.2057
   41MOL    C6323343   3.901   2.571   4.962 -0.0066 -0.4623 -0.3683
   41MOL    O6423344   3.815   2.545   5.079 -0.1575 -0.5285 -0.1909
   41MOL    C6523345   3.839   2.413   5.136 -0.7978  0.4714  0.8019
   41MOL    C6623346   3.735   2.357   5.227  0.2332  0.3024 -0.5467
   41MOL    C6723347   3.609   2.308   5.161 -0.4803  0.4360  0.2374
   41MOL    O6823348   3.630   2.204   5.066  0.1354  0.8971 -0.6531
   41MOL    C6923349   3.633   2.077   5.115  0.7746  0.3672 -0.3208
   41MOL    O7023350   3.522   2.002   5.067  0.2361  0.2013 -0.1883
   41MOL    C7123351   3.763   2.017   5.057 -0.0547 -0.1639  0.3346
   41MOL    O7223352   3.875   2.079   5.117 -0.2415  0.8795 -0.6618
   41MOL    H7323353   3.785   2.779   4.710  0.3166  0.2848  0.9230
   41MOL    H7423354   3.954   2.710   4.715  0.3405 -0.8878 -0.4334
   41MOL    H7523355   3.716   2.655   4.897 -0.6675  0.4090  0.2649
   41MOL    H7623356   3.926   2.791   5.003  0.4501 -1.5708 -0.9506
   41MOL    H7723357   3.924   2.487   4.897  1.7969  0.2198 -0.6415
   41MOL    H7823358   3.997   2.617   4.983 -0.9557  2.5816 -2.3789
   41MOL    H7923359   3.931   2.421   5.195 -0.5381 -2.1632  0.8305
   41MOL    H8023360   3.868   2.351   5.051  0.2233  2.9161 -0.7069
   41MOL    H8123361   3.705   2.437   5.294  1.0111  0.5367 -0.4727
   41MOL    H8223362   3.775   2.278   5.291 -1.1595 -0.0446 -0.1016
   41MOL    H8323363   3.563   2.394   5.112 -1.2979  0.4059  0.9462
   41MOL    H8423364   3.530   2.277   5.230 -1.6184 -0.4837 -1.4435
   41MOL    H8523365   3.626   2.068   5.223 -0.3321 -2.0789 -0.5551
   41MOL    H8623366   3.551   1.913   5.055 -2.1587 -0.7537  0.7938
   41MOL    H8723367   3.762   1.908   5.068 -1.0425 -0.1751  0.2636
   41MOL    H8823368   3.773   2.035   4.950  1.4761 -1.2863  0.2685
   41MOL    C8923369   4.000   2.037   5.057  0.5606 -0.4374  0.0329
   41MOL    C9023370   4.121   2.115   5.084 -0.0393 -0.3038  0.1269
   41MOL    O9123371   4.114   2.242   5.026 -1.0048  0.5316 -0.1075
   41MOL    C9223372   4.157   2.132   5.230  1.4504 -0.3455 -0.5123
   41MOL    O9323373   4.175   1.994   5.278  0.5126 -0.4118 -0.0375
   41MOL    C9423374   4.224   1.997   5.410  0.0756  0.1692 -1.1377
   41MOL    C9523375   4.262   1.850   5.432 -0.2602  0.0904 -0.3767
   41MOL    C9623376   4.401   1.810   5.377  0.1116 -0.1429  0.8794
   41MOL    O9723377   4.438   1.686   5.430  0.3363 -0.1651  0.5625
   41MOL    C9823378   4.516   1.608   5.349 -0.1402 -0.8475  0.2197
   41MOL    O9923379   4.570   1.502   5.420 -0.2726  0.1130 -0.2083
   41MOL   C10023380   4.420   1.542   5.240 -0.0861 -0.9924 -0.4357
   41MOL   O10123381   4.491   1.512   5.117 -0.0718  0.5635 -0.3608
   41MOL   H10223382   3.983   2.032   4.950 -0.4411 -0.2149  0.1772
   41MOL   H10323383   4.018   1.936   5.095  0.0692 -0.1425  1.0643
   41MOL   H10423384   4.211   2.070   5.042  1.7289  2.8827  0.3257
   41MOL   H10523385   4.073   2.234   4.941  0.0465 -0.1890 -0.5563
   41MOL   H10623386   4.242   2.198   5.240 -0.3645  1.9759  0.0201
   41MOL   H10723387   4.081   2.183   5.289  2.8272  2.1653 -0.8481
   41MOL   H10823388   4.153   2.038   5.483  2.9505  0.9962  1.2900
   41MOL   H10923389   4.313   2.058   5.424  0.8590 -1.3144  0.4534
   41MOL   H11023390   4.185   1.779   5.403 -0.2828  0.1462 -0.4548
   41MOL   H11123391   4.276   1.845   5.540 -0.8392 -0.7675 -0.3398
   41MOL   H11223392   4.399   1.823   5.268  0.4895  1.5102  1.0566
   41MOL   H11323393   4.470   1.891   5.402  1.4073 -1.0302  0.2781
   41MOL   H11423394   4.587   1.675   5.301  0.6370 -0.7210  1.5092
   41MOL   H11523395   4.532   1.420   5.392 -0.6010 -0.5101  1.9737
   41MOL   H11623396   4.361   1.460   5.281 -0.5423  1.1659  3.5368
   41MOL   H11723397   4.337   1.611   5.224  0.3324 -0.1744  0.8475
   41MOL   C11823398   4.398   1.478   5.010 -0.2159  1.1123  0.2164
   41MOL   C11923399   4.486   1.460   4.882  0.5924  0.3113 -0.7122
   41MOL   O12023400   4.562   1.583   4.868  0.4522 -0.7872 -1.0486
   41MOL   C12123401   4.421   1.403   4.768 -0.1515  0.1224  0.4065
   41MOL   O12223402   4.515   1.330   4.685  0.2705  0.2532 -0.1286
   41MOL   C12323403   4.613   1.404   4.611  0.7481  0.0817 -0.2867
   41MOL   C12423404   4.732   1.310   4.590  0.4159 -0.3949 -0.5548
   41MOL   C12523405   4.814   1.271   4.712  0.2922 -0.6454 -0.0927
   41MOL   O12623406   4.919   1.368   4.746 -0.3313 -0.2148  0.0743
   41MOL   C12723407   4.966   1.380   4.882 -0.2929 -0.5510 -0.4386
   41MOL   O12823408   4.993   1.260   4.945 -0.0825  0.5763 -0.0685
   41MOL   C12923409   4.872   1.473   4.957 -0.1421 -0.0836 -0.6776
   41MOL   O13023410   4.933   1.538   5.072 -0.3002  0.3243  0.6716
   41MOL   H13123411   4.348   1.386   5.039  1.5931  0.0918  0.1597
   41MOL   H13223412   4.336   1.563   4.982 -1.2063 -0.2778 -1.8745
   41MOL   H13323413   4.558   1.384   4.915  1.2325  0.0115 -2.7304
   41MOL   H13423414   4.526   1.640   4.802 -1.3465 -1.3307 -0.5699
   41MOL   H13523415   4.337   1.335   4.786 -0.0254 -1.1159 -3.2746
   41MOL   H13623416   4.375   1.479   4.705  0.8154  0.9206  0.6567
   41MOL   H13723417   4.661   1.489   4.659 -0.1696  0.2718  0.3111
   41MOL   H13823418   4.572   1.439   4.517  1.4870 -0.2649 -0.7388
   41MOL   H13923419   4.801   1.348   4.514 -0.9569  2.9522 -0.2122
   41MOL   H14023420   4.705   1.217   4.540  2.7386 -0.3657 -1.9384
   41MOL   H14123421   4.754   1.256   4.802  0.0764  1.6332  0.1889
   41MOL   H14223422   4.873   1.183   4.689  2.1977  1.0646 -1.9916
   41MOL   H14323423   5.062   1.430   4.874 -1.6183  2.0478 -0.4954
   41MOL   H14423424   5.072   1.231   4.902 -1.1424 -0.0633 -1.6334
   41MOL   H14523425   4.836   1.550   4.889 -0.5440  0.2026 -0.1397
   41MOL   H14623426   4.800   1.404   5.001  0.0520  0.2457  0.1569
   41MOL   C14723427   4.832   1.621   5.133  0.7154  0.1612 -0.3734
   41MOL   C14823428   4.886   1.689   5.262 -1.0240  0.0825 -0.4831
   41MOL   O14923429   4.999   1.764   5.211  0.2725  0.0545 -0.1840
   41MOL   C15023430   4.925   1.586   5.370 -0.1098 -0.1040 -0.2549
   41MOL   O15123431   4.980   1.650   5.489 -0.4781 -0.9076 -0.6335
   41MOL   C15223432   5.067   1.571   5.567  0.0076  0.4969 -0.0274
   41MOL   C15323433   4.981   1.543   5.688  0.1267 -0.1293 -0.1168
   41MOL   C15423434   5.054   1.506   5.815 -0.3844 -0.8816 -0.8722
   41MOL   O15523435   4.964   1.423   5.895  0.4258  0.5783  0.2098
   41MOL   C15623436   4.998   1.400   6.028  0.0606  0.4715 -1.0705
   41MOL   O15723437   5.134   1.378   6.038 -0.0606  0.0117 -0.5994
   41MOL   C15823438   4.939   1.270   6.074 -0.2174  0.1553 -0.0284
   41MOL   O15923439   4.797   1.294   6.077  0.0387 -0.0512 -0.6334
   41MOL   H16023440   4.746   1.564   5.168  1.0599  0.5346  1.1130
   41MOL   H16123441   4.788   1.691   5.061 -0.8279 -2.0468 -1.6466
   41MOL   H16223442   4.815   1.754   5.312 -1.4229  0.5382 -1.6342
   41MOL   H16323443   5.063   1.706   5.174  0.3787 -0.4754  0.8103
   41MOL   H16423444   4.855   1.510   5.404  0.8595 -0.8501  0.0834
   41MOL   H16523445   5.006   1.539   5.315  0.0537 -0.6411  0.4440
   41MOL   H16623446   5.146   1.644   5.585 -1.1307  1.0736  2.9036
   41MOL   H16723447   5.100   1.477   5.523  1.4988  1.0018 -0.0264
   41MOL   H16823448   4.902   1.473   5.662  0.7414 -1.4562  1.5408
   41MOL   H16923449   4.926   1.632   5.719 -0.6231 -1.2653  1.8730
   41MOL   H17023450   5.147   1.454   5.795 -1.0730 -2.7310  0.5696
   41MOL   H17123451   5.071   1.593   5.878 -0.4856 -0.3466 -1.5838
   41MOL   H17223452   4.964   1.484   6.090  1.3784  1.1657 -1.2809
   41MOL   H17323453   5.156   1.302   5.987 -2.0977 -0.1105 -1.3655
   41MOL   H17423454   4.972   1.192   6.006  3.0188  1.6678 -0.3268
   41MOL   H17523455   4.987   1.256   6.170  2.3418 -0.8221 -1.3923
   41MOL   C17623456   4.752   1.336   6.209  0.0171  0.0444 -0.2467
   41MOL   C17723457   4.601   1.348   6.207  0.0064  0.3700 -0.1310
   41MOL   O17823458   4.575   1.474   6.149  0.0496 -0.5709  0.1083
   41MOL   C17923459   4.527   1.350   6.346 -0.2875  0.0614 -1.2479
   41MOL   O18023460   4.542   1.225   6.404  0.2327 -0.3214  0.2978
   41MOL   C18123461   4.508   1.220   6.535 -0.3596  0.1120  0.4122
   41MOL   C18223462   4.358   1.242   6.565  0.3116 -0.1137 -0.2655
   41MOL   C18323463   4.310   1.220   6.709 -0.0780 -0.5745  0.0027
   41MOL   O18423464   4.295   1.081   6.736  0.0454  0.4447 -0.4024
   41MOL   C18523465   4.263   1.040   6.868 -0.4344 -0.5090  0.2461
   41MOL   O18623466   4.374   1.024   6.949 -0.2855  0.0209 -0.3071
   41MOL   C18723467   4.183   0.910   6.869 -0.1731 -0.3731 -0.6780
   41MOL   O18823468   4.283   0.808   6.838  0.5183 -0.2741 -0.1301
   41MOL   H18923469   4.800   1.424   6.252 -1.3235  0.4486  0.4392
   41MOL   H19023470   4.769   1.259   6.284 -0.6563  0.0178 -0.1203
   41MOL   H19123471   4.575   1.263   6.145 -0.0562 -1.1186  1.8985
   41MOL   H19223472   4.628   1.480   6.071 -0.5409  0.9962 -0.2049
   41MOL   H19323473   4.575   1.426   6.408  0.1771 -0.7344 -0.6229
   41MOL   H19423474   4.422   1.369   6.326 -0.4575  1.5213  0.9356
   41MOL   H19523475   4.574   1.284   6.593 -0.6620 -0.8058  1.7840
   41MOL   H19623476   4.526   1.120   6.572 -2.4937 -0.2047  0.6538
   41MOL   H19723477   4.317   1.169   6.496 -0.4863 -1.0465  1.1605
   41MOL   H19823478   4.320   1.336   6.526 -1.3904 -0.7844 -0.2917
   41MOL   H19923479   4.379   1.263   6.781  1.7573 -1.9237 -0.8911
   41MOL   H20023480   4.214   1.271   6.703  0.7514  1.1886  1.4518
   41MOL   H20123481   4.210   1.129   6.901  0.4376 -1.0392  3.1678
   41MOL   H20223482   4.392   0.933   6.934  0.1121  0.1338 -0.5008
   41MOL   H20323483   4.128   0.882   6.959 -0.6008  1.9948 -0.1638
   41MOL   H20423484   4.114   0.916   6.785 -1.2145 -1.0257  0.1160
   41MOL   C20523485   4.227   0.680   6.820 -0.6018  0.6953  0.7222
   41MOL   C20623486   4.335   0.568   6.794  0.0135 -0.0477  0.8154
   41MOL   O20723487   4.267   0.447   6.758 -0.1380 -0.0422  0.0193
   41MOL   C20823488   4.433   0.598   6.683  0.1291  0.3907  0.5539
   41MOL   O20923489   4.519   0.491   6.661  0.6652 -1.0049  0.3595
   41MOL   C21023490   4.605   0.525   6.558  0.0006 -0.9634 -0.3047
   41MOL   C21123491   4.707   0.412   6.535  0.2418 -0.2929 -0.1982
   41MOL   C21223492   4.772   0.353   6.663  0.4942  0.4175 -0.1948
   41MOL   O21323493   4.853   0.462   6.712 -0.6089  0.9405  0.0485
   41MOL   C21423494   4.890   0.417   6.841  0.0670 -0.3868 -0.0947
   41MOL   O21523495   4.785   0.432   6.933  0.8985  0.0209  0.0011
   41MOL   C21623496   5.014   0.500   6.892  0.5688 -0.1615 -0.0796
   41MOL   O21723497   4.990   0.638   6.911 -0.0700  0.2014 -0.1925
   41MOL   H21823498   4.152   0.677   6.740  1.6106 -1.4571 -1.3509
   41MOL   H21923499   4.174   0.658   6.912  0.1742  2.2489  1.5606
   41MOL   H22023500   4.392   0.547   6.884 -1.4045  1.4306  2.0794
   41MOL   H22123501   4.343   0.395   6.738  1.6432  2.1906  0.7090
   41MOL   H22223502   4.379   0.626   6.593 -2.1742 -2.3587  1.0141
   41MOL   H22323503   4.481   0.692   6.710 -0.0813  0.7417 -0.2727
   41MOL   H22423504   4.661   0.614   6.587  0.7996 -2.3074  2.4729
   41MOL   H22523505   4.551   0.551   6.467  1.7185  0.6157 -0.9134
   41MOL   H22623506   4.779   0.455   6.465 -1.5546  1.8868 -0.7767
   41MOL   H22723507   4.653   0.330   6.488  0.4439 -0.6518  0.1947
   41MOL   H22823508   4.698   0.319   6.736 -0.3088  1.3555 -0.5573
   41MOL   H22923509   4.838   0.272   6.632 -0.6276 -1.4269  2.0426
   41MOL   H23023510   4.914   0.311   6.844 -1.8930 -0.8375  1.6716
   41MOL   H23123511   4.785   0.524   6.954 -2.0593 -0.0278  0.4115
   41MOL   H23223512   5.050   0.453   6.984  1.7731  2.1186  0.6424
   41MOL   H23323513   5.090   0.478   6.817  1.5077  0.1993  0.7684
   41MOL   C23423514   5.104   0.725   6.918 -0.1086  0.1217 -0.2571
   41MOL   C23523515   5.045   0.870   6.920  0.6238  0.4004  0.3453
   41MOL   O23623516   4.989   0.885   7.046 -0.4066  0.6371  0.0040
   41MOL   C23723517   4.945   0.900   6.814 -0.0268 -0.4185  0.1423
   41MOL   O23823518   4.961   1.043   6.796 -0.5440 -0.4019  0.6285
   41MOL   C23923519   4.882   1.096   6.688  0.1258 -0.9467 -1.1994
   41MOL   C24023520   4.932   1.074   6.541  1.1154  0.5944 -0.1705
   41MOL   C24123521   5.058   1.166   6.518 -1.0675 -0.0810  0.0401
   41MOL   O24223522   5.107   1.146   6.385  0.0543 -0.9800  0.0598
   41MOL   C24323523   5.218   1.222   6.356 -0.1532 -0.1193 -0.7392
   41MOL   O24423524   5.187   1.358   6.325 -0.1815 -0.1770 -0.4832
   41MOL   C24523525   5.296   1.155   6.236 -0.3121 -0.1057  0.2919
   41MOL   O24623526   5.225   1.127   6.121  0.9234  0.4783 -0.3093
   41MOL   H24723527   5.164   0.702   7.006 -0.3816 -4.6098 -1.1646
   41MOL   H24823528   5.166   0.695   6.833 -0.6806  0.0143 -0.6378
   41MOL   H24923529   5.135   0.932   6.918 -0.4362  1.9481 -0.2436
   41MOL   H25023530   4.899   0.856   7.039 -0.0209 -1.0128  1.4785
   41MOL   H25123531   4.972   0.854   6.719 -1.6365 -0.3703 -0.3592
   41MOL   H25223532   4.848   0.880   6.860 -0.3980  1.5269  0.2464
   41MOL   H25323533   4.859   1.202   6.700  2.5590 -0.2592 -2.1563
   41MOL   H25423534   4.787   1.044   6.694  0.4746 -1.4876 -0.3506
   41MOL   H25523535   4.853   1.102   6.471 -0.0094 -1.0102  0.4399
   41MOL   H25623536   4.961   0.969   6.532 -1.1057 -0.3108  2.4691
   41MOL   H25723537   5.035   1.271   6.536 -1.7030 -0.7133  3.2051
   41MOL   H25823538   5.136   1.140   6.590  0.8210  3.0076 -0.7834
   41MOL   H25923539   5.272   1.218   6.450 -0.9103 -4.2879 -0.4239
   41MOL   H26023540   5.153   1.359   6.237  0.3663  1.0469 -0.6777
   41MOL   H26123541   5.380   1.221   6.213 -2.4835  2.2833 -0.9963
   41MOL   H26223542   5.328   1.057   6.273  0.8767 -0.0943 -0.6652
   41MOL   C26323543   5.306   1.091   6.010  0.1994  0.9891 -0.2387
   41MOL   C26423544   5.221   1.059   5.887  0.7824 -0.1650  0.1373
   41MOL   O26523545   5.198   1.185   5.829 -0.4890  0.8623  0.4155
   41MOL   C26623546   5.295   0.979   5.779  0.2234  0.4864  0.3577
   41MOL   O26723547   5.211   0.958   5.659 -0.2769  0.1538 -0.1996
   41MOL   C26823548   5.275   0.906   5.542  0.1178 -0.4925  0.4572
   41MOL   C26923549   5.179   0.933   5.433 -0.1114 -0.0537  0.6634
   41MOL   C27023550   5.155   1.084   5.416 -0.0534  0.6718 -0.3638
   41MOL   O27123551   5.042   1.099   5.332  0.3392  0.0140  0.0153
   41MOL   C27223552   4.998   1.228   5.310 -0.2983  0.6346 -0.2545
   41MOL   O27323553   5.097   1.304   5.252  0.7449 -0.0434  0.0890
   41MOL   C27423554   4.861   1.213   5.234  0.1194  0.6938 -0.0860
   41MOL   O27523555   4.750   1.162   5.302 -0.3818 -0.1278 -0.3888
   41MOL   H27623556   5.364   1.003   6.039 -0.7437  0.7883  1.0791
   41MOL   H27723557   5.388   1.155   5.979  3.0347 -3.3906 -2.4132
   41MOL   H27823558   5.128   1.006   5.910  2.7047 -1.4381  5.6204
   41MOL   H27923559   5.161   1.180   5.742  0.6814  0.6001 -0.0824
   41MOL   H28023560   5.383   1.032   5.742 -0.3093  1.0286 -0.1734
   41MOL   H28123561   5.325   0.880   5.813  0.1448  0.2898 -0.1382
   41MOL   H28223562   5.291   0.800   5.564 -1.6279 -0.7356  0.6875
   41MOL   H28323563   5.372   0.946   5.516 -1.1076  0.6343 -2.6351
   41MOL   H28423564   5.082   0.895   5.464 -0.1513  0.7636  1.5486
   41MOL   H28523565   5.193   0.883   5.337 -1.1335 -0.6639  0.8254
   41MOL   H28623566   5.141   1.133   5.513  2.2999  0.4982  0.0884
   41MOL   H28723567   5.238   1.118   5.354  1.1219 -0.2948  0.6635
   41MOL   H28823568   4.974   1.268   5.408  2.1619  1.3129  0.1070
   41MOL   H28923569   5.073   1.316   5.161  0.8765  0.3397  0.1027
   41MOL   H29023570   4.819   1.309   5.203  0.5964 -0.1925 -3.6318
   41MOL   H29123571   4.878   1.149   5.148  0.3277  1.3830 -0.5638
   41MOL   C29223572   4.622   1.186   5.234  0.6322  0.4060 -0.7001
   41MOL   C29323573   4.511   1.134   5.323  0.1543  0.1578 -0.3111
   41MOL   O29423574   4.474   1.230   5.422  0.0853  0.3734  0.4418
   41MOL   C29523575   4.391   1.080   5.244  0.2724 -0.1225  0.2887
   41MOL   O29623576   4.301   1.025   5.336  0.0593 -0.0178 -0.2705
   41MOL   C29723577   4.178   0.980   5.273  0.2314  0.3431 -0.3341
   41MOL   C29823578   4.064   0.958   5.377  0.1118  0.4509  0.2904
   41MOL   C29923579   4.094   0.833   5.458  0.0337  0.3831 -0.8213
   41MOL   O30023580   4.055   0.711   5.387  0.0953 -0.4082 -0.2816
   41MOL   C30123581   4.128   0.601   5.430 -0.0635 -0.4245 -0.4004
   41MOL   O30223582   4.084   0.536   5.549 -0.7246 -1.0555 -0.0633
   41MOL   C30323583   4.128   0.498   5.314 -0.4813  0.2381 -0.3376
   41MOL   O30423584   4.242   0.533   5.231  0.1388 -0.2737  0.2774
   41MOL   H30523585   4.605   1.291   5.210  0.3002  0.3946 -0.5221
   41MOL   H30623586   4.624   1.130   5.141 -1.2034 -1.5184  0.3633
   41MOL   H30723587   4.553   1.044   5.368  0.2663 -0.8044 -2.2991
   41MOL   H30823588   4.431   1.194   5.498 -1.9533 -0.8786 -1.2111
   41MOL   H30923589   4.362   1.143   5.160  1.0746 -1.2222 -0.8251
   41MOL   H31023590   4.429   0.994   5.188  0.8172 -0.5356  1.2758
   41MOL   H31123591   4.189   0.895   5.205  1.8291  0.0695  0.2527
   41MOL   H31223592   4.151   1.065   5.210  0.6303 -0.5991 -1.8170
   41MOL   H31323593   3.970   0.942   5.325  0.5476  0.9766 -0.6853
   41MOL   H31423594   4.046   1.042   5.443 -2.2481  0.1080  0.1121
   41MOL   H31523595   4.196   0.824   5.495 -0.2623  0.5024  0.0332
   41MOL   H31623596   4.029   0.835   5.545  1.3481 -0.8699  0.2090
   41MOL   H31723597   4.233   0.619   5.452 -0.4167  0.3985  0.6380
   41MOL   H31823598   4.136   0.582   5.613 -0.3801  1.8262 -2.3044
   41MOL   H31923599   4.033   0.486   5.261 -0.7834 -0.0994  0.2807
   41MOL   H32023600   4.139   0.401   5.362 -1.6751 -0.3929 -1.3050
   41MOL   C32123601   4.240   0.454   5.115  0.2803  0.4841  0.3776
   41MOL   C32223602   4.326   0.508   5.002  1.2041 -0.1650 -0.2005
   41MOL   O32323603   4.264   0.631   4.968  0.3626  0.5881 -0.0555
   41MOL   C32423604   4.478   0.526   5.034 -0.1789  0.8257  0.4377
   41MOL   O32523605   4.560   0.517   4.913 -0.2983  0.1619  0.2614
   41MOL   C32623606   4.702   0.521   4.947  0.7865  0.5623  0.4850
   41MOL   C32723607   4.804   0.512   4.838 -0.0263  0.3767 -0.1374
   41MOL   C32823608   4.948   0.515   4.877  0.1549 -0.0964  0.3536
   41MOL   O32923609   5.036   0.541   4.765  0.0792  0.0519 -0.1404
   41MOL   C33023610   5.168   0.536   4.797  0.5269  0.3548  0.2078
   41MOL   O33123611   5.212   0.407   4.794  0.4499 -0.3390  0.1131
   41MOL   C33223612   5.256   0.617   4.695  0.4181  0.1392 -0.4755
   41MOL   O33323613   5.243   0.572   4.563  0.0829 -0.1936  0.1698
   41MOL   H33423614   4.146   0.437   5.063  0.9959  0.4049 -0.9001
   41MOL   H33523615   4.279   0.355   5.141  2.4299  1.0878 -0.5298
   41MOL   H33623616   4.307   0.448   4.914 -0.2389 -1.0195  0.6834
   41MOL   H33723617   4.252   0.677   5.049 -0.6070 -1.0963  0.7918
   41MOL   H33823618   4.518   0.435   5.080  0.7082  1.3428  0.6978
   41MOL   H33923619   4.497   0.614   5.095 -2.0246  1.6446 -0.1209
   41MOL   H34023620   4.722   0.441   5.018  1.0027  0.6494  0.5206
   41MOL   H34123621   4.715   0.620   4.993 -1.4097  0.3635  1.6514
   41MOL   H34223622   4.783   0.417   4.789  1.2343  0.1058 -0.1727
   41MOL   H34323623   4.785   0.581   4.756 -0.0098 -0.4380 -0.8341
   41MOL   H34423624   4.973   0.581   4.960 -0.0319 -0.6385  0.8404
   41MOL   H34523625   4.975   0.413   4.904  0.0429 -0.2954 -0.2773
   41MOL   H34623626   5.182   0.568   4.900  3.8832 -1.2902  0.3296
   41MOL   H34723627   5.182   0.368   4.714  1.6520  0.6238 -0.8145
   41MOL   H34823628   5.236   0.724   4.706  1.5700  0.6008 -2.5935
   41MOL   H34923629   5.361   0.601   4.719  0.4520  1.8442  0.5850
   41MOL   C35023630   5.129   0.624   4.496 -0.5813 -0.5046  0.2798
   41MOL   C35123631   5.161   0.633   4.349 -0.4452 -1.0565  0.2047
   41MOL   O35223632   5.187   0.502   4.300  0.2906 -0.3499 -0.4947
   41MOL   C35323633   5.056   0.703   4.262  0.0124  0.3623 -0.7173
   41MOL   O35423634   5.105   0.711   4.124  0.6278 -0.0963 -0.0888
   41MOL   C35523635   4.985   0.705   4.045 -0.3719 -0.1695 -0.2973
   41MOL   C35623636   5.021   0.691   3.895 -0.1925 -0.6745 -0.0071
   41MOL   C35723637   5.080   0.832   3.839 -0.9971 -0.3921 -0.2132
   41MOL   O35823638   5.068   0.832   3.702 -0.6141  0.1664  0.6497
   41MOL   C35923639   5.097   0.953   3.633  0.3737  0.4156 -0.4282
   41MOL   O36023640   5.239   0.965   3.632 -0.0301 -0.1037  0.1568
   41MOL   C36123641   5.056   0.944   3.486 -0.3987 -0.1349  0.2684
   41MOL   O36223642   4.990   1.059   3.429  0.3687 -0.3322 -0.6198
   41MOL   H36323643   5.091   0.722   4.526 -2.1742 -1.1863  0.5043
   41MOL   H36423644   5.049   0.551   4.501  0.3660 -1.5783  0.0549
   41MOL   H36523645   5.252   0.692   4.337 -1.6014  0.7365  0.0758
   41MOL   H36623646   5.194   0.454   4.381 -0.2252 -1.6797 -1.2267
   41MOL   H36723647   4.962   0.650   4.273  0.5180  0.0155  2.5143
   41MOL   H36823648   5.032   0.805   4.292 -3.0564 -0.3248 -0.6848
   41MOL   H36923649   4.921   0.788   4.074  0.0787 -0.6222  2.1580
   41MOL   H37023650   4.925   0.618   4.072 -1.7329  0.9217  0.1892
   41MOL   H37123651   4.927   0.662   3.849 -1.2762 -0.7997  2.2242
   41MOL   H37223652   5.100   0.617   3.884  0.6559  0.3069 -0.6195
   41MOL   H37323653   5.028   0.918   3.880  2.6227  2.3286 -1.0725
   41MOL   H37423654   5.185   0.824   3.868 -0.6307  0.3952 -1.3383
   41MOL   H37523655   5.065   1.038   3.692 -1.2221 -0.3443 -0.1804
   41MOL   H37623656   5.256   1.012   3.712  0.7998  1.0806 -0.7021
   41MOL   H37723657   5.143   0.932   3.422 -2.1677  1.6309 -2.5793
   41MOL   H37823658   4.996   0.855   3.464 -0.5188  0.0552 -0.1675
   41MOL   C37923659   4.846   1.060   3.419 -0.0038  0.3426  0.7620
   41MOL   C38023660   4.788   1.090   3.563 -0.2498  0.2747  0.5703
   41MOL   O38123661   4.813   1.226   3.599 -0.6837 -0.4034  0.2785
   41MOL   C38223662   4.636   1.066   3.567  0.5600  0.0698 -0.1017
   41MOL   O38323663   4.593   1.055   3.703  0.1508 -0.0419 -0.5005
   41MOL   C38423664   4.569   0.927   3.759  0.1465  0.2310  0.4551
   41MOL   C38523665   4.692   0.839   3.803 -0.9549  0.3758 -1.0613
   41MOL   C38623666   4.637   0.705   3.850 -0.2886 -0.6919 -0.0826
   41MOL   O38723667   4.622   0.614   3.743 -0.4419  0.1193 -0.7926
   41MOL   C38823668   4.515   0.526   3.738  0.0843  0.0049  0.6054
   41MOL   O38923669   4.388   0.588   3.729  0.3780 -0.7112 -0.0063
   41MOL   C39023670   4.546   0.440   3.604  0.5517 -0.5157 -0.2103
   41MOL   O39123671   4.473   0.310   3.594  0.0504  0.2274 -0.0518
   41MOL   H39223672   4.806   0.965   3.382  0.8745 -0.3547  1.5602
   41MOL   H39323673   4.809   1.129   3.344  0.3625 -0.8607 -0.5400
   41MOL   H39423674   4.839   1.029   3.637 -0.1143 -0.8149 -0.4095
   41MOL   H39523675   4.784   1.235   3.689 -0.4921 -0.0059  0.3004
   41MOL   H39623676   4.579   1.151   3.529 -0.8995 -0.2635  1.2675
   41MOL   H39723677   4.627   0.971   3.514  1.4664 -0.1974  0.2084
   41MOL   H39823678   4.508   0.867   3.693 -0.2114 -0.4049  1.3488
   41MOL   H39923679   4.514   0.939   3.853 -0.9711 -0.6191 -0.0889
   41MOL   H40023680   4.739   0.901   3.879  1.1740 -1.8587 -0.4924
   41MOL   H40123681   4.776   0.826   3.735 -0.2967  3.2919 -0.8700
   41MOL   H40223682   4.716   0.653   3.904  1.9789 -1.8381 -4.2589
   41MOL   H40323683   4.545   0.724   3.905  0.4543 -0.7766  1.1960
   41MOL   H40423684   4.517   0.470   3.831 -0.7647 -1.9051 -0.5063
   41MOL   H40523685   4.371   0.611   3.639 -2.5998 -2.4752  0.0523
   41MOL   H40623686   4.543   0.503   3.515  1.2051  0.6367  0.5558
   41MOL   H40723687   4.654   0.422   3.608  0.8575  0.9312 -1.3259
   41MOL   C40823688   4.349   0.315   3.530 -0.0395 -0.0646 -0.6180
   41MOL   C40923689   4.273   0.178   3.550 -0.1171 -0.1139 -0.0111
   41MOL   O41023690   4.256   0.156   3.684  0.5746  0.3889 -0.1382
   41MOL   C41123691   4.333   0.052   3.475 -0.3083  0.0240 -1.1705
   41MOL   O41223692   4.310   0.066   3.335  0.5616 -0.4043  0.1615
   41MOL   C41323693   4.294   7.634   3.277 -0.6388  0.0931 -0.3453
   41MOL   C41423694   4.254   7.652   3.126  0.4224  0.3312  0.7190
   41MOL   C41523695   4.375   7.683   3.039 -0.5631  0.7952  0.7981
   41MOL   O41623696   4.339   7.667   2.904  0.3001 -0.7108 -0.0227
   41MOL   C41723697   4.446   7.665   2.810  0.5053 -0.4530 -0.6243
   41MOL   O41823698   4.503   0.100   2.808 -0.1068  0.3715 -0.1590
   41MOL   C41923699   4.397   7.629   2.676 -0.4463 -0.1242  0.4491
   41MOL   O42023700   4.389   7.486   2.655 -0.1000  0.5523 -0.4771
   41MOL   H42123701   4.346   0.332   3.423 -0.6205 -1.5002 -0.8433
   41MOL   H42223702   4.286   0.398   3.563 -0.1996  0.3378 -1.9328
   41MOL   H42323703   4.182   0.211   3.502  0.5573 -0.4527 -1.5555
   41MOL   H42423704   4.333   0.186   3.730 -0.9456 -0.3375  2.9952
   41MOL   H42523705   4.438   0.034   3.496 -0.5179  1.5842  1.5101
   41MOL   H42623706   4.272   7.663   3.511  2.4699 -1.5788 -0.0566
   41MOL   H42723707   4.383   7.573   3.287 -1.8735 -1.8304 -0.8706
   41MOL   H42823708   4.229   7.567   3.334 -0.5358  0.1468 -0.1627
   41MOL   H42923709   4.181   0.038   3.110 -0.3610 -0.4542  0.2765
   41MOL   H43023710   4.199   7.568   3.083  0.2527  0.4378  0.7234
   41MOL   H43123711   4.427   0.079   3.071  0.5254 -0.1333  1.6717
   41MOL   H43223712   4.458   7.615   3.056 -1.2183 -0.0688  0.5413
   41MOL   H43323713   4.521   7.594   2.844 -1.0864 -1.8254  0.0818
   41MOL   H43423714   4.454   0.156   2.750 -1.7588  0.1485  0.9679
   41MOL   H43523715   4.296   7.670   2.675 -1.3898 -2.3659  0.9659
   41MOL   H43623716   4.461   7.676   2.602 -0.3010 -0.1457  0.5609
   41MOL   C43723717   4.274   7.460   2.571 -0.8336  0.7300  0.1295
   41MOL   C43823718   4.263   7.312   2.546 -0.0693  0.0628  0.0827
   41MOL   O43923719   4.322   7.281   2.417  0.7543 -0.9923 -0.4253
   41MOL   C44023720   4.108   7.276   2.518 -0.3248 -0.4316 -0.5429
   41MOL   O44123721   4.033   7.280   2.641 -0.0014  0.1988 -0.4544
   41MOL   C44223722   3.894   7.306   2.616 -0.6856  0.2096  0.1962
   41MOL   C44323723   3.815   7.295   2.750  0.8091 -0.2703  0.8313
   41MOL   C44423724   3.669   7.329   2.714  0.1261 -0.3905 -0.1656
   41MOL   O44523725   3.649   7.471   2.701  0.8354 -0.4985  0.2301
   41MOL   C44623726   3.513   7.512   2.696  0.0389  0.5784  0.2415
   41MOL   O44723727   3.460   7.471   2.578 -0.5332  0.2326 -0.0782
   41MOL   C44823728   3.509   7.663   2.712 -0.1616  0.0130  0.9715
   41MOL   O44923729   3.389   0.016   2.789 -0.7895 -0.4719 -0.3192
   41MOL   H45023730   4.191   7.494   2.632 -0.2471 -2.7981  3.0678
   41MOL   H45123731   4.286   7.502   2.471  0.4940  0.2631  0.0726
   41MOL   H45223732   4.301   7.252   2.628 -0.7723  0.2523  0.5489
   41MOL   H45323733   4.416   7.287   2.421  0.7773 -0.9599 -1.0374
   41MOL   H45423734   4.070   7.351   2.449 -2.5231 -0.8947  0.1185
   41MOL   H45523735   4.079   7.179   2.478 -3.2835  0.1641  0.0132
   41MOL   H45623736   3.863   7.230   2.544 -1.0993 -2.1193  2.7591
   41MOL   H45723737   3.883   7.400   2.561 -0.6204 -0.3731 -0.8276
   41MOL   H45823738   3.861   7.362   2.822 -0.7198  0.3445  1.2510
   41MOL   H45923739   3.818   7.193   2.789  2.7956 -0.7098 -0.3996
   41MOL   H46023740   3.627   7.290   2.621 -3.4227  0.8255  0.8744
   41MOL   H46123741   3.611   7.287   2.796  0.8631  2.6584  1.9863
   41MOL   H46223742   3.458   7.458   2.774  1.4422 -1.0190  0.1685
   41MOL   H46323743   3.379   7.427   2.600  0.1830 -0.4958  1.1726
   41MOL   H46423744   3.603   0.009   2.750  0.7800 -0.3485 -0.8615
   41MOL   H46523745   3.514   0.018   2.615 -0.8778 -0.5683  0.6325
   41MOL   C46623746   3.334   0.134   2.738  0.0037 -0.1346  0.5275
   41MOL   C46723747   3.406   0.257   2.791 -0.6530  0.5624 -0.3577
   41MOL   O46823748   3.347   0.368   2.733 -0.1905 -0.1249 -0.7210
   41MOL   C46923749   3.396   0.278   2.939 -0.2298  0.3382 -0.3853
   41MOL   O47023750   3.507   0.347   2.981 -0.3215 -0.3182  0.7465
   41MOL   C47123751   3.525   0.358   3.121 -0.5273 -0.8797  0.1786
   41MOL   C47223752   3.668   0.400   3.145  0.2428  0.2855 -0.3291
   41MOL   C47323753   3.706   0.541   3.101  0.1137  0.0864 -0.1728
   41MOL   O47423754   3.661   0.641   3.197 -0.0449  0.1245 -0.0368
   41MOL   C47523755   3.721   0.763   3.155  0.0282  0.3315  0.7387
   41MOL   O47623756   3.857   0.770   3.179 -0.2656  0.6283  0.5754
   41MOL   C47723757   3.646   0.878   3.221 -0.0377 -0.0515  0.0953
   41MOL   O47823758   3.696   0.895   3.351 -0.0440  0.4110  0.2449
   41MOL   H47923759   3.229   0.153   2.761 -0.8544 -0.3195 -3.0255
   41MOL   H48023760   3.325   0.126   2.630 -1.0733 -0.8251  0.6507
   41MOL   H48123761   3.511   0.255   2.759 -0.9811  0.2559 -1.4180
   41MOL   H48223762   3.391   0.444   2.768 -1.5863  0.8861 -1.1250
   41MOL   H48323763   3.302   0.322   2.971 -3.2453 -4.9909 -1.4127
   41MOL   H48423764   3.385   0.179   2.982 -0.9424  0.1169 -1.0653
   41MOL   H48523765   3.512   0.258   3.164  0.1346 -0.3266  1.6911
   41MOL   H48623766   3.453   0.430   3.159 -3.0790 -2.1607 -2.0136
   41MOL   H48723767   3.727   0.331   3.085  0.9357  1.1566 -0.6733
   41MOL   H48823768   3.714   0.388   3.243 -0.7910  0.2800  0.1651
   41MOL   H48923769   3.815   0.542   3.098  0.1430  0.8320  0.9003
   41MOL   H49023770   3.673   0.576   3.003 -1.7369 -1.6623 -0.1997
   41MOL   H49123771   3.701   0.781   3.049  0.0995 -2.8752  0.1182
   41MOL   H49223772   3.880   0.861   3.165  0.2675  0.4960  0.5600
   41MOL   H49323773   3.656   0.974   3.170 -3.1135  0.1581 -0.1771
   41MOL   H49423774   3.540   0.856   3.233  0.0734  0.0066  1.2141
   41MOL   C49523775   3.626   1.003   3.418  0.3155  0.4528  0.4152
   41MOL   C49623776   3.700   1.011   3.548  0.1467 -0.1961  0.7315
   41MOL   O49723777   3.835   1.042   3.527  0.8121 -0.5039  0.1545
   41MOL   C49823778   3.640   1.103   3.644 -0.5798  0.4876  0.9541
   41MOL   O49923779   3.514   1.067   3.676  0.2524 -0.8019 -0.2851
   41MOL   C50023780   3.447   1.156   3.762  0.2924 -0.2780  0.4137
   41MOL   C50123781   3.305   1.107   3.752 -0.1576  0.8652  0.1715
   41MOL   C50223782   3.208   1.174   3.851 -0.0657  0.1399  0.1524
   41MOL   O50323783   3.090   1.208   3.780  0.4809  0.3050 -0.4678
   41MOL   C50423784   2.990   1.261   3.857  0.1913 -0.1358  0.3407
   41MOL   O50523785   3.019   1.394   3.891  0.2734  0.1606  0.3393
   41MOL   C50623786   2.948   1.175   3.977  0.5908  0.3222 -0.1802
   41MOL   O50723787   2.926   1.041   3.930 -0.3130 -0.1874  0.4629
   41MOL   H50823788   3.520   0.982   3.435  0.4048  0.0074  0.4232
   41MOL   H50923789   3.645   1.089   3.353 -0.5361 -0.6139 -1.3051
   41MOL   H51023790   3.700   0.912   3.595  2.8303 -0.1698  0.8566
   41MOL   H51123791   3.870   0.979   3.466 -0.1960  0.0628 -1.0157
   41MOL   H51223792   3.692   1.108   3.740  0.6254  1.2842  0.2652
   41MOL   H51323793   3.642   1.206   3.609 -0.6817 -0.4107 -1.8062
   41MOL   H51423794   3.459   1.258   3.725 -0.2569 -0.2147  0.4119
   41MOL   H51523795   3.496   1.141   3.858  1.7767  1.1888 -0.0760
   41MOL   H51623796   3.302   1.001   3.777 -0.9361  1.1588  1.4032
   41MOL   H51723797   3.261   1.113   3.653 -0.6338 -1.0892  0.2535
   41MOL   H51823798   3.194   1.098   3.928 -1.4347  0.2399  0.0127
   41MOL   H51923799   3.256   1.257   3.903  1.1399 -1.5610  1.8551
   41MOL   H52023800   2.913   1.260   3.780  1.5047 -0.7511 -0.9853
   41MOL   H52123801   3.026   1.445   3.812 -1.9139  1.1959  0.7845
   41MOL   H52223802   3.032   1.164   4.045  1.1939  2.3658 -0.5620
   41MOL   H52323803   2.861   1.219   4.026  0.2583  1.1029 -1.4445
   41MOL   C52423804   2.873   0.946   4.028 -0.2619 -0.1128  0.6990
   41MOL   C52523805   2.846   0.808   3.963  0.1075  0.1040 -0.3489
   41MOL   O52623806   2.776   0.718   4.047 -0.1017  0.0564 -0.7580
   41MOL   C52723807   2.973   0.745   3.915 -0.3979 -0.3873 -0.3594
   41MOL   O52823808   2.931   0.629   3.845 -0.1662 -0.2436 -0.1878
   41MOL   C52923809   3.040   0.576   3.768 -0.7584  0.4404  0.4611
   41MOL   C53023810   2.983   0.479   3.658 -0.0547  0.0861  0.1963
   41MOL   C53123811   2.915   0.354   3.706 -0.1590  0.2901 -0.2293
   41MOL   O53223812   3.014   0.255   3.739  0.4407 -0.0268 -0.1463
   41MOL   C53323813   2.957   0.136   3.788 -0.7160  0.8858  0.0780
   41MOL   O53423814   2.913   0.058   3.681 -0.3855  0.5653  0.4753
   41MOL   C53523815   3.060   0.058   3.872  0.4248  0.3335  0.0737
   41MOL   O53623816   2.990   7.671   3.965  0.0023 -0.5962 -0.3401
   41MOL   H53723817   2.787   0.987   4.079 -0.4025  1.5858 -0.8151
   41MOL   H53823818   2.942   0.924   4.110  1.7074 -0.2332 -0.9379
   41MOL   H53923819   2.775   0.810   3.881 -0.4123 -0.3580  0.0874
   41MOL   H54023820   2.784   0.641   3.993 -0.4590 -0.4215 -0.1313
   41MOL   H54123821   3.020   0.816   3.848 -0.7634  0.6783  0.5024
   41MOL   H54223822   3.036   0.732   4.004 -1.3184  1.1453  0.5369
   41MOL   H54323823   3.110   0.528   3.836  0.4261 -1.5249 -2.0814
   41MOL   H54423824   3.078   0.655   3.703  0.1347  0.3523  0.8600
   41MOL   H54523825   3.067   0.459   3.592  0.3591  2.2547  0.0039
   41MOL   H54623826   2.902   0.532   3.607 -0.9239 -1.4080  0.0092
   41MOL   H54723827   2.857   0.379   3.795  0.0957 -1.1472  0.3706
   41MOL   H54823828   2.851   0.316   3.627  0.7054  0.1772 -0.8869
   41MOL   H54923829   2.870   0.156   3.850 -0.3041  2.5991  0.1379
   41MOL   H55023830   2.995   0.044   3.637 -0.6689  1.0736 -0.2148
   41MOL   H55123831   3.115   7.685   3.806 -0.3204 -1.6425  1.3983
   41MOL   H55223832   3.135   0.119   3.920 -0.5281 -0.7864  3.1029
   41MOL   C55323833   3.074   7.593   4.051  0.3827 -0.2119  0.1222
   41MOL   C55423834   2.984   7.516   4.143 -0.6204 -0.2110 -0.5265
   41MOL   O55523835   2.959   7.592   4.254  0.5796 -0.2658 -0.2796
   41MOL   C55623836   3.051   7.385   4.194 -0.0554  0.0579  0.1187
   41MOL   O55723837   2.948   7.308   4.243  0.2864 -0.4768  0.8507
   41MOL   C55823838   2.979   7.184   4.285 -0.1934 -0.1245 -0.2714
   41MOL   C55923839   2.848   7.121   4.334  0.1298 -0.4586 -0.4199
   41MOL   C56023840   2.868   6.988   4.412  0.5279  0.6683 -0.0293
   41MOL   O56123841   2.756   6.911   4.442  0.2294 -0.6773  0.0706
   41MOL   C56223842   2.776   6.791   4.507  0.3449 -0.2695  0.3776
   41MOL   O56323843   2.807   6.812   4.644  0.0880  0.1567  0.0058
   41MOL   C56423844   2.647   6.716   4.496  0.2205  0.4167 -0.5354
   41MOL   O56523845   2.552   6.769   4.588  0.3341 -0.7453 -0.7284
   41MOL   H56623846   3.140   7.658   4.109 -0.6789 -0.0126  1.1218
   41MOL   H56723847   3.136   7.528   3.989 -0.6410 -0.0813 -1.0342
   41MOL   H56823848   2.885   7.513   4.099 -0.8456  0.4026 -0.0707
   41MOL   H56923849   2.870   7.571   4.274  0.0686  3.1941  1.5077
   41MOL   H57023850   3.104   7.335   4.113  2.7234  1.2685  1.1153
   41MOL   H57123851   3.107   7.397   4.286  0.2457 -0.3586 -0.0121
   41MOL   H57223852   3.024   7.130   4.201  1.7376  1.4773 -0.2999
   41MOL   H57323853   3.040   7.197   4.374  1.8424 -1.1023 -1.4933
   41MOL   H57423854   2.784   7.110   4.246  0.1388  1.5703 -0.7209
   41MOL   H57523855   2.791   7.186   4.400 -1.7564 -0.9751 -1.5139
   41MOL   H57623856   2.942   6.923   4.365 -0.0979  0.6183 -0.9632
   41MOL   H57723857   2.932   7.003   4.499  1.6039  0.7577 -0.8281
   41MOL   H57823858   2.857   6.730   4.466 -0.3396 -1.9457  1.4458
   41MOL   H57923859   2.725   6.804   4.689  0.6886 -4.5010  0.5318
   41MOL   H58023860   2.604   6.729   4.396 -0.6815  1.8733  0.0309
   41MOL   H58123861   2.663   6.610   4.514 -1.1750  0.2152 -0.4266
   41MOL   H58223862   2.530   6.856   4.557 -1.9393 -0.1375  2.3689
   42MOL     C123863   5.640   2.929   7.656  0.0382 -0.5650 -0.2034
   42MOL     C223864   5.733   2.969   0.080  0.0838 -0.1415  0.0071
   42MOL     O323865   5.693   3.089   0.144 -0.3540  0.1656 -0.7602
   42MOL     C423866   5.762   2.852   0.187  0.7076 -0.6968 -0.1357
   42MOL     O523867   5.844   2.764   0.122 -1.0065 -0.0550 -0.1538
   42MOL     C623868   5.869   2.634   0.179 -0.2358 -0.7366 -0.2030
   42MOL     C723869   5.935   2.562   0.070 -0.2626 -0.2994  0.1541
   42MOL     C823870   6.007   2.430   0.108 -0.6623  0.3247  0.6473
   42MOL     O923871   6.058   2.377   7.681 -0.6489 -0.1091  0.6167
   42MOL    C1023872   6.092   2.242   7.675 -0.2533  0.3703  0.2196
   42MOL    O1123873   5.986   2.160   0.007  0.8615 -0.0666 -0.1398
   42MOL    C1223874   6.221   2.205   0.056  0.1391  0.0809 -0.8637
   42MOL    O1323875   6.333   2.270   7.688 -0.0619 -0.3856 -0.5115
   42MOL    H1423876   5.638   3.006   7.579 -0.2643 -0.3313  0.0406
   42MOL    H1523877   5.538   2.904   7.685 -0.2042  1.1193  0.4365
   42MOL    H1623878   5.826   3.000   0.032  0.3240  1.1779  1.2935
   42MOL    H1723879   5.763   3.127   0.195 -0.3630 -0.8526  0.0354
   42MOL    H1823880   5.824   2.911   0.254 -0.8680  0.3057  0.4653
   42MOL    H1923881   5.677   2.801   0.232  0.2148 -1.6186 -2.0378
   42MOL    H2023882   5.781   2.584   0.219 -0.1392 -0.1281  0.7885
   42MOL    H2123883   5.942   2.658   0.257 -0.0961  1.7067 -1.0550
   42MOL    H2223884   6.015   2.622   0.025 -1.0562  0.8815  0.2939
   42MOL    H2323885   5.866   2.542   7.682 -1.4919 -0.4227  1.1991
   42MOL    H2423886   6.081   2.440   0.187  0.7951 -2.5852 -0.2864
   42MOL    H2523887   5.929   2.364   0.147 -0.0801 -1.5197 -1.2472
   42MOL    H2623888   6.106   2.227   7.568  1.6039  4.9849 -0.3262
   42MOL    H2723889   5.946   2.135   7.620 -0.3879  1.1387  0.0852
   42MOL    H2823890   6.217   2.234   0.161 -2.2411  0.3870 -0.9966
   42MOL    H2923891   6.220   2.097   0.048 -2.5558 -0.1934  2.2540
   42MOL    H3023892   5.675   2.833   7.617  1.4917 -0.5090  0.9143
   42MOL    C3123893   6.460   2.221   0.036 -0.0826  0.0735 -0.5138
   42MOL    C3223894   6.502   2.303   0.164 -0.3338  0.8212  0.6824
   42MOL    O3323895   6.613   2.384   0.130 -0.0915  0.2299 -0.0922
   42MOL    C3423896   6.549   2.213   0.275 -0.4687  0.5943 -0.2900
   42MOL    O3523897   6.438   2.154   0.333 -0.2118  0.0791 -0.6278
   42MOL    C3623898   6.473   2.063   0.439  0.3962 -0.3316 -0.3586
   42MOL    C3723899   6.350   1.975   0.420 -0.2651  0.1897 -0.6616
   42MOL    C3823900   6.331   1.875   0.534  0.0682  0.0054  0.3052
   42MOL    O3923901   6.201   1.828   0.513  0.5589  0.3622  0.2133
   42MOL    C4023902   6.153   1.736   0.609  0.5913  0.0585  0.7100
   42MOL    O4123903   6.237   1.622   0.621 -0.3399  0.0510  0.2272
   42MOL    C4223904   6.011   1.697   0.570 -0.5595 -0.2544  0.1856
   42MOL    O4323905   5.994   1.653   0.438  0.5193  0.0707 -0.2158
   42MOL    H4423906   6.451   2.118   0.070 -0.3888  0.8820  1.9855
   42MOL    H4523907   6.538   2.226   7.655  1.5611  4.0267  1.2785
   42MOL    H4623908   6.418   2.362   0.202 -1.5671  1.2858 -2.5964
   42MOL    H4723909   6.582   2.473   0.137 -0.6474  0.0570 -0.3412
   42MOL    H4823910   6.614   2.133   0.240  0.4288  0.8935  0.6448
   42MOL    H4923911   6.608   2.272   0.346  1.6848 -0.6179 -1.0079
   42MOL    H5023912   6.483   2.115   0.534 -1.4458  1.2654 -1.0287
   42MOL    H5123913   6.570   2.014   0.425  1.9389  2.8879 -1.3898
   42MOL    H5223914   6.349   1.922   0.325 -0.6580 -0.8867 -0.0707
   42MOL    H5323915   6.262   2.038   0.404 -0.3031  0.5093  0.7741
   42MOL    H5423916   6.408   1.798   0.539  1.3709  1.2828  0.3622
   42MOL    H5523917   6.327   1.933   0.626 -0.6915 -1.9392  1.5403
   42MOL    H5623918   6.151   1.783   0.707  3.4497 -0.3456  0.9852
   42MOL    H5723919   6.205   1.553   0.564 -3.1561  0.1200  1.6198
   42MOL    H5823920   5.983   1.617   0.640  0.3154 -0.4905  0.2700
   42MOL    H5923921   5.946   1.780   0.596 -1.4464 -1.1995  1.0462
   42MOL    C6023922   5.933   1.748   0.347  0.5210  0.4423  0.0028
   42MOL    C6123923   5.917   1.681   0.212  0.3511  0.1436 -1.1184
   42MOL    O6223924   6.039   1.670   0.144 -0.2405 -0.8086 -0.4556
   42MOL    C6323925   5.827   1.750   0.106 -0.1620  0.5821  0.3170
   42MOL    O6423926   5.783   1.645   0.020  0.0998  0.1265  0.1517
   42MOL    C6523927   5.699   1.697   7.607 -0.3566 -0.1383 -0.6483
   42MOL    C6623928   5.643   1.572   7.528 -0.4509  0.1500  0.4472
   42MOL    C6723929   5.571   1.613   7.405 -0.2060  0.0094  0.2910
   42MOL    O6823930   5.676   1.638   7.303 -0.6135 -0.4403 -0.0573
   42MOL    C6923931   5.628   1.663   7.174 -0.3676 -0.4616 -0.4809
   42MOL    O7023932   5.576   1.791   7.157 -0.2976 -0.1962 -0.0234
   42MOL    C7123933   5.747   1.629   7.078  0.3485 -0.7864  0.0287
   42MOL    O7223934   5.731   1.491   7.036  0.6114  0.2360  0.4844
   42MOL    H7323935   5.980   1.845   0.329 -1.3736  1.4757  0.4994
   42MOL    H7423936   5.837   1.784   0.382  0.7681  2.7944 -1.6244
   42MOL    H7523937   5.878   1.582   0.234 -0.5475  0.5677 -0.7757
   42MOL    H7623938   6.016   1.630   0.062  1.7237  0.0711 -1.4651
   42MOL    H7723939   5.740   1.784   0.162 -0.8554 -1.0096  0.2365
   42MOL    H7823940   5.871   1.828   0.043  1.0092  0.3497  0.8447
   42MOL    H7923941   5.759   1.757   7.539  0.9448  0.3727  0.9093
   42MOL    H8023942   5.611   1.745   7.650 -0.0183 -0.1349  0.0389
   42MOL    H8123943   5.591   1.499   7.590 -1.5314 -0.2664 -0.9038
   42MOL    H8223944   5.724   1.505   7.497 -0.2479 -0.4698  2.2969
   42MOL    H8323945   5.511   1.704   7.411  2.0270  1.4772  1.2967
   42MOL    H8423946   5.503   1.531   7.382 -2.2012  1.5943  0.4106
   42MOL    H8523947   5.550   1.590   7.154 -0.1257 -0.6156 -0.8627
   42MOL    H8623948   5.640   1.852   7.190  1.8344  0.1086 -4.3817
   42MOL    H8723949   5.733   1.695   6.993 -2.9596  0.3187  1.3165
   42MOL    H8823950   5.836   1.650   7.137  0.1151 -0.5090  0.2871
   42MOL    C8923951   5.806   1.404   7.116 -0.1838 -0.1840 -0.3192
   42MOL    C9023952   5.803   1.257   7.071  0.0131 -0.1130 -0.0874
   42MOL    O9123953   5.898   1.235   6.974 -0.1665 -0.5318 -0.2315
   42MOL    C9223954   5.828   1.151   7.182  0.3035  0.1258  0.7681
   42MOL    O9323955   5.725   1.174   7.274  0.5705 -0.3391  0.2496
   42MOL    C9423956   5.758   1.129   7.401 -0.1003 -0.0135 -0.5717
   42MOL    C9523957   5.632   1.120   7.492  0.0127  0.3175 -0.1337
   42MOL    C9623958   5.652   1.050   7.629 -0.8079 -0.0482  0.6752
   42MOL    O9723959   5.730   1.128   0.025  0.2717 -0.3704 -0.1424
   42MOL    C9823960   5.708   1.080   0.153  0.1287  0.4246 -0.4245
   42MOL    O9923961   5.801   0.988   0.196 -0.8527 -0.1702 -0.0422
   42MOL   C10023962   5.716   1.204   0.248  0.0786 -0.6309  0.9542
   42MOL   O10123963   5.595   1.278   0.254 -0.0755  0.5524 -0.1585
   42MOL   H10223964   5.784   1.416   7.222 -0.3310 -1.2643 -0.2184
   42MOL   H10323965   5.907   1.445   7.120 -0.6337  0.8462  0.6658
   42MOL   H10423966   5.707   1.229   7.027  0.8291 -2.4882 -0.4482
   42MOL   H10523967   5.884   1.296   6.903 -1.1581 -1.6041 -0.9675
   42MOL   H10623968   5.838   1.044   7.163  0.6747  0.1433  0.8687
   42MOL   H10723969   5.929   1.157   7.222 -0.4297  0.9962  2.5993
   42MOL   H10823970   5.830   1.193   7.451 -0.1509  0.1810 -0.7479
   42MOL   H10923971   5.808   1.032   7.400 -0.3887 -0.1593 -1.7671
   42MOL   H11023972   5.559   1.054   7.445  0.8851 -1.2612  0.6854
   42MOL   H11123973   5.582   1.216   7.509  1.0619  0.6034  1.5326
   42MOL   H11223974   5.548   1.033   7.658 -0.6628  0.0833  1.2865
   42MOL   H11323975   5.687   0.946   7.626 -0.7594 -0.1156  2.5579
   42MOL   H11423976   5.617   1.021   0.164  0.4182  0.2251  0.9613
   42MOL   H11523977   5.881   1.037   0.209  0.3799 -1.8454 -1.0903
   42MOL   H11623978   5.729   1.167   0.349 -3.7181 -0.6888  1.4778
   42MOL   H11723979   5.799   1.263   0.208 -0.1657 -1.0408 -0.1782
   42MOL   C11823980   5.606   1.394   0.339 -0.1186 -0.3030  0.5679
   42MOL   C11923981   5.481   1.480   0.303  1.0743 -0.1810 -0.3742
   42MOL   O12023982   5.524   1.520   0.175 -0.5415  0.9990 -0.2462
   42MOL   C12123983   5.440   1.607   0.386 -0.3714  0.4802 -0.2535
   42MOL   O12223984   5.555   1.661   0.449 -0.5590  0.3702  0.3921
   42MOL   C12323985   5.522   1.775   0.529  0.3701 -0.4176  0.3869
   42MOL   C12423986   5.641   1.819   0.612  1.2229 -0.3267 -0.5081
   42MOL   C12523987   5.605   1.922   0.725 -0.3697 -0.1849 -0.3891
   42MOL   O12623988   5.719   1.954   0.803 -0.0710 -0.3605  0.1932
   42MOL   C12723989   5.751   1.862   0.903 -0.1237 -0.5155 -0.3583
   42MOL   O12823990   5.661   1.853   1.012  0.0262 -0.1101  0.3218
   42MOL   C12923991   5.888   1.894   0.949 -1.2992  0.3542 -0.1591
   42MOL   O13023992   5.968   1.773   0.947  0.2224 -1.3671 -0.4180
   42MOL   H13123993   5.602   1.371   0.445  2.3300 -0.3558  0.6748
   42MOL   H13223994   5.699   1.449   0.327  0.7663 -1.1391  3.2181
   42MOL   H13323995   5.391   1.421   0.282  0.8254 -0.3966  1.2290
   42MOL   H13423996   5.575   1.448   0.141 -0.4880  0.6005  0.6739
   42MOL   H13523997   5.387   1.675   0.320 -2.0841 -2.3000 -1.8510
   42MOL   H13623998   5.368   1.567   0.457  0.7388  1.0463  1.2394
   42MOL   H13723999   5.442   1.736   0.592  1.6226  1.2739  3.1686
   42MOL   H13824000   5.482   1.852   0.463  0.2518 -1.0839 -0.3181
   42MOL   H13924001   5.715   1.869   0.549  0.6337  1.0195 -0.1690
   42MOL   H14024002   5.682   1.725   0.650 -1.9548 -1.2272  0.8360
   42MOL   H14124003   5.580   2.015   0.674  2.5832  0.2490 -1.0838
   42MOL   H14224004   5.513   1.899   0.780 -0.5327 -2.1424 -1.4409
   42MOL   H14324005   5.750   1.765   0.853 -0.5622 -0.9492  0.4789
   42MOL   H14424006   5.650   1.937   1.053  0.8838 -0.4547  1.2788
   42MOL   H14524007   5.943   1.950   0.874 -1.1668 -0.5404 -0.7437
   42MOL   H14624008   5.886   1.951   1.042 -3.1980 -0.8475  0.5692
   42MOL   C14724009   6.006   1.732   1.074 -0.4293 -0.1243  0.7540
   42MOL   C14824010   5.904   1.645   1.146  0.5028 -0.3354  0.1207
   42MOL   O14924011   5.936   1.614   1.284 -0.1434 -0.3482  0.8407
   42MOL   C15024012   5.896   1.516   1.066  0.1948  0.0607  0.5571
   42MOL   O15124013   5.792   1.435   1.122 -0.4738  0.3053 -0.4333
   42MOL   C15224014   5.803   1.303   1.089  0.1206  0.4809 -0.4631
   42MOL   C15324015   5.671   1.238   1.136  0.3914 -0.0687 -0.1362
   42MOL   C15424016   5.645   1.249   1.279 -0.0469  0.4322 -0.4276
   42MOL   O15524017   5.537   1.174   1.320  0.7475  0.0540 -0.0480
   42MOL   C15624018   5.408   1.237   1.314 -0.1712 -0.0107  0.0439
   42MOL   O15724019   5.384   1.314   1.430  0.4037 -0.2665  0.1009
   42MOL   C15824020   5.300   1.125   1.290  0.3603 -0.4895  0.3371
   42MOL   O15924021   5.186   1.175   1.223 -0.2569  0.2061 -0.4048
   42MOL   H16024022   6.049   1.813   1.133  0.5616  0.9519 -1.3881
   42MOL   H16124023   6.099   1.677   1.066  0.0260  0.6443  0.6815
   42MOL   H16224024   5.803   1.688   1.145  1.8831  3.0677  1.1849
   42MOL   H16324025   5.892   1.532   1.300  2.8512 -1.9739  1.2093
   42MOL   H16424026   5.879   1.529   0.959  1.9473 -1.4764  0.0743
   42MOL   H16524027   5.998   1.479   1.078 -0.3520 -1.2909  1.1423
   42MOL   H16624028   5.892   1.260   1.136 -1.8568 -2.9873  0.2435
   42MOL   H16724029   5.815   1.305   0.981 -0.5475 -0.7616 -0.5621
   42MOL   H16824030   5.674   1.135   1.101 -1.4142 -0.1020 -0.2562
   42MOL   H16924031   5.588   1.282   1.081  1.2122  0.5459 -0.9022
   42MOL   H17024032   5.732   1.212   1.333 -1.4418  1.9061  2.9747
   42MOL   H17124033   5.630   1.351   1.312  0.4001  0.3845 -0.0774
   42MOL   H17224034   5.403   1.299   1.224 -3.7075  1.1238  0.9387
   42MOL   H17324035   5.292   1.302   1.452  0.2461 -2.4034 -1.5881
   42MOL   H17424036   5.351   1.046   1.236 -0.3697  0.2522 -1.4681
   42MOL   H17524037   5.273   1.075   1.383  0.4065  0.0413  0.6387
   42MOL   C17624038   5.184   1.134   1.086  0.0940 -0.6054  0.1956
   42MOL   C17724039   5.070   1.189   1.009  1.4564 -0.6825 -0.1224
   42MOL   O17824040   5.063   1.123   0.886 -0.4533  0.1851 -0.1451
   42MOL   C17924041   5.093   1.340   0.992  0.2753 -0.7934 -0.3873
   42MOL   O18024042   4.979   1.415   0.940  0.4086 -0.2771 -0.4158
   42MOL   C18124043   4.896   1.462   1.043 -0.4989 -0.0498  0.4504
   42MOL   C18224044   4.787   1.538   0.981 -0.0060  0.7181 -0.4666
   42MOL   C18324045   4.693   1.591   1.080  0.1690  0.2081  0.1147
   42MOL   O18424046   4.594   1.492   1.115 -1.1390 -0.4006  0.1528
   42MOL   C18524047   4.501   1.540   1.203  0.0581 -0.8235  0.2128
   42MOL   O18624048   4.556   1.560   1.331  0.4510 -0.0018 -0.0411
   42MOL   C18724049   4.404   1.423   1.218  0.5876 -0.3241 -0.0509
   42MOL   O18824050   4.453   1.326   1.300 -0.2879 -0.0134 -0.7264
   42MOL   H18924051   5.182   1.025   1.091  1.2938 -0.5656  1.6356
   42MOL   H19024052   5.272   1.166   1.031 -0.4238 -0.8426 -0.8007
   42MOL   H19124053   4.973   1.162   1.051  0.3542  0.2010 -1.9973
   42MOL   H19224054   5.004   1.167   0.827 -2.5148 -3.0967 -0.6512
   42MOL   H19324055   5.128   1.387   1.083 -3.8635  0.5633  0.6203
   42MOL   H19424056   5.171   1.352   0.917 -1.5915  1.8717 -1.9672
   42MOL   H19524057   4.942   1.535   1.110  1.9519  0.0508 -1.2606
   42MOL   H19624058   4.856   1.379   1.102 -3.8543  0.2838 -1.2472
   42MOL   H19724059   4.739   1.475   0.906  0.2848  0.9735 -0.8712
   42MOL   H19824060   4.831   1.623   0.929 -0.6285  1.2504 -0.1174
   42MOL   H19924061   4.748   1.646   1.156  1.3055  1.5168 -1.6097
   42MOL   H20024062   4.646   1.679   1.035  1.4542 -0.3398 -2.4413
   42MOL   H20124063   4.452   1.632   1.171 -0.3391 -1.7329 -1.8822
   42MOL   H20224064   4.585   1.477   1.365 -0.8796 -0.0099  1.1300
   42MOL   H20324065   4.315   1.465   1.266  0.3037  0.0849 -0.9121
   42MOL   H20424066   4.368   1.391   1.120 -2.4764 -2.3014  1.6298
   42MOL   C20524067   4.351   1.237   1.352  0.4110 -0.0183  0.7332
   42MOL   C20624068   4.429   1.135   1.426 -0.5320  0.4214 -0.4800
   42MOL   O20724069   4.502   1.188   1.529 -0.1455  0.6607 -0.3957
   42MOL   C20824070   4.340   1.028   1.498  0.2085  0.2350  0.2098
   42MOL   O20924071   4.381   0.896   1.467 -0.0106  0.5836  0.1438
   42MOL   C21024072   4.500   0.845   1.521 -0.0354 -0.1960  0.4353
   42MOL   C21124073   4.568   0.733   1.436 -0.3554 -0.3146  0.2323
   42MOL   C21224074   4.625   0.615   1.513 -0.3602  0.2514  0.8932
   42MOL   O21324075   4.687   0.658   1.635  0.2720 -0.1339 -0.4581
   42MOL   C21424076   4.757   0.563   1.710  0.7982  0.9388  0.3681
   42MOL   O21524077   4.762   0.587   1.850 -0.4868  0.4994  0.1728
   42MOL   C21624078   4.901   0.550   1.652 -0.0567 -0.2248  0.4037
   42MOL   O21724079   4.896   0.462   1.541 -0.2153 -0.0159  0.0253
   42MOL   H21824080   4.294   1.192   1.272 -0.7265  1.3665  0.7448
   42MOL   H21924081   4.279   1.284   1.419 -1.2704  1.3006 -1.9353
   42MOL   H22024082   4.497   1.076   1.363 -1.0746 -0.4854 -0.2237
   42MOL   H22124083   4.560   1.250   1.488  0.7672  0.1492  0.1091
   42MOL   H22224084   4.348   1.037   1.606 -2.3992  0.3569  0.4325
   42MOL   H22324085   4.234   1.042   1.477  0.1825  0.4926  0.5067
   42MOL   H22424086   4.468   0.810   1.620 -0.9334 -0.3239  0.1032
   42MOL   H22524087   4.581   0.915   1.539  1.2760 -1.8044  0.9010
   42MOL   H22624088   4.656   0.770   1.385  0.8789 -2.7523  0.4955
   42MOL   H22724089   4.505   0.676   1.366 -2.0288 -1.3292  2.4883
   42MOL   H22824090   4.543   0.545   1.529 -0.5258  0.6441  1.7987
   42MOL   H22924091   4.698   0.554   1.460  1.1938  0.8526  2.3060
   42MOL   H23024092   4.708   0.466   1.708  1.6509  0.4384  2.2183
   42MOL   H23124093   4.693   0.536   1.888 -1.1216  1.1891 -0.0316
   42MOL   H23224094   4.932   0.653   1.632  1.0964 -0.1900  2.2263
   42MOL   H23324095   4.965   0.508   1.730  0.3311 -1.4955 -0.5882
   42MOL   C23424096   5.023   0.411   1.504  0.0641 -0.1410 -0.5409
   42MOL   C23524097   5.013   0.327   1.383 -0.9404  0.4038  0.6411
   42MOL   O23624098   5.099   0.218   1.401  0.4120  0.0160  0.2663
   42MOL   C23724099   5.056   0.401   1.258  0.1779 -0.2636 -0.1849
   42MOL   O23824100   4.996   0.319   1.154  0.1733  0.6720 -0.1677
   42MOL   C23924101   5.038   0.354   1.025 -0.2821 -0.2581 -0.4563
   42MOL   C24024102   5.168   0.276   1.003 -0.2972  0.9344  0.6369
   42MOL   C24124103   5.237   0.323   0.868  0.5147 -0.9172 -0.1634
   42MOL   O24224104   5.353   0.238   0.833 -0.0446 -0.3283 -0.3247
   42MOL   C24324105   5.462   0.252   0.918 -0.2521  0.7857  0.1025
   42MOL   O24424106   5.527   0.376   0.903  0.2045 -0.4717  0.1006
   42MOL   C24524107   5.565   0.136   0.888  0.4892  0.8279 -0.4050
   42MOL   O24624108   5.501   0.011   0.898  0.1548 -0.1218 -0.1879
   42MOL   H24724109   5.084   0.499   1.485  1.6088 -1.7319 -3.4264
   42MOL   H24824110   5.063   0.358   1.590  1.1241  0.5784 -0.5903
   42MOL   H24924111   4.914   0.282   1.372 -0.6134  0.1944 -1.6475
   42MOL   H25024112   5.081   0.167   1.324  0.5068  0.1932  0.1260
   42MOL   H25124113   5.012   0.501   1.253  0.6425 -0.0643 -0.3221
   42MOL   H25224114   5.164   0.405   1.241 -0.0700 -0.8798 -2.0361
   42MOL   H25324115   5.048   0.459   0.998  1.0938 -0.4818 -0.8302
   42MOL   H25424116   4.963   0.310   0.958 -2.3347  0.2060  1.4499
   42MOL   H25524117   5.146   0.169   0.994 -4.8691  1.8975 -1.0000
   42MOL   H25624118   5.242   0.276   1.083  0.2443 -3.6615  0.2886
   42MOL   H25724119   5.171   0.314   0.782  1.0447 -0.3001 -0.6490
   42MOL   H25824120   5.265   0.429   0.863  0.7264 -0.8455  2.0733
   42MOL   H25924121   5.431   0.248   1.023  0.0670 -0.1550  0.1688
   42MOL   H26024122   5.591   0.353   0.837 -1.1391 -0.4959 -1.2112
   42MOL   H26124123   5.602   0.148   0.786 -0.5851  0.1776 -0.8819
   42MOL   H26224124   5.655   0.140   0.950  0.0328 -0.9380  0.4104
   42MOL   C26324125   5.451   7.664   1.021 -0.0944  0.0632  0.9460
   42MOL   C26424126   5.438   7.513   1.016 -0.0439 -0.1605  0.2335
   42MOL   O26524127   5.570   7.480   0.995 -0.1609 -0.0742  0.3395
   42MOL   C26624128   5.391   7.456   1.151 -0.2736 -0.5385 -0.4423
   42MOL   O26724129   5.252   7.450   1.152 -0.0666 -0.8092  0.6730
   42MOL   C26824130   5.205   7.392   1.271  0.5703 -0.3917  0.2290
   42MOL   C26924131   5.060   7.348   1.236  0.6238 -0.2934  0.2710
   42MOL   C27024132   5.017   7.239   1.341 -0.6296 -0.0462  0.1836
   42MOL   O27124133   4.887   7.199   1.311  0.2357  0.9748 -0.5140
   42MOL   C27224134   4.828   7.099   1.389  0.4105  0.6556  0.2196
   42MOL   O27324135   4.790   7.147   1.514  0.1645 -0.2403 -0.1259
   42MOL   C27424136   4.700   7.060   1.315 -0.3800 -0.7371 -0.6276
   42MOL   O27524137   4.614   7.170   1.317  0.5309 -0.1249  0.0561
   42MOL   H27624138   5.356   0.014   1.051 -0.0786  1.7407 -1.3630
   42MOL   H27724139   5.519   0.004   1.099  1.1755 -2.0911  0.8088
   42MOL   H27824140   5.373   7.478   0.935 -0.8065 -1.5715  1.4249
   42MOL   H27924141   5.605   7.543   0.933 -1.3267  1.0710  0.8345
   42MOL   H28024142   5.432   7.356   1.164 -3.5407 -1.8396  0.4204
   42MOL   H28124143   5.433   7.516   1.231  1.4531 -1.5263 -0.5822
   42MOL   H28224144   5.203   7.457   1.359 -1.0830 -1.7035  1.1993
   42MOL   H28324145   5.257   7.302   1.302  0.9832  0.1146  1.0298
   42MOL   H28424146   5.052   7.311   1.133 -1.2021  1.8944 -0.4031
   42MOL   H28524147   4.998   7.438   1.236  2.3669  1.0131 -3.0936
   42MOL   H28624148   5.084   7.154   1.348  0.1980  0.7175  1.6999
   42MOL   H28724149   5.025   7.276   1.443 -0.1258 -2.8774  1.2069
   42MOL   H28824150   4.888   7.010   1.408 -0.6420 -0.4322 -1.4187
   42MOL   H28924151   4.696   7.158   1.513 -0.1939 -2.8352 -0.5474
   42MOL   H29024152   4.722   7.010   1.221  2.5395  1.2080 -1.0283
   42MOL   H29124153   4.647   6.997   1.388 -0.1016  0.4351  0.5955
   42MOL   C29224154   4.533   7.187   1.199 -0.1960  0.1598 -0.1678
   42MOL   C29324155   4.578   7.304   1.102 -0.1344  0.4845 -0.8678
   42MOL   O29424156   4.708   7.264   1.066  0.1579 -0.2241 -0.4936
   42MOL   C29524157   4.487   7.313   0.972 -0.2499 -0.0399  0.4123
   42MOL   O29624158   4.510   7.431   0.901 -0.3240  0.1598 -0.2671
   42MOL   C29724159   4.406   7.453   0.805  0.6105 -0.1007  0.4359
   42MOL   C29824160   4.415   7.601   0.766 -0.6218  0.1002  0.3279
   42MOL   C29924161   4.548   7.621   0.702  0.2307 -0.1515  0.5728
   42MOL   O30024162   4.540   7.597   0.564  0.8412  0.1370 -0.4465
   42MOL   C30124163   4.625   7.671   0.482  0.3329  0.0477  0.1876
   42MOL   O30224164   4.753   7.642   0.519  0.8193 -0.0394  0.0146
   42MOL   C30324165   4.602   7.638   0.329  0.2879  0.2954 -0.6291
   42MOL   O30424166   4.621   0.052   0.241 -0.4996 -0.2033  0.1686
   42MOL   H30524167   4.520   7.094   1.144  1.6572 -1.6562  2.3407
   42MOL   H30624168   4.433   7.195   1.243 -0.7466  0.0178 -1.3493
   42MOL   H30724169   4.576   7.399   1.156 -1.1336 -0.6522  1.1558
   42MOL   H30824170   4.755   7.267   1.147  0.3326 -1.4228 -0.5316
   42MOL   H30924171   4.486   7.222   0.912 -1.3474 -0.0926  0.4916
   42MOL   H31024172   4.383   7.317   1.005 -2.0493 -0.9282 -4.6071
   42MOL   H31124173   4.311   7.437   0.857 -1.0287  0.5004 -2.2715
   42MOL   H31224174   4.415   7.397   0.712  0.9280  1.7207 -0.6599
   42MOL   H31324175   4.399   7.660   0.856  0.2574  1.8736 -0.6617
   42MOL   H31424176   4.345   7.638   0.691  0.8650 -0.7618 -1.5424
   42MOL   H31524177   4.574   0.032   0.715  3.5293 -0.4297 -3.0242
   42MOL   H31624178   4.624   7.559   0.748 -0.4474 -1.6512 -0.2897
   42MOL   H31724179   4.621   0.084   0.502  3.2289  0.8126 -2.9329
   42MOL   H31824180   4.779   7.572   0.461  0.2195 -1.3588  1.3092
   42MOL   H31924181   4.500   7.607   0.306 -0.0009 -1.3536  2.6256
   42MOL   H32024182   4.668   7.557   0.298 -2.1143 -1.6977 -0.7141
   42MOL   C32124183   4.525   0.151   0.233  0.9372 -0.1563 -1.1889
   42MOL   C32224184   4.411   0.104   0.141  0.3713 -0.0603  0.2672
   42MOL   O32324185   4.327   0.214   0.136 -0.6510  0.2447 -0.1940
   42MOL   C32424186   4.467   0.069   0.003 -0.0586  0.0158 -0.4517
   42MOL   O32524187   4.357   0.049   7.617 -0.0685 -0.0533 -1.1187
   42MOL   C32624188   4.392   0.010   7.485  0.3902  0.2051  0.1589
   42MOL   C32724189   4.267   7.650   7.417 -0.0978  0.3301  1.0831
   42MOL   C32824190   4.297   7.609   7.272  0.5279  0.2415 -0.1939
   42MOL   O32924191   4.183   7.544   7.218  0.0304 -0.0258 -0.0874
   42MOL   C33024192   4.194   7.409   7.194  0.2820 -0.3202 -0.8608
   42MOL   O33124193   4.206   7.338   7.313 -0.7979  0.1455  1.0274
   42MOL   C33224194   4.066   7.352   7.125  0.4517  0.5379  0.3476
   42MOL   O33324195   4.095   7.330   6.982  0.0077 -0.1576 -0.7388
   42MOL   H33424196   4.576   0.239   0.195 -0.3993  3.1624  4.2329
   42MOL   H33524197   4.479   0.177   0.328  1.5466 -3.2045  0.0072
   42MOL   H33624198   4.357   0.022   0.188  1.6119 -0.5487  0.8774
   42MOL   H33724199   4.276   0.196   0.059 -0.7531  0.2840 -0.1348
   42MOL   H33824200   4.528   7.673   0.005 -0.4997 -0.2593  1.0881
   42MOL   H33924201   4.541   0.144   7.667 -0.5611  1.2371  1.2942
   42MOL   H34024202   4.476   7.636   7.474 -1.3148 -2.0244  0.7242
   42MOL   H34124203   4.427   0.094   7.426  0.1166 -1.4122 -2.3490
   42MOL   H34224204   4.224   7.566   7.471 -3.9790  1.5652  0.0865
   42MOL   H34324205   4.197   0.039   7.422  0.1940  0.7395 -1.0395
   42MOL   H34424206   4.324   0.007   7.220  4.0946 -0.9960 -0.7234
   42MOL   H34524207   4.391   7.554   7.269  1.8693  2.4920 -1.1693
   42MOL   H34624208   4.282   7.383   7.135 -0.0233  1.6836 -2.2276
   42MOL   H34724209   4.129   7.341   7.368 -2.3659 -1.2899 -1.0086
   42MOL   H34824210   4.026   7.260   7.168  0.7510 -0.4260 -1.3646
   42MOL   H34924211   3.985   7.424   7.130 -0.8136 -0.5805 -2.6397
   42MOL   C35024212   4.013   7.233   6.928 -0.2428  0.0484 -0.6288
   42MOL   C35124213   4.010   7.236   6.775 -0.7192 -0.0484  0.4989
   42MOL   O35224214   3.923   7.340   6.738  0.1225 -0.1898  0.1742
   42MOL   C35324215   4.146   7.250   6.714  0.6418 -0.3250  0.0079
   42MOL   O35424216   4.155   7.207   6.580  0.4074 -0.0251  0.0565
   42MOL   C35524217   4.289   7.216   6.540 -0.2401  0.1724 -0.0351
   42MOL   C35624218   4.305   7.122   6.423  0.8118  0.3064 -0.4993
   42MOL   C35724219   4.446   7.112   6.355  0.3962 -0.0178 -0.5486
   42MOL   O35824220   4.551   7.081   6.452 -0.0851  0.2633  0.0555
   42MOL   C35924221   4.550   6.949   6.500  0.6844 -0.2678  0.4622
   42MOL   O36024222   4.594   6.854   6.394 -0.4710  0.6266  0.3039
   42MOL   C36124223   4.647   6.936   6.614  0.4520  0.1546 -0.6591
   42MOL   O36224224   4.766   7.003   6.589 -0.0156 -0.4833 -0.8176
   42MOL   H36324225   3.913   7.229   6.971 -0.2089  2.2654 -0.2383
   42MOL   H36424226   4.057   7.139   6.959  0.5229  0.2490 -1.0940
   42MOL   H36524227   3.960   7.143   6.748  0.2151 -0.2285 -0.6351
   42MOL   H36624228   3.841   7.304   6.705  0.2390  0.0350 -0.3740
   42MOL   H36724229   4.175   7.355   6.718  2.0016 -0.5258 -3.1278
   42MOL   H36824230   4.205   7.188   6.782  2.8039 -0.0440 -1.5729
   42MOL   H36924231   4.354   7.178   6.619 -1.1019 -1.4933 -0.0939
   42MOL   H37024232   4.310   7.321   6.521  1.6910 -0.5959 -2.5207
   42MOL   H37124233   4.229   7.155   6.352 -1.8813 -0.6010  1.8559
   42MOL   H37224234   4.276   7.024   6.463  1.7833 -0.1336 -0.8687
   42MOL   H37324235   4.433   7.028   6.287  0.6567 -0.1477 -0.4396
   42MOL   H37424236   4.473   7.199   6.294 -1.1782 -0.7004 -2.2786
   42MOL   H37524237   4.452   6.913   6.532 -0.6709 -0.0799 -3.2643
   42MOL   H37624238   4.686   6.866   6.375 -0.6364  0.3002 -0.7730
   42MOL   H37724239   4.604   6.977   6.705  1.3180  1.6068 -0.8894
   42MOL   H37824240   4.663   6.830   6.636 -0.4783 -0.0497 -0.9636
   42MOL   C37924241   4.845   7.017   6.703 -0.1809 -0.4094  0.4973
   42MOL   C38024242   4.983   7.088   6.671 -0.2539  0.8269 -0.9754
   42MOL   O38124243   4.954   7.223   6.630 -0.0598  0.2610 -0.2691
   42MOL   C38224244   5.090   7.087   6.779 -0.0933  0.5128 -0.1552
   42MOL   O38324245   5.151   6.962   6.773  0.3342 -0.0280  0.2688
   42MOL   C38424246   5.244   6.937   6.884  0.3525 -0.3876 -0.2572
   42MOL   C38524247   5.330   6.809   6.844  0.3025 -0.1933  0.2927
   42MOL   C38624248   5.416   6.774   6.958 -0.1943 -0.2799  0.3670
   42MOL   O38724249   5.498   6.660   6.963  0.5446  0.4949 -0.4892
   42MOL   C38824250   5.557   6.650   7.085  0.4944 -0.3209  0.4368
   42MOL   O38924251   5.477   6.582   7.172 -0.1417  0.0906  0.0125
   42MOL   C39024252   5.676   6.567   7.059  0.1152  0.7181 -0.8408
   42MOL   O39124253   5.633   6.437   7.026  0.8357  0.1345 -0.4889
   42MOL   H39224254   4.861   6.914   6.737  0.0075 -0.8677 -0.9566
   42MOL   H39324255   4.794   7.069   6.784 -1.4798  3.3715 -2.5996
   42MOL   H39424256   5.020   7.033   6.585 -1.1843 -0.2163 -0.7215
   42MOL   H39524257   4.861   7.237   6.619  0.1302  1.1749 -0.7051
   42MOL   H39624258   5.168   7.161   6.759 -1.0645  1.3603 -0.9059
   42MOL   H39724259   5.045   7.114   6.874 -1.2633 -2.6405  0.2457
   42MOL   H39824260   5.191   6.908   6.974  0.3259 -1.4645 -0.6049
   42MOL   H39924261   5.303   7.026   6.903  0.3592  0.1329 -2.5516
   42MOL   H40024262   5.389   6.819   6.752 -0.3673 -2.1279 -0.3650
   42MOL   H40124263   5.261   6.730   6.816  2.6647 -1.8260 -1.1656
   42MOL   H40224264   5.478   6.862   6.975 -0.7305  0.5149 -1.6836
   42MOL   H40324265   5.348   6.761   7.042 -1.6955  1.1776 -0.6096
   42MOL   H40424266   5.591   6.747   7.121  1.2954  0.3228 -1.9353
   42MOL   H40524267   5.474   6.491   7.146  1.0102  0.3053 -0.9490
   42MOL   H40624268   5.728   6.604   6.970  0.6282 -0.2544 -0.9571
   42MOL   H40724269   5.748   6.570   7.140 -0.2801  2.1528 -0.5384
   42MOL   C40824270   5.718   6.326   7.063  0.5451 -0.2143 -0.0781
   42MOL   C40924271   5.695   6.283   7.214 -0.2443  0.2524  0.1133
   42MOL   O41024272   5.787   6.362   7.291  0.0655 -0.0886 -0.0917
   42MOL   C41124273   5.716   6.136   7.230 -0.7589 -0.2539  0.4144
   42MOL   O41224274   5.640   6.093   7.339  0.3697  0.3130  0.0632
   42MOL   C41324275   5.601   5.959   7.338  0.1811  0.0622  0.7451
   42MOL   C41424276   5.520   5.907   7.458  0.0230  0.7527 -0.6031
   42MOL   C41524277   5.621   5.882   7.571 -0.6571 -0.1384  0.5048
   42MOL   O41624278   5.678   5.748   7.537  0.0954 -0.2846 -0.3352
   42MOL   C41724279   5.789   5.707   7.610  0.0507  0.0783  0.0482
   42MOL   O41824280   5.898   5.806   7.611 -0.1532 -0.9219  0.0774
   42MOL   C41924281   5.838   5.559   7.571 -0.3171  0.1747 -0.1097
   42MOL   O42024282   5.810   5.480   7.683 -0.9144 -0.4028 -0.0652
   42MOL   H42124283   5.819   6.348   7.027  0.5023  2.0376  1.1144
   42MOL   H42224284   5.686   6.251   6.991  0.1201  0.2691 -0.3928
   42MOL   H42324285   5.590   6.298   7.241 -0.9665 -0.0603 -2.4093
   42MOL   H42424286   5.769   6.338   7.380  1.8871 -0.2998  0.2574
   42MOL   H42524287   5.668   6.082   7.149 -0.7465 -0.7348  0.7251
   42MOL   H42624288   5.820   6.105   7.241 -0.5850 -0.3625 -1.3589
   42MOL   H42724289   5.535   5.957   7.251  0.4181 -0.0949  0.5662
   42MOL   H42824290   5.674   5.881   7.315 -0.0643  0.2631 -0.7944
   42MOL   H42924291   5.482   5.806   7.449  0.7844  0.3776  0.2678
   42MOL   H43024292   5.450   5.983   7.493  0.1458  0.0788  1.1879
   42MOL   H43124293   5.698   5.959   7.576 -1.4477  0.8127 -1.4477
   42MOL   H43224294   5.570   5.872   7.667 -0.8664 -0.2142  0.3863
   42MOL   H43324295   5.754   5.686   0.016 -0.7602 -0.8032 -0.4083
   42MOL   H43424296   5.952   5.774   7.682 -0.9940 -0.5921  0.8922
   42MOL   H43524297   5.774   5.533   7.487  0.3841 -0.5438 -0.4252
   42MOL   H43624298   5.940   5.563   7.535 -0.3383  2.4555  0.0193
   42MOL   C43724299   5.925   5.454   0.067 -0.0048 -0.2232 -0.0077
   42MOL   C43824300   5.968   5.556   0.166  0.4880  0.3697  0.1207
   42MOL   O43924301   6.032   5.666   0.098  0.0523  0.1403 -0.2926
   42MOL   C44024302   6.067   5.506   0.273  0.3445 -0.2704  1.0688
   42MOL   O44124303   6.183   5.471   0.195  0.4094 -0.1439  1.2766
   42MOL   C44224304   6.274   5.394   0.272  0.3974 -0.0829  0.3134
   42MOL   C44324305   6.396   5.370   0.190 -0.6146  0.3218 -0.6410
   42MOL   C44424306   6.501   5.291   0.266 -0.6140 -0.5536 -0.5766
   42MOL   O44524307   6.451   5.166   0.300  0.4818  0.5350  0.0409
   42MOL   C44624308   6.534   5.076   0.369 -0.0577 -0.3130 -0.2744
   42MOL   O44724309   6.663   5.068   0.310 -0.0880  0.5394 -0.0378
   42MOL   C44824310   6.477   4.936   0.368  0.3454  0.7014  0.5645
   42MOL   O44924311   6.552   4.859   0.470  0.2777  0.4932 -0.1321
   42MOL   H45024312   5.903   5.376   0.140  0.8102 -0.6533 -0.2069
   42MOL   H45124313   6.011   5.408   0.018 -0.5109 -0.5423 -0.6112
   42MOL   H45224314   5.875   5.584   0.214 -0.6835  0.5923 -2.1929
   42MOL   H45324315   6.116   5.632   0.072 -0.9105 -0.7387 -2.3505
   42MOL   H45424316   6.083   5.567   0.362  0.3395 -0.0204  0.8969
   42MOL   H45524317   6.015   5.427   0.328  0.2128 -0.0392  1.2729
   42MOL   H45624318   6.235   5.294   0.292 -1.7858  0.3754 -1.5026
   42MOL   H45724319   6.303   5.441   0.366 -0.8641  0.8982  0.2218
   42MOL   H45824320   6.436   5.466   0.157 -0.2681  0.5960  0.5826
   42MOL   H45924321   6.363   5.316   0.100  0.5948  0.5513 -1.2309
   42MOL   H46024322   6.592   5.301   0.206  0.8154 -0.0273  1.6143
   42MOL   H46124323   6.522   5.348   0.356  0.2327 -1.7611  0.0058
   42MOL   H46224324   6.549   5.120   0.468 -2.3786  1.0290 -0.4883
   42MOL   H46324325   6.720   5.117   0.367  0.6872 -1.4817  1.0105
   42MOL   H46424326   6.373   4.937   0.403 -0.0036 -1.2228 -0.3361
   42MOL   H46524327   6.487   4.898   0.266 -2.8641  0.3461  0.3208
   42MOL   C46624328   6.533   4.715   0.461  0.8274 -0.8287 -0.7993
   42MOL   C46724329   6.397   4.667   0.535 -0.6261  0.0195  0.7752
   42MOL   O46824330   6.297   4.679   0.444  0.6912 -0.0696 -0.0862
   42MOL   C46924331   6.409   4.517   0.576  0.4398  0.1659  0.4436
   42MOL   O47024332   6.304   4.495   0.676 -0.2755 -0.2080 -0.5002
   42MOL   C47124333   6.310   4.357   0.711 -0.6397 -1.2069 -0.3897
   42MOL   C47224334   6.190   4.330   0.802  0.3521  0.3483 -1.2504
   42MOL   C47324335   6.177   4.183   0.853  0.1526  0.5997 -0.1551
   42MOL   O47424336   6.299   4.136   0.896  0.2577 -0.4435  0.1669
   42MOL   C47524337   6.304   4.020   0.962  0.5048 -0.0940 -0.2322
   42MOL   O47624338   6.248   4.025   1.089  0.4514 -0.0956 -0.3327
   42MOL   C47724339   6.452   3.980   0.969 -0.5215  0.3175 -0.1042
   42MOL   O47824340   6.454   3.840   0.976  0.7249 -0.2593  0.3388
   42MOL   H47924341   6.614   4.672   0.521  1.3894  1.3675  0.0756
   42MOL   H48024342   6.542   4.672   0.362 -2.5736  0.0544 -1.5833
   42MOL   H48124343   6.392   4.736   0.620  0.0322  1.8547 -0.6280
   42MOL   H48224344   6.322   4.627   0.369 -0.7602 -0.6253 -0.2169
   42MOL   H48324345   6.394   4.450   0.491 -0.3726 -1.0955  1.5660
   42MOL   H48424346   6.507   4.494   0.618  0.2750 -1.9922 -0.3052
   42MOL   H48524347   6.399   4.332   0.769 -0.8987  0.3168  0.7027
   42MOL   H48624348   6.315   4.302   0.618 -1.5159  0.9669 -1.7610
   42MOL   H48724349   6.100   4.351   0.744 -0.1262 -0.8601 -0.9610
   42MOL   H48824350   6.182   4.400   0.885 -2.8875  2.0940 -2.9317
   42MOL   H48924351   6.102   4.173   0.932  0.3993 -0.3459 -0.0282
   42MOL   H49024352   6.153   4.123   0.765 -0.1220 -1.5429  1.3294
   42MOL   H49124353   6.249   3.933   0.926  1.6436 -1.7113  1.8876
   42MOL   H49224354   6.250   3.943   1.136 -1.6056 -0.7915 -1.3687
   42MOL   H49324355   6.504   4.005   0.877  0.3127 -0.0534  0.2617
   42MOL   H49424356   6.496   4.031   1.055 -0.6256 -1.3665  0.9860
   42MOL   C49524357   6.574   3.781   0.971  0.6176 -0.6707  0.7731
   42MOL   C49624358   6.567   3.624   0.978  1.0985  0.0871  0.0992
   42MOL   O49724359   6.507   3.599   1.108  0.6174  0.5334 -0.4815
   42MOL   C49824360   6.471   3.560   0.872  0.4687  0.2380 -0.4931
   42MOL   O49924361   6.510   3.589   0.739  0.0426 -0.1276 -0.1207
   42MOL   C50024362   6.408   3.569   0.649 -0.2732  0.6707  0.0846
   42MOL   C50124363   6.449   3.637   0.523  0.1352  0.4546 -0.2802
   42MOL   C50224364   6.346   3.628   0.422  0.4459 -0.2034  0.0238
   42MOL   O50324365   6.363   3.494   0.366 -0.7142  0.0193  0.2820
   42MOL   C50424366   6.300   3.462   0.247 -0.7647 -0.4981 -1.3693
   42MOL   O50524367   6.163   3.466   0.257 -0.3177 -0.2565  0.0429
   42MOL   C50624368   6.352   3.334   0.190  0.3018  0.6766  0.1363
   42MOL   O50724369   6.287   3.216   0.242  0.0998  0.3566 -0.7513
   42MOL   H50824370   6.652   3.824   1.035  2.1107 -2.6573  0.3603
   42MOL   H50924371   6.607   3.793   0.868 -0.8793 -0.3487  0.3193
   42MOL   H51024372   6.670   3.588   0.970  1.7730  2.1456 -0.7985
   42MOL   H51124373   6.419   3.633   1.101 -0.1332 -1.0954  0.7356
   42MOL   H51224374   6.456   3.453   0.884  2.4483  0.0523  0.4174
   42MOL   H51324375   6.369   3.595   0.889  0.2848 -1.2604  1.6288
   42MOL   H51424376   6.311   3.603   0.683 -0.8923 -1.2739  0.3166
   42MOL   H51524377   6.391   3.462   0.642  1.9651  0.1708  1.5759
   42MOL   H51624378   6.547   3.601   0.493  0.5577  2.2599 -1.1690
   42MOL   H51724379   6.473   3.742   0.540  1.0596  0.5073 -1.8460
   42MOL   H51824380   6.241   3.641   0.447  0.8084  1.0394  0.8920
   42MOL   H51924381   6.361   3.698   0.340 -0.9993 -0.0096 -0.0942
   42MOL   H52024382   6.328   3.546   0.184  0.1156 -0.2027 -0.5962
   42MOL   H52124383   6.139   3.377   0.280  0.3718 -0.1875  1.0114
   42MOL   H52224384   6.338   3.337   0.081 -0.3561  0.4466  0.2096
   42MOL   H52324385   6.460   3.329   0.199  0.3604  1.1338 -0.2664
   42MOL   C52424386   6.327   3.175   0.370  0.2794  0.1746 -0.4558
   42MOL   C52524387   6.277   3.035   0.408 -0.0836 -0.0099  0.5001
   42MOL   O52624388   6.139   3.049   0.414  0.0455 -0.0687 -0.6020
   42MOL   C52724389   6.320   2.980   0.542 -0.1914  0.4459  0.0197
   42MOL   O52824390   6.284   3.083   0.634 -0.2431 -0.3315 -0.1768
   42MOL   C52924391   6.353   3.069   0.756  0.1194  0.7626 -0.0911
   42MOL   C53024392   6.309   3.187   0.844  0.0378  0.0367 -0.0182
   42MOL   C53124393   6.370   3.179   0.985  0.2589  0.0235  0.1707
   42MOL   O53224394   6.335   3.295   1.064 -0.2953 -0.0682  0.1771
   42MOL   C53324395   6.389   3.297   1.189  0.5628 -0.2494  0.3088
   42MOL   O53424396   6.521   3.341   1.195  0.3894  0.2328  0.2964
   42MOL   C53524397   6.295   3.382   1.278  0.5456 -0.3425 -0.1297
   42MOL   O53624398   6.266   3.504   1.218 -0.8297  0.2435  0.0463
   42MOL   H53724399   6.295   3.249   0.443 -0.9864  0.1080 -0.9224
   42MOL   H53824400   6.436   3.178   0.371  0.4956 -3.8872 -0.9203
   42MOL   H53924401   6.304   2.963   0.330 -1.1897  2.1360 -1.9746
   42MOL   H54024402   6.118   3.067   0.504  1.3594 -1.8507  0.0735
   42MOL   H54124403   6.280   2.882   0.566  0.4954 -0.1268 -1.1349
   42MOL   H54224404   6.429   2.974   0.545 -0.1387  1.4331  0.3571
   42MOL   H54324405   6.462   3.065   0.748  0.1073  0.3629 -0.0754
   42MOL   H54424406   6.319   2.979   0.807  0.6618 -0.1964 -1.4044
   42MOL   H54524407   6.200   3.195   0.852  0.0396  0.0884 -0.0444
   42MOL   H54624408   6.331   3.289   0.813  4.1015 -0.4539  1.0306
   42MOL   H54724409   6.339   3.087   1.033  0.2946  0.3672  0.8627
   42MOL   H54824410   6.479   3.176   0.980  0.3181 -0.8052  1.6821
   42MOL   H54924411   6.391   3.195   1.228 -0.5403  1.1971  4.4510
   42MOL   H55024412   6.518   3.431   1.169 -3.2065  0.3788  0.8825
   42MOL   H55124413   6.208   3.321   1.300  0.3094  0.3371  0.8746
   42MOL   H55224414   6.333   3.396   1.379  1.3956  0.8854 -0.6050
   42MOL   C55324415   6.160   3.564   1.300  0.5324  0.3680  0.0025
   42MOL   C55424416   6.138   3.711   1.251 -0.5228  0.2350  0.3036
   42MOL   O55524417   6.256   3.790   1.242  0.3504 -0.5028  0.9398
   42MOL   C55624418   6.019   3.775   1.321  0.1400 -0.3631 -0.3210
   42MOL   O55724419   6.035   3.784   1.463  0.0106 -0.2585  0.1867
   42MOL   C55824420   5.924   3.834   1.544  0.2979  0.2381 -0.4792
   42MOL   C55924421   5.973   3.935   1.652 -0.4788  0.5322 -0.4433
   42MOL   C56024422   6.002   4.069   1.587  0.5891 -0.5349  0.2124
   42MOL   O56124423   6.024   4.175   1.678 -0.3842 -0.2084  0.4089
   42MOL   C56224424   6.030   4.303   1.618 -0.8639  0.5317  0.0543
   42MOL   O56324425   5.906   4.346   1.557 -0.3405 -0.0373  0.3822
   42MOL   C56424426   6.056   4.407   1.728 -0.4006  0.2449  0.4585
   42MOL   O56524427   5.946   4.409   1.814 -0.4463 -0.1675 -0.6065
   42MOL   H56624428   6.188   3.570   1.405 -0.1015 -0.2810  0.2124
   42MOL   H56724429   6.069   3.506   1.281  0.3388  0.2525  1.2645
   42MOL   H56824430   6.101   3.697   1.149  1.2223 -1.7925 -0.1034
   42MOL   H56924431   6.307   3.782   1.321  0.3711  1.5974  1.1602
   42MOL   H57024432   6.007   3.881   1.296 -1.1715 -0.6996 -1.1519
   42MOL   H57124433   5.924   3.722   1.307  1.3147 -2.2987 -1.0776
   42MOL   H57224434   5.831   3.861   1.493  0.7947 -0.9048 -2.0302
   42MOL   H57324435   5.893   3.740   1.591  0.5134  0.0938 -0.6224
   42MOL   H57424436   6.059   3.895   1.705 -1.5719  0.4943  1.3508
   42MOL   H57524437   5.892   3.944   1.725 -1.4160  0.6893 -1.4915
   42MOL   H57624438   6.096   4.068   1.530  1.6841 -0.3226  1.9653
   42MOL   H57724439   5.927   4.109   1.519 -0.6102 -0.8724  1.3169
   42MOL   H57824440   6.111   4.314   1.546  1.5425 -0.9299  2.4448
   42MOL   H57924441   5.856   4.385   1.627 -1.8264 -1.8604  0.3571
   42MOL   H58024442   6.152   4.381   1.774  1.1280  2.6418 -1.2708
   42MOL   H58124443   6.067   4.505   1.681  0.9449  0.7137  1.7029
   42MOL   H58224444   5.933   4.325   1.855 -2.1842  0.1246 -0.4875
   43MOL     C124445   0.404   6.227   0.957 -0.1858  0.4227  0.8521
   43MOL     C224446   0.514   6.196   0.853 -0.3676  0.5367  0.5652
   43MOL     O324447   0.498   6.060   0.817  0.2027  0.6700 -0.3171
   43MOL     C424448   0.505   6.271   0.717 -0.0211 -0.3213 -0.1983
   43MOL     O524449   0.375   6.272   0.656 -1.0412 -0.7854  0.6486
   43MOL     C624450   0.361   6.352   0.545  0.0542 -0.4125 -0.0046
   43MOL     C724451   0.239   6.305   0.467 -0.2866  0.3314  0.1465
   43MOL     C824452   0.209   6.394   0.350  0.4252  0.2795 -1.5203
   43MOL     O924453   0.315   6.403   0.253 -0.1903  0.0736  0.1089
   43MOL    C1024454   0.272   6.451   0.128  0.5638  0.0582  0.0461
   43MOL    O1124455   0.185   6.356   0.071 -0.1066 -0.7137  0.0975
   43MOL    C1224456   0.394   6.477   0.043  0.2932  0.4027 -0.3533
   43MOL    O1324457   0.453   6.606   0.061 -0.1695  0.0682 -0.6785
   43MOL    H1424458   0.307   6.225   0.908  1.3222 -1.1318 -2.2312
   43MOL    H1524459   0.419   6.320   1.013 -1.6669  0.7446  0.7341
   43MOL    H1624460   0.611   6.222   0.894 -0.1018 -0.8968  0.8854
   43MOL    H1724461   0.428   6.056   0.753 -1.6658  1.1284  1.6466
   43MOL    H1824462   0.525   6.376   0.739  0.5781  0.6497 -4.8169
   43MOL    H1924463   0.581   6.231   0.650  0.1326 -0.2573 -0.0627
   43MOL    H2024464   0.443   6.348   0.474  1.6691  1.2307  1.7155
   43MOL    H2124465   0.338   6.451   0.586 -0.3240 -1.5681  2.6416
   43MOL    H2224466   0.153   6.298   0.533 -0.6401 -0.6052 -0.4084
   43MOL    H2324467   0.259   6.202   0.437 -0.4972 -0.0513  1.2922
   43MOL    H2424468   0.114   6.351   0.318  0.8290 -1.4524 -0.4077
   43MOL    H2524469   0.198   6.494   0.393 -0.0828  0.5773 -2.3271
   43MOL    H2624470   0.217   6.544   0.141  0.9158 -0.0085  2.2093
   43MOL    H2724471   0.234   6.276   0.063  1.2559  0.1723 -0.4865
   43MOL    H2824472   0.463   6.393   0.054  1.3051  1.3111  0.2756
   43MOL    H2924473   0.364   6.488   7.633 -0.3960 -0.0918 -0.2135
   43MOL    H3024474   0.423   6.149   1.031 -1.8990  0.5073  1.3906
   43MOL    C3124475   0.538   6.618   0.171  0.2926  0.3916 -0.2748
   43MOL    C3224476   0.624   6.742   0.166 -0.3280  0.2125 -0.2755
   43MOL    O3324477   0.721   6.734   0.064 -0.4781 -0.1285 -0.1369
   43MOL    C3424478   0.701   6.781   0.297 -0.8886 -0.8081  0.2928
   43MOL    O3524479   0.748   6.917   0.289  0.0827  0.0849 -0.1728
   43MOL    C3624480   0.891   6.933   0.298  0.6168  0.9054  0.2438
   43MOL    C3724481   0.934   7.079   0.288  0.3279  0.1836 -0.7549
   43MOL    C3824482   0.901   7.162   0.415 -0.0460  0.3129  0.2326
   43MOL    O3924483   0.983   7.115   0.524  0.4199  0.1113 -0.1557
   43MOL    C4024484   0.963   7.173   0.645  0.3784 -0.4534 -0.2228
   43MOL    O4124485   1.008   7.302   0.651 -0.4767 -0.2460  0.4565
   43MOL    C4224486   1.024   7.099   0.753  0.2527 -0.5069  0.2429
   43MOL    O4324487   0.948   6.984   0.791  0.8415  0.7199 -0.1325
   43MOL    H4424488   0.479   6.626   0.263  0.8656  0.4212  0.0953
   43MOL    H4524489   0.608   6.535   0.180 -1.4761 -1.2088 -0.8483
   43MOL    H4624490   0.555   6.823   0.146  0.5804  1.7899  2.6888
   43MOL    H4724491   0.746   6.821   0.037  2.4610 -1.0748 -0.6782
   43MOL    H4824492   0.645   6.765   0.390  2.8263  1.0233  2.9755
   43MOL    H4924493   0.784   6.711   0.306 -0.8502 -0.9154 -0.8331
   43MOL    H5024494   0.946   6.894   0.212  0.4221 -0.1343  0.5879
   43MOL    H5124495   0.933   6.875   0.379  0.9635 -0.3694 -0.8287
   43MOL    H5224496   0.883   7.133   0.208 -1.3456 -1.7020 -0.9806
   43MOL    H5324497   1.039   7.084   0.260  0.4275  0.3360 -0.3612
   43MOL    H5424498   0.910   7.270   0.402  1.6351  0.5167  2.6646
   43MOL    H5524499   0.798   7.138   0.440  0.2595 -1.2082  0.0687
   43MOL    H5624500   0.856   7.188   0.663  1.2902  4.1155  2.3250
   43MOL    H5724501   1.099   7.315   0.634 -1.4928  2.7802 -3.3334
   43MOL    H5824502   1.132   7.087   0.744  0.4567  2.5341 -2.0590
   43MOL    H5924503   1.019   7.169   0.836  0.3614  2.1418 -1.8914
   43MOL    C6024504   0.989   6.884   0.705 -0.2442 -0.4690 -0.3839
   43MOL    C6124505   0.921   6.756   0.768  0.2359  0.1446  0.0746
   43MOL    O6224506   1.001   6.704   0.874  0.4111 -0.0129 -0.1214
   43MOL    C6324507   0.896   6.636   0.672 -0.4640  0.0754 -0.3118
   43MOL    O6424508   1.012   6.598   0.606 -1.1454  0.3268  0.5814
   43MOL    C6524509   0.993   6.502   0.500 -0.3334  0.1447  0.5482
   43MOL    C6624510   1.099   6.518   0.389  0.6222  0.1038  0.0302
   43MOL    C6724511   1.063   6.435   0.263  0.0911 -0.0907  0.1088
   43MOL    O6824512   0.944   6.483   0.208 -0.4587 -0.0031 -0.5645
   43MOL    C6924513   0.934   6.448   0.075  0.1986  0.1560  0.4263
   43MOL    O7024514   0.798   6.444   0.039  0.2182  0.1017 -0.5816
   43MOL    C7124515   1.017   6.551   7.686  0.1774  0.1794  0.5438
   43MOL    O7224516   1.120   6.485   7.614 -0.2699 -0.3230 -0.4273
   43MOL    H7324517   1.097   6.872   0.697  0.1578  1.9394  0.8635
   43MOL    H7424518   0.947   6.897   0.605 -3.0858  1.3475  0.9660
   43MOL    H7524519   0.825   6.786   0.811  1.0626  3.9849 -0.5536
   43MOL    H7624520   1.088   6.705   0.837  0.3541  1.1409 -0.2385
   43MOL    H7724521   0.841   6.557   0.722  2.3355 -1.2009  0.8458
   43MOL    H7824522   0.825   6.677   0.601  0.5642  1.7869 -0.3892
   43MOL    H7924523   0.890   6.508   0.463  0.3736  1.3029 -1.3302
   43MOL    H8024524   0.990   6.400   0.537  0.2310 -0.1608 -0.2396
   43MOL    H8124525   1.200   6.497   0.425  0.8554 -2.6785 -2.0994
   43MOL    H8224526   1.105   6.624   0.363  0.3658  0.1441  0.1298
   43MOL    H8324527   1.050   6.328   0.277  0.8137 -0.2029 -0.0363
   43MOL    H8424528   1.145   6.454   0.193 -0.8376 -0.1896 -1.0357
   43MOL    H8524529   0.976   6.348   0.063 -0.7268 -0.3447  1.3168
   43MOL    H8624530   0.766   6.532   0.051  1.5884  0.2816  2.2764
   43MOL    H8724531   0.955   6.607   7.616  1.0185  1.7284  1.0159
   43MOL    H8824532   1.069   6.619   0.059  2.2041 -0.4231 -0.3832
   43MOL    C8924533   1.183   6.558   7.514 -0.5468 -0.2047 -0.1033
   43MOL    C9024534   1.248   6.695   7.551  0.5320 -0.2952 -0.6995
   43MOL    O9124535   1.362   6.706   7.463  0.7529 -0.0679  0.0201
   43MOL    C9224536   1.148   6.803   7.504 -0.2909  0.9811 -0.2002
   43MOL    O9324537   1.164   6.911   7.583 -0.0446  0.8209  0.0770
   43MOL    C9424538   1.085   7.028   7.558  1.0549  0.0495  0.8986
   43MOL    C9524539   0.939   7.008   7.611  0.2017 -0.0040 -0.7310
   43MOL    C9624540   0.846   7.124   7.578  0.5672  0.1711 -0.0176
   43MOL    O9724541   0.729   7.093   7.645 -0.2431 -0.2507  0.6808
   43MOL    C9824542   0.651   7.199   7.686  0.1126  0.1131  0.4723
   43MOL    O9924543   0.629   7.286   7.580  0.4985 -0.0217  0.2798
   43MOL   C10024544   0.515   7.138   0.050  0.2687  0.2990  0.9781
   43MOL   O10124545   0.463   7.041   7.663  0.2367 -0.1529  0.8232
   43MOL   H10224546   1.114   6.576   7.432 -0.9991 -1.2866  0.0408
   43MOL   H10324547   1.267   6.498   7.480  0.5936  1.3774 -0.1424
   43MOL   H10424548   1.273   6.692   7.657  3.0209  0.6320 -1.2160
   43MOL   H10524549   1.413   6.774   7.504  0.8207 -0.1665  0.0979
   43MOL   H10624550   1.184   6.829   7.405  0.1531 -0.7549 -0.5104
   43MOL   H10724551   1.043   6.772   7.503  0.0876 -0.4501  1.3111
   43MOL   H10824552   1.072   7.038   7.451 -0.1535  2.6821  1.2576
   43MOL   H10924553   1.140   7.111   7.602  1.3400 -0.5185  1.6345
   43MOL   H11024554   0.949   6.993   0.024  1.5189  1.0919 -0.6938
   43MOL   H11124555   0.903   6.913   7.571  0.0316 -0.8437  1.3291
   43MOL   H11224556   0.894   7.213   7.620 -0.4870  0.8078 -0.1598
   43MOL   H11324557   0.828   7.130   7.471 -0.2993 -1.6704  0.0123
   43MOL   H11424558   0.709   7.260   0.062  2.1034 -1.4425  0.2307
   43MOL   H11524559   0.538   7.276   7.555  0.7664 -1.4254 -0.1808
   43MOL   H11624560   0.547   7.109   0.150 -1.7627  1.0373  1.8529
   43MOL   H11724561   0.451   7.222   0.076 -1.9061 -1.7764  2.4564
   43MOL   C11824562   0.322   7.026   7.687  0.7029  0.1109 -0.8004
   43MOL   C11924563   0.274   6.906   7.605  0.6529  0.4474  0.6014
   43MOL   O12024564   0.294   6.945   7.475 -0.0090  0.4606 -0.1702
   43MOL   C12124565   0.121   6.875   7.623  0.0506 -0.3839  0.8836
   43MOL   O12224566   0.044   6.996   7.622  0.5203  0.1971  0.9176
   43MOL   C12324567   7.606   6.962   7.613  0.4123 -0.2230  0.3521
   43MOL   C12424568   7.522   7.084   7.590  0.5442  0.7686  0.2245
   43MOL   C12524569   7.376   7.046   7.608  0.1439  0.2070 -0.8818
   43MOL   O12624570   7.296   7.152   7.553 -0.2822  0.6964 -0.4550
   43MOL   C12724571   7.161   7.115   7.522 -0.7927 -0.3565  0.1030
   43MOL   O12824572   7.110   7.180   7.405  0.1417  0.4787  0.7449
   43MOL   C12924573   7.060   7.148   7.636  0.1399 -0.0886  0.4745
   43MOL   O13024574   7.045   7.286   7.643  0.1100  0.0134 -0.0766
   43MOL   H13124575   0.296   6.997   0.094  0.2500  0.6913 -0.7504
   43MOL   H13224576   0.261   7.109   7.651  1.0619  0.7772  0.1186
   43MOL   H13324577   0.324   6.812   7.629  0.5405  0.7793  2.2322
   43MOL   H13424578   0.348   7.022   7.482  2.0915 -1.1298  1.8828
   43MOL   H13524579   0.082   6.815   7.541  0.8446 -0.2728  0.4295
   43MOL   H13624580   0.102   6.810   0.014  1.9779  1.1166  2.5058
   43MOL   H13724581   7.583   6.912   0.013 -0.0530 -0.7722 -0.0471
   43MOL   H13824582   7.582   6.894   7.532  0.3827 -1.4598  1.3785
   43MOL   H13924583   7.535   7.127   7.491  0.9240  0.1377  0.0001
   43MOL   H14024584   7.545   7.159   7.665 -0.3278  0.8125  0.4521
   43MOL   H14124585   7.358   6.954   7.552  1.7755 -0.6150 -0.0744
   43MOL   H14224586   7.361   7.036   0.021 -1.3145  1.0014 -0.9979
   43MOL   H14324587   7.161   7.006   7.515  1.3643 -0.4779  1.4935
   43MOL   H14424588   7.079   7.264   7.436 -1.4011  0.0133  0.5144
   43MOL   H14524589   6.962   7.105   7.613  0.4293 -1.8354  2.3682
   43MOL   H14624590   7.101   7.117   0.037 -1.3146  0.9093  1.4489
   43MOL   C14724591   6.949   7.343   0.045 -0.0124 -0.6976  0.0013
   43MOL   C14824592   6.945   7.501   0.032  0.7611  0.2033 -0.2973
   43MOL   O14924593   6.892   7.535   7.602 -0.0691 -0.1200  0.1385
   43MOL   C15024594   7.078   7.574   0.046 -0.4067 -0.0123 -0.5949
   43MOL   O15124595   7.117   7.591   0.180 -0.1622 -0.0041 -0.1995
   43MOL   C15224596   7.206   0.010   0.189 -0.3874  0.2303 -0.5084
   43MOL   C15324597   7.273   0.010   0.331 -0.4120 -0.7396  0.1227
   43MOL   C15424598   7.387   0.104   0.349 -0.5034  0.0850 -0.0286
   43MOL   O15524599   7.337   0.235   0.327 -0.0541 -0.1102 -0.2391
   43MOL   C15624600   7.425   0.336   0.289 -0.0103  0.6409 -0.4699
   43MOL   O15724601   7.508   0.385   0.397 -0.2133 -0.0696 -0.0361
   43MOL   C15824602   7.333   0.450   0.220  0.2438 -0.4136 -0.9070
   43MOL   O15924603   7.231   0.488   0.312  0.0943  0.6134  0.1763
   43MOL   H16024604   6.970   7.304   0.145 -1.5503 -0.7681  0.3078
   43MOL   H16124605   6.848   7.320   0.010 -0.6911  1.9851  0.0891
   43MOL   H16224606   6.873   7.536   0.107  0.7000  3.7545 -1.8949
   43MOL   H16324607   6.959   7.516   7.539  0.4781  0.2865  0.5934
   43MOL   H16424608   7.156   7.535   7.675  0.6442  1.4474 -0.2421
   43MOL   H16524609   7.075   7.669   7.686 -2.3496 -0.1884 -0.8314
   43MOL   H16624610   7.148   0.103   0.187 -0.1089  0.4333  0.8727
   43MOL   H16724611   7.279   0.010   0.108 -0.5410  1.6620 -0.6657
   43MOL   H16824612   7.313   7.608   0.364  0.1287  0.1597  2.1663
   43MOL   H16924613   7.193   0.035   0.400 -2.3290 -0.3640 -2.1660
   43MOL   H17024614   7.425   0.104   0.451  1.5328 -0.3049 -0.7530
   43MOL   H17124615   7.476   0.072   0.295 -0.2847 -0.0818  0.4263
   43MOL   H17224616   7.489   0.295   0.211 -2.1759 -2.0305 -0.9293
   43MOL   H17324617   7.448   0.396   0.469  0.6797  1.8207  0.4291
   43MOL   H17424618   7.397   0.537   0.203 -0.4117 -0.1812 -2.2775
   43MOL   H17524619   7.284   0.422   0.127 -1.8194  0.7336 -0.1908
   43MOL   C17624620   7.147   0.598   0.270  0.3617  0.2923 -0.2412
   43MOL   C17724621   7.045   0.640   0.373  0.1951  0.1998 -0.2059
   43MOL   O17824622   7.117   0.680   0.489  0.3037 -0.3059  0.2773
   43MOL   C17924623   6.962   0.527   0.417  0.4992  0.4894  0.4958
   43MOL   O18024624   6.825   0.549   0.408 -0.1367  0.0908 -0.2667
   43MOL   C18124625   6.745   0.442   0.459 -0.4053 -0.2740 -0.3055
   43MOL   C18224626   6.594   0.456   0.417  1.2955 -0.0753  0.6445
   43MOL   C18324627   6.504   0.352   0.484  0.0981  0.4345 -0.3408
   43MOL   O18424628   6.393   0.330   0.403 -0.1996  0.0165  0.5127
   43MOL   C18524629   6.315   0.217   0.445  0.7211 -0.2978 -0.0818
   43MOL   O18624630   6.388   0.094   0.426 -0.1185 -0.2794 -0.5542
   43MOL   C18724631   6.181   0.205   0.359 -0.2337  0.3768  0.1567
   43MOL   O18824632   6.104   0.100   0.420  0.7384  0.1548  0.0859
   43MOL   H18924633   7.103   0.568   0.175  1.6441  0.1427 -0.8002
   43MOL   H19024634   7.210   0.682   0.244 -0.5963  0.6361 -1.4958
   43MOL   H19124635   6.990   0.727   0.338  0.0708  0.9700  1.8361
   43MOL   H19224636   7.199   0.712   0.453  0.3988  0.2270  0.9554
   43MOL   H19324637   6.986   0.441   0.354  1.9174  0.1374  1.5119
   43MOL   H19424638   6.979   0.506   0.523  0.1313  1.9882  0.8692
   43MOL   H19524639   6.755   0.444   0.568  0.1361 -2.0341 -0.3044
   43MOL   H19624640   6.783   0.344   0.429 -0.8710 -0.6554  0.3293
   43MOL   H19724641   6.591   0.446   0.308 -1.3190  0.5444  0.6265
   43MOL   H19824642   6.555   0.554   0.444 -0.1152 -0.0248 -1.4535
   43MOL   H19924643   6.558   0.258   0.488 -0.2846  0.1533 -1.4549
   43MOL   H20024644   6.469   0.393   0.579 -2.7369 -1.6404 -0.4286
   43MOL   H20124645   6.301   0.220   0.553 -1.8926 -2.0226 -0.3250
   43MOL   H20224646   6.323   0.032   0.396  2.1707 -2.2737 -1.6328
   43MOL   H20324647   6.122   0.297   0.364  1.7752  1.6134  2.0583
   43MOL   H20424648   6.220   0.182   0.260  1.1353 -1.2533  1.0548
   43MOL   C20524649   6.038   0.013   0.327  0.2848 -0.2613 -0.3668
   43MOL   C20624650   6.115   7.575   0.346 -0.2152 -0.0237  0.3992
   43MOL   O20724651   6.250   7.603   0.310 -0.2090 -0.2766 -0.2232
   43MOL   C20824652   6.116   7.521   0.491  0.2138 -0.7017 -0.3438
   43MOL   O20924653   6.153   7.384   0.471 -0.1639 -0.2917 -0.5570
   43MOL   C21024654   6.158   7.329   0.598 -0.0451  0.2335 -0.0781
   43MOL   C21124655   6.193   7.188   0.596  0.4387  0.2432  0.7309
   43MOL   C21224656   6.197   7.118   0.731 -0.2950  1.1424 -0.1273
   43MOL   O21324657   6.309   7.165   0.800 -0.3568  0.3527 -0.0269
   43MOL   C21424658   6.343   7.090   0.912 -0.1125 -0.5653 -0.5350
   43MOL   O21524659   6.245   7.101   1.011  0.1475  0.6194  0.1206
   43MOL   C21624660   6.485   7.141   0.971 -0.1106  0.3654  0.2738
   43MOL   O21724661   6.593   7.080   0.907  0.6156 -0.4196  0.0357
   43MOL   H21824662   6.053   0.057   0.229  1.6136  0.5777  0.2028
   43MOL   H21924663   5.933   7.693   0.353  0.2200  2.7402  1.2371
   43MOL   H22024664   6.069   7.512   0.271  0.3169  1.4048 -1.1598
   43MOL   H22124665   6.285   7.518   0.289 -0.3438 -0.2471 -0.5644
   43MOL   H22224666   6.179   7.578   0.559  2.0391 -2.1472 -0.7708
   43MOL   H22324667   6.013   7.533   0.522  0.5576 -2.0975  1.4016
   43MOL   H22424668   6.068   7.336   0.659  0.5504  0.3960  0.7762
   43MOL   H22524669   6.243   7.382   0.641  2.2278 -1.1852 -2.6286
   43MOL   H22624670   6.294   7.185   0.554  0.0126 -0.8247 -0.2329
   43MOL   H22724671   6.124   7.134   0.531 -1.0932  0.3523  2.2320
   43MOL   H22824672   6.103   7.110   0.785 -0.5016 -0.1923 -0.6572
   43MOL   H22924673   6.222   7.013   0.716 -3.7690  0.1935  0.2434
   43MOL   H23024674   6.349   6.983   0.895  0.4030 -0.6946  0.4519
   43MOL   H23124675   6.266   7.186   1.047 -1.4711  1.1445 -0.1259
   43MOL   H23224676   6.482   7.249   0.957  4.1872  0.6813  1.3320
   43MOL   H23324677   6.482   7.122   1.079 -1.8010  0.0035  0.1877
   43MOL   C23424678   6.612   7.121   0.770 -0.2018 -0.4550  0.3736
   43MOL   C23524679   6.744   7.071   0.706  0.6730 -0.0576 -0.7394
   43MOL   O23624680   6.817   7.167   0.630  0.2263 -0.0488 -0.3347
   43MOL   C23724681   6.721   6.956   0.610  0.0157  0.2838 -0.6651
   43MOL   O23824682   6.840   6.897   0.563  0.4576  0.3867 -0.2753
   43MOL   C23924683   6.845   6.758   0.541 -0.9683 -0.3377  0.5157
   43MOL   C24024684   6.942   6.688   0.638 -0.1969 -0.3495  0.1100
   43MOL   C24124685   7.092   6.727   0.613  0.5907  1.0837 -0.0596
   43MOL   O24224686   7.172   6.631   0.676  0.0802 -0.0638 -0.0898
   43MOL   C24324687   7.303   6.651   0.649  0.4099  0.0973  0.2140
   43MOL   O24424688   7.339   6.616   0.516 -0.0401  0.0031  0.3664
   43MOL   C24524689   7.378   6.552   0.743 -0.0788 -0.1488 -0.1296
   43MOL   O24624690   7.507   6.600   0.752 -0.0401 -0.1049  0.2275
   43MOL   H24724691   6.530   7.093   0.704  0.6480  0.6399 -1.1683
   43MOL   H24824692   6.629   7.229   0.770 -2.4153 -0.0316 -2.2745
   43MOL   H24924693   6.818   7.050   0.782  0.6357 -0.0387 -0.6977
   43MOL   H25024694   6.872   7.107   0.582 -0.3117 -1.0174  0.2404
   43MOL   H25124695   6.667   6.876   0.660 -0.2998 -0.8475 -2.7351
   43MOL   H25224696   6.678   6.992   0.516 -3.0058 -0.8031  0.2431
   43MOL   H25324697   6.888   6.740   0.442 -0.2130 -0.2592  0.8339
   43MOL   H25424698   6.743   6.718   0.545 -0.6990 -0.9457  1.5483
   43MOL   H25524699   6.922   6.583   0.618 -0.1530 -0.0417 -1.6184
   43MOL   H25624700   6.916   6.707   0.742 -2.0937 -0.9496 -0.2437
   43MOL   H25724701   7.106   6.736   0.506  0.3025 -4.1486 -0.6666
   43MOL   H25824702   7.094   6.825   0.661 -0.4996  1.5229 -0.9156
   43MOL   H25924703   7.331   6.754   0.674 -0.7257  0.7156 -1.0215
   43MOL   H26024704   7.329   6.523   0.504  2.3525 -0.0092 -2.0582
   43MOL   H26124705   7.333   6.548   0.842 -0.5112 -1.9073 -0.3580
   43MOL   H26224706   7.366   6.452   0.699 -0.5158 -0.1280 -0.0678
   43MOL   C26324707   7.596   6.527   0.834 -0.1632 -0.3404 -0.2559
   43MOL   C26424708   0.041   6.586   0.825 -0.5452  0.1850 -0.4091
   43MOL   O26524709   0.040   6.708   0.883 -0.0128 -0.0949 -0.1516
   43MOL   C26624710   0.154   6.505   0.904  0.7835 -0.2797  0.2220
   43MOL   O26724711   0.289   6.532   0.872 -0.1891 -0.4237  0.4156
   43MOL   C26824712   0.323   6.670   0.863 -0.0713  1.1312 -0.0747
   43MOL   C26924713   0.474   6.694   0.833  0.3489 -0.0147 -1.0422
   43MOL   C27024714   0.519   6.839   0.826 -0.6465 -0.3395 -0.0069
   43MOL   O27124715   0.525   6.907   0.951  0.0446 -0.0783 -0.6735
   43MOL   C27224716   0.565   7.042   0.955 -0.0020 -0.2636  0.0625
   43MOL   O27324717   0.488   7.120   0.868  0.4538  0.2857  0.1495
   43MOL   C27424718   0.564   7.106   1.098  0.5088  0.0201 -0.0883
   43MOL   O27524719   0.441   7.083   1.162  0.1351  0.5468 -0.1725
   43MOL   H27624720   7.591   6.420   0.813  0.3315 -0.1116 -1.6028
   43MOL   H27724721   7.555   6.536   0.934  2.1619  1.6580  0.5552
   43MOL   H27824722   0.060   6.595   0.718 -1.5960 -1.3007 -0.7184
   43MOL   H27924723   0.009   6.699   0.972 -0.2703 -1.4213 -0.3657
   43MOL   H28024724   0.134   6.530   1.008 -2.0377  0.2079 -0.3826
   43MOL   H28124725   0.137   6.398   0.888  3.4148 -0.8754  1.1234
   43MOL   H28224726   0.308   6.720   0.959 -1.1244 -0.0756  0.4022
   43MOL   H28324727   0.264   6.721   0.786  1.8222  0.9727 -1.6728
   43MOL   H28424728   0.495   6.646   0.737 -2.4305 -1.8943 -0.7827
   43MOL   H28524729   0.535   6.636   0.902  0.0727 -0.0181 -0.7972
   43MOL   H28624730   0.620   6.842   0.784 -0.8312 -0.1817 -0.4405
   43MOL   H28724731   0.450   6.890   0.759 -0.2549  2.0640  1.3537
   43MOL   H28824732   0.670   7.046   0.928 -0.0338  0.6358  0.0395
   43MOL   H28924733   0.403   7.118   0.909  0.4199  1.3184  0.1453
   43MOL   H29024734   0.654   7.071   1.150  0.5488  0.5838  0.2292
   43MOL   H29124735   0.575   7.213   1.082 -0.7776  0.4832  1.9975
   43MOL   C29224736   0.427   7.163   1.276 -0.6214 -0.3331 -0.0132
   43MOL   C29324737   0.291   7.154   1.340 -0.0967  0.3391  0.1695
   43MOL   O29424738   0.286   7.031   1.419 -0.3946  0.0496 -0.2562
   43MOL   C29524739   0.254   7.274   1.428  0.2531 -0.9789 -0.4582
   43MOL   O29624740   0.340   7.272   1.540  0.4162 -0.6580  0.2204
   43MOL   C29724741   0.330   7.389   1.622 -0.2728  0.2982 -0.6670
   43MOL   C29824742   0.446   7.380   1.720 -0.0008 -0.5020 -0.4805
   43MOL   C29924743   0.469   7.509   1.799  0.1106 -0.4385  0.2145
   43MOL   O30024744   0.576   7.494   1.886  0.5253 -0.3164 -0.3377
   43MOL   C30124745   0.617   7.609   1.955  0.1423  0.4566  0.2907
   43MOL   O30224746   0.531   7.649   2.055 -0.5852  0.3365 -0.8280
   43MOL   C30324747   0.755   7.567   2.027  0.0224  0.2672 -0.2728
   43MOL   O30424748   0.857   7.597   1.938 -0.2070  0.1571  0.5317
   43MOL   H30524749   0.508   7.148   1.348 -1.4737  1.6506  1.4156
   43MOL   H30624750   0.431   7.268   1.250  0.1480  0.1369  1.9262
   43MOL   H30724751   0.218   7.149   1.259 -0.4309 -1.7472  0.5798
   43MOL   H30824752   0.258   7.050   1.508  3.3349 -0.7010  1.1803
   43MOL   H30924753   0.271   7.366   1.371  0.5652  0.6677  2.2332
   43MOL   H31024754   0.148   7.285   1.453  0.1160  1.2283 -1.8567
   43MOL   H31124755   0.235   7.392   1.675  0.7184 -0.9333  1.2345
   43MOL   H31224756   0.344   7.477   1.559 -0.0183  0.4638 -0.3769
   43MOL   H31324757   0.529   7.363   1.652 -1.7769  1.0111 -3.1300
   43MOL   H31424758   0.440   7.291   1.783  0.4742  0.2484  0.6361
   43MOL   H31524759   0.488   7.582   1.720 -1.9030 -1.2255 -1.0539
   43MOL   H31624760   0.381   7.548   1.850  0.4402  0.0348  0.4262
   43MOL   H31724761   0.632   0.003   1.893 -0.5466  0.2434 -0.1902
   43MOL   H31824762   0.543   7.577   2.115  0.8284  1.6632  0.5293
   43MOL   H31924763   0.747   7.463   2.056  1.1014  0.9790  2.7127
   43MOL   H32024764   0.763   7.633   2.113 -0.1755 -0.6846  0.4798
   43MOL   C32124765   0.935   7.487   1.879  0.1153 -1.0160 -0.2596
   43MOL   C32224766   0.877   7.439   1.740  0.5454 -0.3080 -0.0943
   43MOL   O32324767   0.775   7.348   1.778  0.0613  0.7171 -0.5550
   43MOL   C32424768   0.814   7.538   1.632 -0.1775  0.0257 -0.3441
   43MOL   O32524769   0.787   7.468   1.515  0.2327  0.4705 -0.2910
   43MOL   C32624770   0.762   7.562   1.411  0.1069  0.3899 -0.2119
   43MOL   C32724771   0.742   7.491   1.280 -0.0248 -0.5234 -0.1568
   43MOL   C32824772   0.700   7.586   1.170 -0.2451 -0.0400  0.5880
   43MOL   O32924773   0.698   7.508   1.049  0.5031  0.0592  0.2401
   43MOL   C33024774   0.697   7.573   0.931  0.1122 -0.0018 -0.3571
   43MOL   O33124775   0.810   7.650   0.912 -0.4686  0.0179  0.0706
   43MOL   C33224776   0.690   7.467   0.826 -0.0062 -0.2900 -0.2061
   43MOL   O33324777   0.665   7.513   0.691 -0.2962 -0.0421 -0.6263
   43MOL   H33424778   0.945   7.402   1.948  1.1227 -0.0218  0.8445
   43MOL   H33524779   1.036   7.518   1.851 -0.0351 -1.5551 -1.4003
   43MOL   H33624780   0.947   7.369   1.695 -1.6828 -1.8659 -1.2526
   43MOL   H33724781   0.706   7.406   1.808  1.8829  2.5172  0.2654
   43MOL   H33824782   0.872   7.628   1.612  0.3987 -0.4668 -0.8696
   43MOL   H33924783   0.722   7.587   1.665  0.4000  0.1947  1.0653
   43MOL   H34024784   0.838   7.641   1.415  0.3354  0.1016  3.7396
   43MOL   H34124785   0.671   7.610   1.447 -0.5533  0.2075 -1.6123
   43MOL   H34224786   0.833   7.439   1.252  0.2332 -0.1226 -0.0600
   43MOL   H34324787   0.667   7.411   1.282 -0.2783 -0.3015 -0.5642
   43MOL   H34424788   0.598   7.618   1.191 -0.0554  2.7086 -2.3497
   43MOL   H34524789   0.773   7.666   1.158  2.0730 -2.2875 -0.8224
   43MOL   H34624790   0.609   7.637   0.924  1.7872  2.5983  1.4102
   43MOL   H34724791   0.881   7.588   0.904 -1.5017 -0.8813 -2.6373
   43MOL   H34824792   0.781   7.408   0.829  1.9888  2.4872 -3.0817
   43MOL   H34924793   0.607   7.399   0.846 -1.1286  1.0654 -0.1894
   43MOL   C35024794   0.668   7.396   0.605  0.2315  0.5257 -0.6388
   43MOL   C35124795   0.619   7.428   0.465 -0.0253 -0.5085  0.6915
   43MOL   O35224796   0.482   7.456   0.473  0.7338 -0.0852  0.1110
   43MOL   C35324797   0.694   7.550   0.411  0.8418  0.1837  0.0310
   43MOL   O35424798   0.680   7.561   0.265  0.3813 -0.3494  0.4111
   43MOL   C35524799   0.789   7.635   0.207  0.6190  0.4532  0.0899
   43MOL   C35624800   0.745   0.046   0.106 -0.3316 -0.8643 -0.7727
   43MOL   C35724801   0.854   0.117   0.030  0.5329 -1.2853  0.4498
   43MOL   O35824802   0.967   0.152   0.107  0.6641 -0.0246 -0.5912
   43MOL   C35924803   1.062   0.223   0.038 -0.2172 -0.1532 -0.1177
   43MOL   O36024804   1.017   0.352   7.692  0.2211  0.1997 -0.2285
   43MOL   C36124805   1.185   0.237   0.130 -0.1236  0.3174 -0.2343
   43MOL   O36224806   1.306   0.210   0.065  0.4605  0.1937  0.1169
   43MOL   H36324807   0.606   7.313   0.639  0.7878 -0.7617 -2.6646
   43MOL   H36424808   0.774   7.377   0.587  0.4370  1.0463 -0.0291
   43MOL   H36524809   0.626   7.342   0.398 -0.5936 -0.1903  0.2246
   43MOL   H36624810   0.457   7.538   0.513 -1.6713 -0.1197 -1.2103
   43MOL   H36724811   0.652   7.638   0.458  0.3187  0.3424 -0.7238
   43MOL   H36824812   0.796   7.537   0.447  0.3112 -1.4952  0.9849
   43MOL   H36924813   0.866   7.571   0.163 -1.0198 -0.8037 -1.0142
   43MOL   H37024814   0.843   7.694   0.281 -1.2025  1.9257  0.2866
   43MOL   H37124815   0.699   0.124   0.166  1.1853  1.1893 -2.2150
   43MOL   H37224816   0.666   0.014   0.039 -1.2867  1.0363 -0.5988
   43MOL   H37324817   0.890   0.056   7.642  0.7953 -0.9376  0.3050
   43MOL   H37424818   0.812   0.202   7.672  3.5102 -0.5689 -0.8787
   43MOL   H37524819   1.098   0.179   7.639 -0.2071 -0.5169  0.0579
   43MOL   H37624820   0.992   0.401   0.074 -2.8121 -4.1203  1.7127
   43MOL   H37724821   1.186   0.344   0.151 -1.1219  0.1675  0.5694
   43MOL   H37824822   1.177   0.178   0.221 -0.8768 -0.2892 -0.6983
   43MOL   C37924823   1.392   0.137   0.147 -0.2289  0.4100  0.2874
   43MOL   C38024824   1.481   0.237   0.230 -0.2515 -0.0218 -0.7068
   43MOL   O38124825   1.410   0.296   0.337 -0.6721 -0.4630 -0.1440
   43MOL   C38224826   1.601   0.176   0.300  0.0496 -0.2520 -0.2048
   43MOL   O38324827   1.667   0.291   0.368  0.1236 -0.2941 -0.0354
   43MOL   C38424828   1.782   0.258   0.434 -0.2541  0.3576 -0.2640
   43MOL   C38524829   1.752   0.179   0.558 -0.3857 -0.1445 -0.3226
   43MOL   C38624830   1.805   0.035   0.557 -0.3633 -0.4256  0.3760
   43MOL   O38724831   1.718   7.647   0.483  0.3563 -0.0651 -0.1719
   43MOL   C38824832   1.755   7.513   0.476  0.0664 -1.5236 -0.4544
   43MOL   O38924833   1.723   7.441   0.588 -0.6723 -0.4809 -0.1081
   43MOL   C39024834   1.670   7.457   0.365  0.2847 -0.0787 -0.5530
   43MOL   O39124835   1.721   7.500   0.241  0.2323  0.2778  0.3626
   43MOL   H39224836   1.459   0.078   0.084 -0.2233 -0.4296  1.0753
   43MOL   H39324837   1.352   0.069   0.222 -0.5390  0.0781 -0.1751
   43MOL   H39424838   1.523   0.314   0.166  0.8051  0.8922  1.0253
   43MOL   H39524839   1.477   0.326   0.397 -2.9170  0.1988  2.1064
   43MOL   H39624840   1.560   0.102   0.369 -1.7917  0.5475 -0.4214
   43MOL   H39724841   1.666   0.130   0.226  0.5294  0.7874 -0.4434
   43MOL   H39824842   1.835   0.349   0.459 -0.9756  0.2056  1.9465
   43MOL   H39924843   1.856   0.202   0.377  2.0416  1.7782  1.2480
   43MOL   H40024844   1.646   0.194   0.576 -0.0624 -0.3710  1.8657
   43MOL   H40124845   1.780   0.227   0.652 -0.9066 -1.1591  0.3537
   43MOL   H40224846   1.905   0.024   0.513 -1.3528 -2.1171 -1.5486
   43MOL   H40324847   1.799   7.676   0.652 -1.4026 -0.9599  0.0162
   43MOL   H40424848   1.860   7.492   0.455 -0.3313 -1.3995 -2.6908
   43MOL   H40524849   1.791   7.432   0.653 -0.5143 -2.1025 -0.4757
   43MOL   H40624850   1.683   7.348   0.369 -1.2943 -0.2603 -0.0878
   43MOL   H40724851   1.566   7.487   0.379  0.3005 -0.1241 -0.3333
   43MOL   C40824852   1.663   7.437   0.132  0.4065  0.2828  0.4340
   43MOL   C40924853   1.731   7.500   0.017 -0.1774  0.7376  0.0127
   43MOL   O41024854   1.718   7.637   0.035 -0.4977  0.3986 -0.2429
   43MOL   C41124855   1.671   7.467   7.574 -0.7794 -0.1380  0.7449
   43MOL   O41224856   1.689   7.331   7.548  0.8068  0.0187 -0.5730
   43MOL   C41324857   1.647   7.296   7.418  0.0964  0.6816  0.1177
   43MOL   C41424858   1.657   7.143   7.416 -1.0299  0.2659  0.5086
   43MOL   C41524859   1.595   7.083   7.286  0.0153  0.2107 -0.0520
   43MOL   O41624860   1.612   6.943   7.300 -0.2457  0.4852 -0.1421
   43MOL   C41724861   1.544   6.863   7.207  0.1727  0.6478  0.8841
   43MOL   O41824862   1.407   6.860   7.235  0.4729 -0.0079 -0.3235
   43MOL   C41924863   1.610   6.725   7.209  0.5523 -0.7771  0.1452
   43MOL   O42024864   1.606   6.670   7.344  0.4655  0.2816 -0.1081
   43MOL   H42124865   1.555   7.451   0.137  0.3067  0.1006 -0.8752
   43MOL   H42224866   1.681   7.329   0.136  2.0152  0.5539  0.8147
   43MOL   H42324867   1.839   7.481   0.015 -0.1782  0.2161  2.8489
   43MOL   H42424868   1.742   7.658   0.124 -1.3664  0.3575  0.0045
   43MOL   H42524869   1.564   7.488   7.571 -0.7141  0.2591  1.0985
   43MOL   H42624870   1.729   7.510   7.493 -0.8458 -4.8563 -2.0026
   43MOL   H42724871   1.545   7.333   7.408 -0.1358  0.3898  1.3504
   43MOL   H42824872   1.711   7.347   7.346  0.4428  1.1746  0.7709
   43MOL   H42924873   1.599   7.098   7.497 -2.2010 -0.5001 -0.7335
   43MOL   H43024874   1.763   7.124   7.430 -0.7995  0.7156 -0.6488
   43MOL   H43124875   1.491   7.113   7.274 -1.0695 -2.8659  1.1213
   43MOL   H43224876   1.648   7.122   7.199 -2.1260 -0.7036 -1.8435
   43MOL   H43324877   1.551   6.905   7.107  2.6084 -0.9523  0.3579
   43MOL   H43424878   1.396   6.816   7.318 -2.2543 -1.9542 -1.6184
   43MOL   H43524879   1.565   6.666   7.129  1.3300  1.0379 -1.6704
   43MOL   H43624880   1.714   6.728   7.180  0.7319  4.5533  0.8312
   43MOL   C43724881   1.643   6.535   7.342 -0.2650  0.1529 -0.3747
   43MOL   C43824882   1.657   6.498   7.492  0.0555 -0.0180 -0.0290
   43MOL   O43924883   1.535   6.482   7.556 -0.4585  0.1762  0.3114
   43MOL   C44024884   1.744   6.605   7.562 -0.2278 -0.0104 -0.4619
   43MOL   O44124885   1.794   6.552   7.688  0.0609  0.1293  0.2762
   43MOL   C44224886   1.885   6.633   0.062 -0.1751 -1.0427  0.3435
   43MOL   C44324887   1.923   6.555   0.187  0.3660  0.0936  0.7371
   43MOL   C44424888   2.050   6.472   0.165 -0.5693 -0.0174 -0.1996
   43MOL   O44524889   2.080   6.405   0.282 -0.7520 -0.3559  0.0836
   43MOL   C44624890   2.205   6.350   0.294  0.1706  0.0735  0.4135
   43MOL   O44724891   2.223   6.254   0.193  0.1270 -0.1516  0.3555
   43MOL   C44824892   2.218   6.285   0.436 -0.3596 -0.7894 -0.0222
   43MOL   O44924893   2.353   6.252   0.453  0.8354 -0.1193  0.3302
   43MOL   H45024894   1.571   6.478   7.282 -0.1853 -1.0536  0.6484
   43MOL   H45124895   1.742   6.531   7.297  0.3291  0.8491  0.8636
   43MOL   H45224896   1.715   6.406   7.503  1.0437  0.4493 -1.2046
   43MOL   H45324897   1.478   6.553   7.532  0.3337  0.8636  0.4199
   43MOL   H45424898   1.830   6.631   7.500 -0.0813  1.0660  0.1633
   43MOL   H45524899   1.678   6.687   7.592 -0.1063 -0.6726  1.6911
   43MOL   H45624900   1.830   6.723   0.089 -2.6675 -2.6493  0.7327
   43MOL   H45724901   1.973   6.665   0.007 -2.1088  1.0546 -1.6397
   43MOL   H45824902   1.832   6.504   0.220  1.2664 -2.1704 -0.2375
   43MOL   H45924903   1.959   6.633   0.255  0.8728  0.3196  0.2035
   43MOL   H46024904   2.051   6.411   0.076  1.1513  2.1552 -1.7079
   43MOL   H46124905   2.127   6.546   0.143  0.7733 -0.2547  3.3316
   43MOL   H46224906   2.279   6.430   0.282 -1.2744  1.6986  2.0899
   43MOL   H46324907   2.251   6.169   0.225 -0.3506 -0.7239 -0.7104
   43MOL   H46424908   2.197   6.364   0.509 -0.1201 -0.3438 -0.4340
   43MOL   H46524909   2.141   6.211   0.460  1.2027 -2.1946  0.8332
   43MOL   C46624910   2.369   6.181   0.576  0.4166 -0.0238  0.9188
   43MOL   C46724911   2.513   6.116   0.593  0.3507  0.2321  0.2469
   43MOL   O46824912   2.597   6.214   0.657 -0.7367 -0.0974 -0.7748
   43MOL   C46924913   2.514   5.984   0.670  0.2329  0.0965  0.2338
   43MOL   O47024914   2.447   5.881   0.594  0.1179  0.3115 -0.0009
   43MOL   C47124915   2.423   5.767   0.675  0.3142 -0.1024  0.0669
   43MOL   C47224916   2.371   5.662   0.575 -0.9539 -0.0239 -0.5437
   43MOL   C47324917   2.370   5.519   0.635  0.0516  0.9313 -0.2372
   43MOL   O47424918   2.300   5.519   0.753 -0.0519 -0.3020 -0.3181
   43MOL   C47524919   2.302   5.399   0.823 -0.1472  1.0872 -0.5402
   43MOL   O47624920   2.239   5.290   0.755 -0.3496  0.0549 -0.8372
   43MOL   C47724921   2.234   5.424   0.956  0.0848  1.1156 -0.1113
   43MOL   O47824922   2.106   5.484   0.939  0.0907  0.0190  0.1840
   43MOL   H47924923   2.296   6.100   0.577 -0.4418  0.7431  0.7190
   43MOL   H48024924   2.351   6.240   0.666  0.8966  1.7805 -0.1381
   43MOL   H48124925   2.543   6.089   0.492 -0.0509 -0.4616  0.3085
   43MOL   H48224926   2.623   6.278   0.592 -0.3951 -1.1548 -1.6958
   43MOL   H48324927   2.616   5.955   0.695  0.7771  0.6967 -1.2954
   43MOL   H48424928   2.451   5.995   0.759  0.6561 -1.2072  0.7111
   43MOL   H48524929   2.344   5.792   0.745  1.4639  1.1393  0.9628
   43MOL   H48624930   2.512   5.734   0.728  0.1653 -0.4627  0.0931
   43MOL   H48724931   2.435   5.663   0.487  0.5776  0.2497  0.5521
   43MOL   H48824932   2.272   5.680   0.533 -1.1465 -0.1074 -0.1221
   43MOL   H48924933   2.326   5.454   0.559  0.0547 -0.4059  0.9006
   43MOL   H49024934   2.471   5.477   0.646  1.0105  2.5741 -2.2897
   43MOL   H49124935   2.408   5.375   0.834 -0.9472 -2.4235  0.2251
   43MOL   H49224936   2.154   5.329   0.755  0.3597  1.8274  2.5270
   43MOL   H49324937   2.223   5.329   1.007  0.1127  0.4365 -1.3573
   43MOL   H49424938   2.296   5.486   1.021 -1.9364  1.0953  1.8813
   43MOL   C49524939   2.062   5.554   1.053  0.5042  0.0648 -0.4417
   43MOL   C49624940   1.922   5.606   1.015  0.0035  0.1100  0.7093
   43MOL   O49724941   1.834   5.492   1.023 -0.0509 -0.3260 -0.2760
   43MOL   C49824942   1.881   5.704   1.127  0.8219 -0.1357  0.0773
   43MOL   O49924943   1.803   5.810   1.083  0.3440 -0.5848  0.4493
   43MOL   C50024944   1.668   5.775   1.050  0.6525 -0.3943  0.2088
   43MOL   C50124945   1.611   5.884   0.964 -1.0929 -0.2471 -0.0911
   43MOL   C50224946   1.467   5.848   0.916 -0.3645 -0.4545  0.4318
   43MOL   O50324947   1.437   5.938   0.808  0.4051  0.0465 -0.0068
   43MOL   C50424948   1.301   5.935   0.769  0.0678  0.2256  0.4031
   43MOL   O50524949   1.267   5.806   0.722 -0.3705 -0.6373  0.0802
   43MOL   C50624950   1.300   6.041   0.657 -0.5081  0.2452 -0.3387
   43MOL   O50724951   1.327   6.169   0.716  0.6948  0.7488 -0.1356
   43MOL   H50824952   2.131   5.638   1.055  1.4620 -0.6927 -1.2742
   43MOL   H50924953   2.064   5.491   1.142  0.3207  1.0926  0.2953
   43MOL   H51024954   1.931   5.664   0.923  0.1178 -0.7711  0.1576
   43MOL   H51124955   1.868   5.434   0.957  1.0687 -1.0434  0.9296
   43MOL   H51224956   1.842   5.653   1.215 -0.1649  1.9706  0.8866
   43MOL   H51324957   1.973   5.753   1.160  0.7803 -0.7751  1.1609
   43MOL   H51424958   1.611   5.741   1.137 -1.5281  0.5716 -0.8094
   43MOL   H51524959   1.660   5.689   0.983 -2.0685 -0.5155  0.6319
   43MOL   H51624960   1.675   5.893   0.876 -0.0717  0.2373  0.7027
   43MOL   H51724961   1.617   5.981   1.012  1.9854  0.6236 -2.1195
   43MOL   H51824962   1.459   5.749   0.871 -1.1907 -1.2051  2.1879
   43MOL   H51924963   1.397   5.854   0.999 -2.6808  2.2487 -1.6221
   43MOL   H52024964   1.239   5.973   0.850 -0.3765  0.2898  0.0328
   43MOL   H52124965   1.186   5.815   0.675 -0.7709  0.7542  1.0204
   43MOL   H52224966   1.382   6.018   0.590 -0.2112  1.6888 -0.4924
   43MOL   H52324967   1.202   6.039   0.609  0.1190 -0.9992 -1.5903
   43MOL   C52424968   1.374   6.273   0.638  0.3126  0.2904 -0.3867
   43MOL   C52524969   1.386   6.392   0.736  0.3160  0.5935 -0.4401
   43MOL   O52624970   1.411   6.501   0.655  0.3571  0.0916 -0.1639
   43MOL   C52724971   1.505   6.370   0.827  0.1450 -0.7182 -0.8131
   43MOL   O52824972   1.527   6.479   0.923  0.4459 -0.3886 -0.3609
   43MOL   C52924973   1.631   6.453   1.022 -0.2420 -0.0477  0.1698
   43MOL   C53024974   1.661   6.588   1.100  0.4626 -0.1054  0.3369
   43MOL   C53124975   1.546   6.623   1.195 -0.1761  0.5817 -0.1671
   43MOL   O53224976   1.566   6.549   1.320 -0.5393  0.1858 -0.0189
   43MOL   C53324977   1.653   6.601   1.413  0.0366 -0.8050 -0.2215
   43MOL   O53424978   1.609   6.718   1.472 -0.2789  0.1642  0.1853
   43MOL   C53524979   1.674   6.486   1.512  0.2302 -0.0126  0.0683
   43MOL   O53624980   1.786   6.508   1.591  0.2665  0.4845  0.0291
   43MOL   H53724981   1.299   6.283   0.559  0.0529 -1.6816 -0.4400
   43MOL   H53824982   1.465   6.239   0.588 -0.9389 -1.1664 -1.7502
   43MOL   H53924983   1.299   6.405   0.801  1.6005 -1.5534  1.7870
   43MOL   H54024984   1.481   6.477   0.596  0.0301  1.6247 -1.2105
   43MOL   H54124985   1.481   6.278   0.880  0.8869  0.8995  2.4477
   43MOL   H54224986   1.600   6.347   0.778  2.5811  0.1433  3.2253
   43MOL   H54324987   1.712   6.414   0.961  0.7061 -2.7780  3.0258
   43MOL   H54424988   1.587   6.387   1.097 -0.2408  0.1340  0.3301
   43MOL   H54524989   1.676   6.666   1.025  0.0250  0.3928  0.7655
   43MOL   H54624990   1.758   6.582   1.149  0.8237  0.3820 -0.3131
   43MOL   H54724991   1.535   6.731   1.187 -0.8717  0.4994 -0.3872
   43MOL   H54824992   1.453   6.585   1.150 -1.5936  1.6263  1.8180
   43MOL   H54924993   1.748   6.636   1.371 -1.2342  0.5341 -2.0743
   43MOL   H55024994   1.637   6.712   1.562  0.8591 -2.5849 -0.3081
   43MOL   H55124995   1.578   6.469   1.562  0.1641 -1.8754 -0.6702
   43MOL   H55224996   1.692   6.393   1.460 -1.5686 -0.2473 -0.1836
   43MOL   C55324997   1.806   6.408   1.698  0.1228  0.2562  0.1967
   43MOL   C55424998   1.923   6.437   1.785 -0.1638 -0.1389  0.3220
   43MOL   O55524999   1.889   6.541   1.873  0.4475 -0.2703 -0.3188
   43MOL   C55625000   2.053   6.470   1.722 -0.1088 -0.1360  0.6113
   43MOL   O55725001   2.147   6.478   1.819  0.0510 -0.6273  1.0480
   43MOL   C55825002   2.249   6.573   1.788  0.0218  0.0194  0.0955
   43MOL   C55925003   2.347   6.595   1.900  0.2961  0.2082  0.5803
   43MOL   C56025004   2.297   6.655   2.034  0.8982 -0.2395 -0.7061
   43MOL   O56125005   2.263   6.790   1.999 -0.0888 -0.2144  0.4819
   43MOL   C56225006   2.181   6.854   2.088  0.2685 -0.1558  0.0732
   43MOL   O56325007   2.248   6.872   2.209 -0.5070  0.0068 -0.3344
   43MOL   C56425008   2.143   6.995   2.032 -0.7756 -0.2239  0.0021
   43MOL   O56525009   2.261   7.068   2.023 -0.1109 -0.0986 -0.5541
   43MOL   H56625010   1.827   6.310   1.655  0.1087  1.4006 -2.5233
   43MOL   H56725011   1.717   6.388   1.758  0.1510 -2.9430 -0.7527
   43MOL   H56825012   1.927   6.351   1.852 -2.6757 -1.3159 -1.0042
   43MOL   H56925013   1.975   6.550   1.912 -0.4602 -0.1284  1.7516
   43MOL   H57025014   2.079   6.387   1.657  1.1854  0.0348  0.9128
   43MOL   H57125015   2.029   6.569   1.681 -0.3266 -0.2608  0.4372
   43MOL   H57225016   2.304   6.535   1.702  2.2069  1.6844  0.7331
   43MOL   H57325017   2.199   6.660   1.746 -2.3167 -2.2872 -2.1093
   43MOL   H57425018   2.422   6.667   1.865  0.1811  0.5867  1.1062
   43MOL   H57525019   2.406   6.505   1.921  1.8470  1.4506  1.7234
   43MOL   H57625020   2.213   6.600   2.078  2.6132 -0.0412  3.0615
   43MOL   H57725021   2.368   6.665   2.116  1.0144  0.3958 -0.8810
   43MOL   H57825022   2.092   6.793   2.102 -0.0756 -0.2281 -2.2568
   43MOL   H57925023   2.298   6.952   2.203  0.4173 -0.4523  0.9026
   43MOL   H58025024   2.085   6.996   1.940  2.4281 -3.5240 -2.2008
   43MOL   H58125025   2.077   7.027   2.113 -0.0463  2.2814 -0.3721
   43MOL   H58225026   2.328   7.024   1.973 -0.6556  0.8117 -2.1065
   44MOL     C125027   7.127   4.445   6.677  0.0633 -0.4596 -0.4157
   44MOL     C225028   7.170   4.356   6.795  0.3421  0.0436  0.8452
   44MOL     O325029   7.114   4.398   6.917  0.1380  0.1413  0.1868
   44MOL     C425030   7.141   4.209   6.766  0.5469 -0.2860  0.0941
   44MOL     O525031   7.004   4.199   6.739 -0.1657 -0.4487 -0.0384
   44MOL     C625032   6.966   4.070   6.727  0.4511 -0.6078 -0.1122
   44MOL     C725033   6.811   4.067   6.704 -0.1208  0.1864 -0.0023
   44MOL     C825034   6.765   3.936   6.648  0.0589  0.1503 -0.0545
   44MOL     O925035   6.779   3.943   6.504 -0.2505 -0.3871  0.1588
   44MOL    C1025036   6.785   3.824   6.442 -0.1019  0.0852  0.0564
   44MOL    O1125037   6.881   3.732   6.489  0.6586  0.4679  0.1345
   44MOL    C1225038   6.799   3.841   6.287 -0.7378  0.3239 -0.3235
   44MOL    O1325039   6.892   3.939   6.251  0.0940 -0.0405 -0.5667
   44MOL    H1425040   7.125   4.551   6.702 -0.0628 -0.3005 -1.0896
   44MOL    H1525041   7.025   4.425   6.645 -0.2877  1.1355 -0.3497
   44MOL    H1625042   7.278   4.366   6.798  0.4551  0.6965 -2.8559
   44MOL    H1725043   7.102   4.327   6.979 -0.2789 -0.8305 -0.9849
   44MOL    H1825044   7.202   4.183   6.680  0.6207  0.2368 -0.0120
   44MOL    H1925045   7.176   4.148   6.849  2.8282 -0.1474 -0.7287
   44MOL    H2025046   6.982   4.020   6.822  1.7644 -0.7741 -0.4037
   44MOL    H2125047   7.022   4.015   6.650  0.5274 -3.5761  1.9665
   44MOL    H2225048   6.782   4.149   6.639 -1.5403  0.2425  0.6950
   44MOL    H2325049   6.757   4.078   6.798 -2.1981 -0.1698 -1.1377
   44MOL    H2425050   6.832   3.863   6.694  0.0535  0.4538  0.4466
   44MOL    H2525051   6.657   3.928   6.662 -0.1688 -0.7636 -2.2441
   44MOL    H2625052   6.695   3.768   6.466  1.1926 -1.7223  0.8679
   44MOL    H2725053   6.952   3.729   6.427 -0.6246 -1.2966 -1.3276
   44MOL    H2825054   6.815   3.743   6.242  0.3143 -0.0332  0.7944
   44MOL    H2925055   6.700   3.873   6.255 -1.4795 -0.3172  1.3062
   44MOL    H3025056   7.186   4.431   6.586 -2.5662 -1.8940 -1.9795
   44MOL    C3125057   6.896   3.953   6.110 -0.0069 -0.3733 -0.0680
   44MOL    C3225058   6.782   4.045   6.058  0.3442  0.5892 -0.7432
   44MOL    O3325059   6.711   3.989   5.956 -0.6251  0.3482 -0.6120
   44MOL    C3425060   6.823   4.185   6.028 -0.0194  0.0067  0.1560
   44MOL    O3525061   6.927   4.167   5.925 -0.1472 -0.6742 -0.4573
   44MOL    C3625062   6.981   4.296   5.886  0.3748  0.1877 -0.1600
   44MOL    C3725063   7.054   4.287   5.748 -0.3940 -0.2641 -0.8454
   44MOL    C3825064   7.089   4.431   5.695  0.4861 -0.1659  0.4999
   44MOL    O3925065   7.174   4.501   5.783  0.1223  0.5129  0.3517
   44MOL    C4025066   7.307   4.471   5.769 -0.4072  0.0135 -0.0497
   44MOL    O4125067   7.349   4.356   5.841  0.0685 -0.2571  0.1899
   44MOL    C4225068   7.386   4.591   5.819  0.5950  0.0065 -0.2812
   44MOL    O4325069   7.337   4.637   5.944 -0.4383 -0.7623 -0.1386
   44MOL    H4425070   6.989   4.009   6.098  1.0609 -2.3394 -1.3138
   44MOL    H4525071   6.905   3.856   6.060  2.1022 -1.4117  2.2594
   44MOL    H4625072   6.708   4.042   6.137 -0.1494  0.6666 -1.2051
   44MOL    H4725073   6.771   3.994   5.883 -0.9511 -0.1372 -0.9255
   44MOL    H4825074   6.738   4.239   5.986  0.8295  0.8721 -0.4697
   44MOL    H4925075   6.869   4.236   6.112  0.7632 -1.1045  0.4189
   44MOL    H5025076   7.057   4.338   5.953 -1.0132 -0.3365  1.7611
   44MOL    H5125077   6.905   4.374   5.890  0.1814  0.1173 -2.1130
   44MOL    H5225078   6.979   4.251   5.678 -0.5529  0.6138 -1.1385
   44MOL    H5325079   7.144   4.226   5.758  1.2742  2.2472  0.0506
   44MOL    H5425080   7.133   4.415   5.597 -0.4165  0.5067 -0.0230
   44MOL    H5525081   6.996   4.486   5.683 -0.0640 -1.3548 -0.8827
   44MOL    H5625082   7.341   4.453   5.667  0.4089 -0.6268  0.3391
   44MOL    H5725083   7.323   4.365   5.932  0.0167 -1.0825  0.2613
   44MOL    H5825084   7.493   4.577   5.806  0.6367 -3.5496  2.9584
   44MOL    H5925085   7.359   4.669   5.749 -0.2868  1.4481  1.6161
   44MOL    C6025086   7.359   4.774   5.983  0.4631  0.0954 -0.0062
   44MOL    C6125087   7.232   4.802   6.071  0.6328 -0.1870  0.5429
   44MOL    O6225088   7.126   4.787   5.977 -0.3536 -0.7141  0.3363
   44MOL    C6325089   7.225   4.951   6.116 -0.3214  0.2084  0.5903
   44MOL    O6425090   7.324   4.967   6.212  0.7812  0.1221  0.0806
   44MOL    C6525091   7.350   5.100   6.243 -0.1583  0.0123  0.0415
   44MOL    C6625092   7.444   5.113   6.363  0.0269  0.0926 -0.2318
   44MOL    C6725093   7.486   5.260   6.405  0.0798  0.4550 -0.4344
   44MOL    O6825094   7.613   5.248   6.469  0.5550  0.1406 -0.1672
   44MOL    C6925095   7.685   5.366   6.460 -0.2453  0.4441  0.6273
   44MOL    O7025096   7.641   5.470   6.540 -0.1730  0.6021  0.1025
   44MOL    C7125097   0.129   5.337   6.513  0.3507 -0.5748  0.3756
   44MOL    O7225098   0.206   5.450   6.470  0.2412  0.3367  0.1543
   44MOL    H7325099   7.376   4.831   5.892 -0.7664 -0.4704 -0.6037
   44MOL    H7425100   7.455   4.788   6.032 -0.1569 -2.1368  1.9451
   44MOL    H7525101   7.220   4.729   6.151  0.5856 -0.0159  0.6937
   44MOL    H7625102   7.157   4.715   5.925  0.6165  1.1989 -1.7957
   44MOL    H7725103   7.245   5.011   6.027  0.7524 -0.2777  0.4938
   44MOL    H7825104   7.125   4.975   6.150 -0.7271 -0.0462 -0.3950
   44MOL    H7925105   7.258   5.148   6.278  0.2426  0.0897  1.0062
   44MOL    H8025106   7.394   5.151   6.157  0.5218 -3.5812 -1.8264
   44MOL    H8125107   7.539   5.078   6.323 -0.9360 -2.1375 -0.6282
   44MOL    H8225108   7.421   5.034   6.434 -0.2124  1.7011  1.5061
   44MOL    H8325109   7.410   5.298   6.474 -0.0924  0.0103 -0.3804
   44MOL    H8425110   7.478   5.328   6.320 -0.4937  0.9804  0.0387
   44MOL    H8525111   0.002   5.402   6.358 -1.3958  3.0768  1.3719
   44MOL    H8625112   0.020   5.489   6.596 -0.9471  0.8762  1.0444
   44MOL    H8725113   0.125   5.325   6.622  1.1565  1.8130  0.7117
   44MOL    H8825114   0.173   5.242   6.483  0.7982  0.1299 -1.2124
   44MOL    C8925115   0.345   5.417   6.494  0.1119 -0.0330 -0.4799
   44MOL    C9025116   0.414   5.538   6.433 -0.3626 -0.0581  0.7706
   44MOL    O9125117   0.373   5.650   6.499  0.7721 -0.2742  0.0195
   44MOL    C9225118   0.571   5.538   6.416 -0.5062 -0.5598  0.0717
   44MOL    O9325119   0.590   5.461   6.298 -0.0275 -0.1005  0.2344
   44MOL    C9425120   0.719   5.472   6.240 -0.1196  0.4077 -0.3990
   44MOL    C9525121   0.726   5.396   6.107 -0.1787  0.2343 -0.0068
   44MOL    C9625122   0.875   5.370   6.058  1.0171 -0.0613  0.1537
   44MOL    O9725123   0.931   5.264   6.135  0.2216  0.1261 -0.5880
   44MOL    C9825124   1.053   5.218   6.090 -0.4993  0.6798  0.4643
   44MOL    O9925125   1.163   5.300   6.136 -0.1472 -0.1250 -0.1161
   44MOL   C10025126   1.073   5.066   6.124 -0.1212  0.7713 -0.0216
   44MOL   O10125127   1.097   4.979   6.013 -0.1673 -0.5647  0.0428
   44MOL   H10225128   0.367   5.320   6.450 -0.1002 -0.9277  1.3617
   44MOL   H10325129   0.366   5.421   6.600 -2.4701  2.8737  0.0043
   44MOL   H10425130   0.369   5.546   6.334 -0.9738 -2.7440  0.8043
   44MOL   H10525131   0.285   5.638   6.532  1.2791 -1.3253  1.0447
   44MOL   H10625132   0.619   5.635   6.406  0.0980 -0.7932  0.6729
   44MOL   H10725133   0.625   5.493   6.499  0.8942  0.3903 -0.3057
   44MOL   H10825134   0.794   5.441   6.312 -1.2685 -0.0337  0.6369
   44MOL   H10925135   0.740   5.578   6.231 -1.7454  0.7779 -0.0975
   44MOL   H11025136   0.671   5.447   6.027  2.1170 -0.2394 -1.9505
   44MOL   H11125137   0.669   5.303   6.107 -2.2652  1.4661  1.1113
   44MOL   H11225138   0.862   5.337   5.955  0.5118  1.3055 -0.2295
   44MOL   H11325139   0.941   5.456   6.064  1.7499 -0.4982 -1.4929
   44MOL   H11425140   1.067   5.233   5.983 -1.1994  0.9349  0.4063
   44MOL   H11525141   1.170   5.290   6.230 -2.3212  1.6656  0.3146
   44MOL   H11625142   1.166   5.057   6.180 -2.0218 -0.2269  3.1100
   44MOL   H11725143   0.993   5.033   6.191 -0.5269 -0.4033 -1.0756
   44MOL   C11825144   1.089   4.840   6.045  0.2559 -0.0077 -1.1969
   44MOL   C11925145   1.115   4.757   5.925  0.2980  0.0817  0.4665
   44MOL   O12025146   1.003   4.730   5.846  0.1077 -0.3741  1.0931
   44MOL   C12125147   1.183   4.623   5.960  0.1573  0.5389  0.1117
   44MOL   O12225148   1.314   4.631   6.001  0.1163  0.7637  0.7178
   44MOL   C12325149   1.379   4.505   6.023 -0.5984  0.2774  0.5753
   44MOL   C12425150   1.525   4.540   6.056 -0.2340  0.0090 -0.1005
   44MOL   C12525151   1.598   4.409   6.086  0.0673 -0.0798  0.9719
   44MOL   O12625152   1.735   4.440   6.068  0.3327 -0.1865  0.1094
   44MOL   C12725153   1.787   4.428   5.943 -0.4382  0.2325  0.1316
   44MOL   O12825154   1.772   4.302   5.881  0.5827  0.4366 -0.4959
   44MOL   C12925155   1.936   4.469   5.946  0.3864  0.0207  0.0245
   44MOL   O13025156   2.008   4.419   6.058 -0.4696 -0.4973 -0.2004
   44MOL   H13125157   1.171   4.820   6.115 -0.0166  2.1912 -0.1972
   44MOL   H13225158   0.991   4.814   6.083  1.6970 -2.9813  0.6630
   44MOL   H13325159   1.183   4.812   5.858 -1.6993 -1.1510 -2.6777
   44MOL   H13425160   0.951   4.666   5.891  2.2636 -2.6638  0.4478
   44MOL   H13525161   1.129   4.562   6.032  1.5405 -1.7407 -0.7177
   44MOL   H13625162   1.184   4.560   5.871 -3.2823  1.7359 -0.8547
   44MOL   H13725163   1.384   4.444   5.932  1.1629  0.3199  0.6281
   44MOL   H13825164   1.333   4.437   6.095  2.9429 -2.2851  0.5477
   44MOL   H13925165   1.529   4.606   6.143  4.0210  0.4327 -0.5099
   44MOL   H14025166   1.572   4.602   5.980  0.4408 -1.4795 -0.9108
   44MOL   H14125167   1.592   4.389   6.192 -2.4497  0.2586  0.9146
   44MOL   H14225168   1.566   4.325   6.024  0.8635  1.6194 -1.8283
   44MOL   H14325169   1.734   4.503   5.884 -1.8645 -0.3472  0.6528
   44MOL   H14425170   1.824   4.244   5.935  0.0937 -1.2908 -1.8433
   44MOL   H14525171   1.979   4.427   5.855 -0.4387 -1.2876  0.2332
   44MOL   H14625172   1.930   4.577   5.932  0.5076 -0.0011 -0.1939
   44MOL   C14725173   2.118   4.504   6.071 -0.0518  0.4091 -0.1815
   44MOL   C14825174   2.236   4.499   5.977  0.4500 -0.5617  0.0186
   44MOL   O14925175   2.330   4.410   6.030 -0.1640  0.4932  0.1347
   44MOL   C15025176   2.301   4.640   5.959 -0.1097 -0.7329  0.4152
   44MOL   O15125177   2.209   4.731   5.895 -0.3979 -0.6003  1.0678
   44MOL   C15225178   2.268   4.841   5.831  0.9479  0.3835  0.6591
   44MOL   C15325179   2.318   4.947   5.928 -0.1124  0.2802  0.0437
   44MOL   C15425180   2.200   5.009   6.010 -0.4149 -0.6235 -0.4677
   44MOL   O15525181   2.244   5.093   6.116 -0.1474  0.0146 -0.0573
   44MOL   C15625182   2.273   5.032   6.239  0.1975 -0.5891  0.4319
   44MOL   O15725183   2.162   4.973   6.299 -0.7251  0.4314 -0.4529
   44MOL   C15825184   2.322   5.148   6.330 -0.0751  0.6011  0.0819
   44MOL   O15925185   2.469   5.157   6.331  0.4302 -0.2581 -0.2118
   44MOL   H16025186   2.154   4.497   6.174  0.4062  2.1664 -0.2077
   44MOL   H16125187   2.088   4.608   6.075  0.9670  0.6543  2.1040
   44MOL   H16225188   2.201   4.458   5.882 -1.3879  0.7492  0.1261
   44MOL   H16325189   2.283   4.328   6.028  0.1507  0.3332 -1.8548
   44MOL   H16425190   2.334   4.673   6.057  0.9337  0.1910 -0.2392
   44MOL   H16525191   2.395   4.630   5.905  0.1984 -1.0743  1.0114
   44MOL   H16625192   2.194   4.895   5.771  0.6670  1.5046  1.9963
   44MOL   H16725193   2.336   4.802   5.755 -0.1877 -1.0721  0.3565
   44MOL   H16825194   2.379   5.023   5.880 -0.0053  0.2813  0.1797
   44MOL   H16925195   2.389   4.907   6.002  0.4993  1.8192  0.2989
   44MOL   H17025196   2.138   5.065   5.940 -1.4770 -1.2660 -0.0732
   44MOL   H17125197   2.134   4.931   6.051 -0.0221 -0.3785  0.6544
   44MOL   H17225198   2.343   4.950   6.225  1.4648  0.8485 -2.1701
   44MOL   H17325199   2.098   5.037   6.326 -1.1729  0.2932 -1.1781
   44MOL   H17425200   2.269   5.239   6.302 -1.7342 -0.2818  0.2777
   44MOL   H17525201   2.292   5.124   6.432 -1.0978 -1.0758 -0.6063
   44MOL   C17625202   2.517   5.268   6.406  0.1550  0.0048  0.1694
   44MOL   C17725203   2.668   5.250   6.408  0.1179  0.2759 -0.0098
   44MOL   O17825204   2.725   5.301   6.528  0.1306  0.8408  0.0801
   44MOL   C17925205   2.728   5.307   6.284 -0.8947 -0.4609 -0.2987
   44MOL   O18025206   2.863   5.269   6.271  0.1976  0.5190 -0.1368
   44MOL   C18125207   2.915   5.313   6.145 -0.3566  0.2107  0.1167
   44MOL   C18225208   3.054   5.260   6.118  0.4691 -0.0516  0.1234
   44MOL   C18325209   3.109   5.324   5.986  0.3394 -0.1086 -0.0087
   44MOL   O18425210   3.032   5.303   5.870  0.2888 -0.2473  0.1831
   44MOL   C18525211   2.995   5.173   5.842 -0.2306  0.4074  0.6840
   44MOL   O18625212   3.109   5.096   5.800 -0.1680  0.6049 -0.2555
   44MOL   C18725213   2.891   5.179   5.724  0.5195  0.1054 -0.2015
   44MOL   O18825214   2.758   5.164   5.768  0.1141 -0.3615  0.0168
   44MOL   H18925215   2.468   5.273   6.503  0.1403  1.5716  0.0889
   44MOL   H19025216   2.489   5.359   6.354 -2.9287 -0.4406  0.9634
   44MOL   H19125217   2.684   5.142   6.413  0.1409  0.2732 -0.1346
   44MOL   H19225218   2.817   5.281   6.532 -0.2028 -0.9508 -0.6835
   44MOL   H19325219   2.676   5.279   6.192 -0.1980  1.4761 -1.3257
   44MOL   H19425220   2.729   5.416   6.288 -0.1874 -0.4976  0.8114
   44MOL   H19525221   2.919   5.422   6.146  1.3650  0.1981 -1.6898
   44MOL   H19625222   2.854   5.279   6.062 -1.9778 -1.7194  2.0443
   44MOL   H19725223   3.063   5.152   6.124 -0.6058 -0.1684 -0.3537
   44MOL   H19825224   3.101   5.289   6.212  2.3312 -0.7341 -0.5718
   44MOL   H19925225   3.132   5.428   6.008  1.6023 -0.2727 -0.5036
   44MOL   H20025226   3.209   5.294   5.956  0.3839 -0.6313  0.6556
   44MOL   H20125227   2.954   5.119   5.928  0.7667 -0.3024  0.7324
   44MOL   H20225228   3.122   5.120   5.710 -0.0136  0.2154 -0.3407
   44MOL   H20325229   2.898   5.270   5.666  1.5761 -0.8413 -1.5997
   44MOL   H20425230   2.915   5.097   5.656 -0.0874 -1.1234  1.0355
   44MOL   C20525231   2.689   5.285   5.796  0.1686 -0.4865 -0.4757
   44MOL   C20625232   2.546   5.246   5.818 -0.3059 -0.4858 -0.0192
   44MOL   O20725233   2.535   5.202   5.953  0.2532  0.1405 -0.4229
   44MOL   C20825234   2.452   5.370   5.809  0.0117 -0.4853 -0.1347
   44MOL   O20925235   2.327   5.319   5.777  0.4062  0.2769 -0.2891
   44MOL   C21025236   2.285   5.301   5.644  1.0077 -0.3654  0.6421
   44MOL   C21125237   2.150   5.223   5.641 -0.3556  0.3364 -0.3621
   44MOL   C21225238   2.130   5.130   5.522 -0.0089 -0.3715 -0.3662
   44MOL   O21325239   1.992   5.105   5.498 -0.5623 -0.3749 -0.0005
   44MOL   C21425240   1.966   4.976   5.464 -0.1416 -0.4444  0.4881
   44MOL   O21525241   2.062   4.911   5.389  0.6203 -0.0081 -0.1196
   44MOL   C21625242   1.832   4.968   5.393 -0.5992 -0.2345  0.0229
   44MOL   O21725243   1.725   5.004   5.476 -0.4952 -0.0309 -0.9222
   44MOL   H21825244   2.698   5.359   5.717  2.1480  0.6119  0.7264
   44MOL   H21925245   2.736   5.343   5.875 -1.2706  1.4291 -1.0104
   44MOL   H22025246   2.504   5.169   5.753  3.3684 -0.3485 -2.7190
   44MOL   H22125247   2.448   5.203   5.990  1.4158 -0.6385  2.4007
   44MOL   H22225248   2.468   5.425   5.902  0.5748  1.3436 -1.2904
   44MOL   H22325249   2.484   5.440   5.731  0.5443  0.0185  0.5252
   44MOL   H22425250   2.365   5.243   5.598  1.0585  0.3338 -0.1674
   44MOL   H22525251   2.271   5.395   5.591 -0.4968 -1.5000 -1.0157
   44MOL   H22625252   2.066   5.292   5.630 -0.4717 -0.0712 -2.2455
   44MOL   H22725253   2.131   5.169   5.733  3.8082 -0.4349  0.1148
   44MOL   H22825254   2.171   5.170   5.429 -1.1632 -4.1796 -2.6175
   44MOL   H22925255   2.197   5.050   5.552  0.6151 -0.0727 -0.9394
   44MOL   H23025256   1.962   4.932   5.564 -0.3428 -1.9103 -0.1551
   44MOL   H23125257   2.052   4.924   5.296  1.5311  0.8632 -0.1076
   44MOL   H23225258   1.837   5.034   5.306  0.7813  1.3721  1.2920
   44MOL   H23325259   1.820   4.864   5.362 -0.5924 -0.3218  0.3187
   44MOL   C23425260   1.599   4.987   5.414  0.0641 -0.2417  0.1752
   44MOL   C23525261   1.485   5.012   5.511  0.2508 -0.6366 -0.3718
   44MOL   O23625262   1.498   5.138   5.574 -0.1259  0.1230 -0.0249
   44MOL   C23725263   1.477   4.902   5.613 -0.6480 -0.4996 -0.1034
   44MOL   O23825264   1.419   4.791   5.549  0.3530  0.6959  0.5462
   44MOL   C23925265   1.376   4.689   5.641 -0.4715 -0.1833 -0.6469
   44MOL   C24025266   1.400   4.552   5.576 -0.2033 -0.2230 -0.5396
   44MOL   C24125267   1.546   4.525   5.554 -0.7522 -0.0018 -0.4945
   44MOL   O24225268   1.548   4.392   5.495 -0.0939  0.2828  0.9876
   44MOL   C24325269   1.678   4.338   5.481 -0.8115 -0.0969 -0.2627
   44MOL   O24425270   1.757   4.415   5.393 -0.8727  0.0404  0.3141
   44MOL   C24525271   1.659   4.196   5.427  0.2433 -0.0947 -0.4319
   44MOL   O24625272   1.658   4.102   5.539 -0.0700 -0.1100 -0.2248
   44MOL   H24725273   1.588   5.059   5.333 -0.6806 -0.4770  0.0674
   44MOL   H24825274   1.606   4.891   5.364  1.7981 -1.4283  2.6149
   44MOL   H24925275   1.398   5.016   5.446 -1.6771 -2.5005  2.0049
   44MOL   H25025276   1.591   5.147   5.590 -0.0582 -1.4437  0.4884
   44MOL   H25125277   1.572   4.870   5.656 -1.7895 -0.1105  2.8705
   44MOL   H25225278   1.413   4.926   5.698 -1.0970 -1.0864 -0.2665
   44MOL   H25325279   1.273   4.695   5.677  0.3577  0.5865  1.6730
   44MOL   H25425280   1.439   4.690   5.730  1.5834  2.0506 -2.0603
   44MOL   H25525281   1.346   4.542   5.482  0.9938  0.0297 -1.2586
   44MOL   H25625282   1.358   4.474   5.640 -2.0520  2.7793  2.0694
   44MOL   H25725283   1.597   4.595   5.488 -0.3074  0.3948  0.2505
   44MOL   H25825284   1.596   4.511   5.650  0.9311  1.2439 -1.1670
   44MOL   H25925285   1.723   4.335   5.580 -1.7271 -1.3058  0.1307
   44MOL   H26025286   1.709   4.417   5.312 -2.3733 -2.0058  1.1197
   44MOL   H26125287   1.579   4.173   5.356  0.1837  0.5930 -0.5827
   44MOL   H26225288   1.747   4.177   5.365  1.5950  0.5612  1.2598
   44MOL   C26325289   1.553   4.123   5.637  0.9777 -0.0894 -0.1479
   44MOL   C26425290   1.410   4.129   5.592  0.0532 -0.2957 -0.0243
   44MOL   O26525291   1.371   4.001   5.545  0.2011 -0.2547  0.5224
   44MOL   C26625292   1.318   4.170   5.703  0.1335  0.3758  0.3708
   44MOL   O26725293   1.193   4.204   5.650  0.3046  0.1743  0.2926
   44MOL   C26825294   1.104   4.268   5.740 -0.6296 -0.8541 -0.2685
   44MOL   C26925295   0.977   4.314   5.664 -0.5157 -0.0629  0.0154
   44MOL   C27025296   1.007   4.436   5.589  0.3226  0.9627 -0.2923
   44MOL   O27125297   0.886   4.501   5.548 -0.4576  0.4025 -0.0407
   44MOL   C27225298   0.908   4.597   5.446 -0.3337 -0.0599 -0.7218
   44MOL   O27325299   0.901   4.537   5.319 -0.7625 -0.1496  0.4020
   44MOL   C27425300   0.804   4.707   5.462 -0.5297  0.5006  0.1576
   44MOL   O27525301   0.681   4.649   5.440  0.4236  0.0713  0.0436
   44MOL   H27625302   1.586   4.209   5.696  0.2482 -1.1167  1.8158
   44MOL   H27725303   1.573   4.040   5.705  0.8134 -1.9909 -2.3979
   44MOL   H27825304   1.400   4.206   5.516  2.2369 -0.0961 -0.1485
   44MOL   H27925305   1.442   3.976   5.489 -1.3481 -1.1040 -1.1213
   44MOL   H28025306   1.308   4.092   5.779  0.9484 -0.2401 -0.1464
   44MOL   H28125307   1.366   4.252   5.756  0.6120 -0.1215  0.7012
   44MOL   H28225308   1.154   4.355   5.783  0.3172 -0.8190 -1.4002
   44MOL   H28325309   1.087   4.195   5.819  1.4736 -1.9510 -0.7958
   44MOL   H28425310   0.904   4.343   5.740 -0.7662 -1.9671  0.5258
   44MOL   H28525311   0.940   4.236   5.598 -0.5954 -0.8177  0.9477
   44MOL   H28625312   1.056   4.516   5.644 -0.9599 -0.7588  3.5356
   44MOL   H28725313   1.064   4.406   5.501 -0.0272 -1.9304  0.4282
   44MOL   H28825314   1.005   4.645   5.457  0.6857 -2.5795  1.8163
   44MOL   H28925315   0.814   4.552   5.286 -0.1007  1.8475 -0.5253
   44MOL   H29025316   0.803   4.745   5.563  1.5652  0.8411  0.0523
   44MOL   H29125317   0.825   4.782   5.385  2.7478 -2.5101 -2.0616
   44MOL   C29225318   0.572   4.739   5.471 -0.3239  0.1268  0.2838
   44MOL   C29325319   0.445   4.657   5.464 -0.4832  0.5871  0.4461
   44MOL   O29425320   0.344   4.738   5.529  0.1320  0.2039 -0.1807
   44MOL   C29525321   0.417   4.613   5.318  0.3198 -0.5954  0.2539
   44MOL   O29625322   0.329   4.509   5.323 -0.4572  0.0456  0.1587
   44MOL   C29725323   0.328   4.444   5.199  0.6664 -0.0655 -0.8876
   44MOL   C29825324   0.252   4.316   5.214 -0.0953 -0.2828  0.1519
   44MOL   C29925325   0.223   4.232   5.088 -0.5179 -0.1493  0.4604
   44MOL   O30025326   0.114   4.140   5.096  0.2680  0.3365  0.2399
   44MOL   C30125327   0.052   4.101   4.981  0.6001  0.2075 -0.5769
   44MOL   O30225328   0.130   4.004   4.910 -0.0720 -0.2915 -0.5018
   44MOL   C30325329   7.597   4.059   5.012 -0.0655  0.6055  0.3732
   44MOL   O30425330   7.512   4.173   5.016  0.6100  0.0220  0.5334
   44MOL   H30525331   0.588   4.780   5.570  0.4292  1.3479 -0.3396
   44MOL   H30625332   0.559   4.822   5.402 -0.1064  1.5645  1.9538
   44MOL   H30725333   0.459   4.563   5.517 -1.0118 -0.5368 -1.3542
   44MOL   H30825334   0.342   4.823   5.488  0.0180  0.5986  0.6408
   44MOL   H30925335   0.374   4.681   5.243  2.3944  0.0850 -0.3530
   44MOL   H31025336   0.513   4.578   5.280 -0.5446  0.7045 -3.3951
   44MOL   H31125337   0.428   4.414   5.168  1.1469 -0.8499  1.3741
   44MOL   H31225338   0.281   4.507   5.123 -0.2490 -0.2527 -0.4876
   44MOL   H31325339   0.157   4.350   5.257 -1.6214 -2.1440 -1.6339
   44MOL   H31425340   0.308   4.269   5.295  1.1233 -1.5248 -1.3859
   44MOL   H31525341   0.213   4.295   5.000 -0.0237 -0.1422  0.4082
   44MOL   H31625342   0.302   4.164   5.055  0.3142 -0.1181  2.3539
   44MOL   H31725343   0.051   4.184   4.911  4.3878  0.5178 -0.3511
   44MOL   H31825344   0.086   3.920   4.904 -3.4929  1.2215  1.6651
   44MOL   H31925345   7.606   4.003   5.105 -1.7285 -1.2464 -0.5416
   44MOL   H32025346   7.564   3.996   4.930 -0.0701  1.5608 -0.3651
   44MOL   C32125347   7.531   4.262   5.124 -0.1315  0.4795 -0.0488
   44MOL   C32225348   7.412   4.352   5.111 -0.6214  0.1702  0.0246
   44MOL   O32325349   7.296   4.274   5.138  0.6625 -0.0952 -0.4430
   44MOL   C32425350   7.434   4.464   5.208  0.1933 -0.5398 -0.3227
   44MOL   O32525351   7.548   4.545   5.174 -0.1880 -0.3742 -0.2780
   44MOL   C32625352   7.596   4.650   5.262 -0.0142  0.0344  0.0439
   44MOL   C32725353   0.037   4.692   5.212 -0.4397  0.3730 -0.5363
   44MOL   C32825354   0.039   4.823   5.138 -0.0854 -0.3800 -0.1833
   44MOL   O32925355   0.173   4.870   5.118 -1.1500 -0.9550  0.3877
   44MOL   C33025356   0.225   4.837   4.988 -0.0080 -0.2493 -0.1410
   44MOL   O33125357   0.181   4.928   4.898 -0.1559  0.3411  0.0511
   44MOL   C33225358   0.378   4.824   4.982  0.2329  0.5561  0.3271
   44MOL   O33325359   0.433   4.940   5.034 -0.2524  0.2489  0.4928
   44MOL   H33425360   7.618   4.323   5.100  0.4147 -0.4807 -0.5343
   44MOL   H33525361   7.560   4.202   5.211  2.1095  0.4023 -0.8119
   44MOL   H33625362   7.408   4.393   5.010 -1.3838 -0.1818 -0.0887
   44MOL   H33725363   7.334   4.189   5.156  1.8050  0.6502  0.6603
   44MOL   H33825364   7.438   4.420   5.307  0.0005  3.2847  1.5080
   44MOL   H33925365   7.339   4.516   5.195  0.4833  0.5139  1.5318
   44MOL   H34025366   7.614   4.605   5.360  0.3878  1.5336  0.6753
   44MOL   H34125367   7.529   4.734   5.273  1.7537  1.5208 -0.3324
   44MOL   H34225368   0.102   4.709   5.298 -0.4994  1.7359 -0.7545
   44MOL   H34325369   0.082   4.610   5.156  1.3640  1.5531 -0.8790
   44MOL   H34425370   7.686   4.813   5.041 -1.7138 -1.0910  0.6784
   44MOL   H34525371   7.671   4.892   5.195  1.2356  2.1124 -1.6451
   44MOL   H34625372   0.179   4.743   4.956 -0.1564 -0.3000  0.2218
   44MOL   H34725373   0.246   4.996   4.897  1.2398 -0.9380  1.3045
   44MOL   H34825374   0.396   4.736   5.044 -0.1292  1.0450  1.1277
   44MOL   H34925375   0.420   4.809   4.882  2.9205  1.3708  1.2697
   44MOL   C35025376   0.567   4.947   5.073 -0.4644 -0.9141 -0.2540
   44MOL   C35125377   0.604   5.089   5.117  0.7407  0.4548  0.3105
   44MOL   O35225378   0.545   5.106   5.241 -0.4298  0.2811 -0.0013
   44MOL   C35325379   0.757   5.106   5.125 -0.1990  0.2150  0.5256
   44MOL   O35425380   0.800   5.139   4.995 -0.7601 -0.3594 -0.4959
   44MOL   C35525381   0.941   5.166   4.976 -0.0016  0.9164  0.2205
   44MOL   C35625382   0.971   5.225   4.842 -1.0478 -0.0265  0.0997
   44MOL   C35725383   1.113   5.289   4.824 -0.0621  0.0680 -0.3986
   44MOL   O35825384   1.170   5.274   4.690 -0.0222 -0.2234 -0.4433
   44MOL   C35925385   1.290   5.336   4.670  0.3036 -0.1441  0.4313
   44MOL   O36025386   1.393   5.293   4.753  0.3490  0.6699 -0.9640
   44MOL   C36125387   1.340   5.305   4.531 -0.3390 -0.4618 -0.2279
   44MOL   O36225388   1.436   5.406   4.493 -0.5067  0.8914  0.5308
   44MOL   H36325389   0.640   4.930   4.995 -0.5371  1.4313 -0.8627
   44MOL   H36425390   0.592   4.870   5.146  1.1363  1.5783  1.9527
   44MOL   H36525391   0.556   5.150   5.041  0.1587  0.4574  0.6738
   44MOL   H36625392   0.459   5.069   5.229 -0.6604  1.1026 -0.8648
   44MOL   H36725393   0.784   5.174   5.206  0.3321 -0.2460  0.7379
   44MOL   H36825394   0.810   5.016   5.157 -0.4881  0.1511  0.8211
   44MOL   H36925395   1.004   5.080   4.996 -0.7901  0.3472  0.3010
   44MOL   H37025396   0.967   5.239   5.052  0.1737 -0.2035  1.2508
   44MOL   H37125397   0.908   5.306   4.806  2.6599  2.3206 -1.4002
   44MOL   H37225398   0.963   5.141   4.773 -0.6317 -2.0822  2.4931
   44MOL   H37325399   1.115   5.394   4.854  0.3781  0.5786 -2.1132
   44MOL   H37425400   1.182   5.233   4.887 -0.0834 -1.1706 -1.4518
   44MOL   H37525401   1.280   5.443   4.690 -0.9890 -0.5357  1.9648
   44MOL   H37625402   1.395   5.201   4.734 -0.4192  1.0325 -2.9775
   44MOL   H37725403   1.379   5.203   4.535 -2.1269 -1.1219  2.0756
   44MOL   H37825404   1.261   5.312   4.456 -0.0872 -0.1015 -0.4593
   44MOL   C37925405   1.499   5.379   4.368  0.5345 -0.0449 -0.2705
   44MOL   C38025406   1.586   5.503   4.329  0.9610 -0.6447 -0.3431
   44MOL   O38125407   1.704   5.464   4.259 -0.2917 -0.4608 -0.5103
   44MOL   C38225408   1.515   5.600   4.231 -0.0275 -0.7959 -0.2371
   44MOL   O38325409   1.395   5.657   4.293 -0.3808  0.1177 -0.3347
   44MOL   C38425410   1.323   5.738   4.211 -0.5385  0.9258 -0.5413
   44MOL   C38525411   1.207   5.788   4.287  0.2608 -0.1908  0.7683
   44MOL   C38625412   1.247   5.908   4.367 -0.0595 -0.6945 -0.3422
   44MOL   O38725413   1.298   6.019   4.293 -0.2741  0.9366  0.4994
   44MOL   C38825414   1.316   6.128   4.377 -0.5398 -0.2359 -0.0743
   44MOL   O38925415   1.405   6.105   4.479 -0.0067 -0.1759  0.5482
   44MOL   C39025416   1.370   6.256   4.292 -0.4704  0.0939  0.0173
   44MOL   O39125417   1.335   6.382   4.350  0.6790  0.1138 -0.6459
   44MOL   H39225418   1.423   5.367   4.291  0.4287  0.3267 -0.2204
   44MOL   H39325419   1.551   5.283   4.376 -0.1222 -0.4496 -0.8484
   44MOL   H39425420   1.633   5.553   4.414  1.7328 -2.9325  0.6055
   44MOL   H39525421   1.773   5.527   4.273 -0.0321 -1.1773  1.6321
   44MOL   H39625422   1.581   5.684   4.210 -1.4306 -0.1073 -2.0147
   44MOL   H39725423   1.501   5.565   4.129  1.5165 -1.8825 -0.0963
   44MOL   H39825424   1.272   5.686   4.130  0.6336 -2.0663  0.5741
   44MOL   H39925425   1.394   5.809   4.168 -0.2964  0.2714 -1.2231
   44MOL   H40025426   1.169   5.707   4.350 -0.5840 -2.1504 -2.1478
   44MOL   H40125427   1.114   5.808   4.234 -0.2962 -0.8969  1.4554
   44MOL   H40225428   1.156   5.936   4.421  0.2183  2.0557 -1.2262
   44MOL   H40325429   1.320   5.875   4.441  0.1711 -0.3465 -0.4156
   44MOL   H40425430   1.223   6.149   4.430  1.5161  2.1685  2.7205
   44MOL   H40525431   1.494   6.119   4.449 -1.5164  0.5130 -3.9993
   44MOL   H40625432   1.477   6.250   4.276 -0.1124  2.1173  1.4940
   44MOL   H40725433   1.315   6.259   4.198 -2.2250 -0.1775  0.9995
   44MOL   C40825434   1.403   6.493   4.289  0.3246 -0.8505 -0.1662
   44MOL   C40925435   1.326   6.627   4.323 -0.7170  0.1897  0.1139
   44MOL   O41025436   1.203   6.634   4.247 -0.3034 -0.8593 -0.2696
   44MOL   C41125437   1.405   6.756   4.299  0.3356 -0.4495 -0.0838
   44MOL   O41225438   1.358   6.854   4.388  0.3915 -0.0560 -0.0850
   44MOL   C41325439   1.453   6.966   4.382 -0.4440 -0.3206 -0.1043
   44MOL   C41425440   1.401   7.085   4.460 -0.5767  0.1999 -0.5039
   44MOL   C41525441   1.398   7.059   4.611  0.0879 -0.0718  0.2958
   44MOL   O41625442   1.531   7.018   4.659 -0.7536 -0.0020  0.0732
   44MOL   C41725443   1.542   7.008   4.795 -0.3546  0.3501 -0.1353
   44MOL   O41825444   1.576   7.132   4.857  0.2989  0.2630  0.6513
   44MOL   C41925445   1.644   6.894   4.833  0.6209  0.2243 -0.2247
   44MOL   O42025446   1.574   6.769   4.853 -0.0148  0.0174 -0.2285
   44MOL   H42125447   1.402   6.487   4.180  2.9774  1.2444 -0.3647
   44MOL   H42225448   1.508   6.500   4.320  0.0143  0.7966  0.5491
   44MOL   H42325449   1.299   6.619   4.428 -1.0695  0.1753  0.0206
   44MOL   H42425450   1.137   6.649   4.313 -0.8706  2.2487 -1.4668
   44MOL   H42525451   1.510   6.747   4.327  0.0708  0.8586  1.4260
   44MOL   H42625452   1.402   6.789   4.195  2.4560 -0.6660 -0.2395
   44MOL   H42725453   1.537   6.928   4.441 -1.8938  0.7714  2.7356
   44MOL   H42825454   1.481   6.994   4.280 -0.4859  0.0126 -0.0245
   44MOL   H42925455   1.304   7.110   4.417  0.4096  1.2407 -2.1585
   44MOL   H43025456   1.467   7.169   4.443  0.4853 -0.5417 -0.0748
   44MOL   H43125457   1.370   7.151   4.664  0.8540 -0.0885  0.7426
   44MOL   H43225458   1.324   6.982   4.630 -0.0283 -0.8455 -3.0170
   44MOL   H43325459   1.445   6.990   4.841 -0.5909  3.3883  0.6484
   44MOL   H43425460   1.662   7.146   4.820 -0.2410 -0.3456 -0.8553
   44MOL   H43525461   1.718   6.881   4.754  0.7540 -2.4537  0.2899
   44MOL   H43625462   1.693   6.921   4.926 -0.8005 -0.1454  0.6459
   44MOL   C43725463   1.564   6.687   4.740  0.4990 -0.0898  0.0272
   44MOL   C43825464   1.429   6.609   4.751 -0.3435 -0.2010 -0.6933
   44MOL   O43925465   1.414   6.526   4.641 -0.4271  0.0753 -0.3456
   44MOL   C44025466   1.305   6.697   4.762 -0.8723 -0.0543 -0.5056
   44MOL   O44125467   1.190   6.630   4.810 -0.0452 -0.3457 -0.0717
   44MOL   C44225468   1.104   6.715   4.874 -0.1976 -0.1016 -0.2886
   44MOL   C44325469   0.991   6.630   4.944 -0.4304  0.0705  0.2815
   44MOL   C44425470   0.907   6.728   5.028  0.2543  0.6948  1.1025
   44MOL   O44525471   0.831   6.640   5.113 -0.1513  0.2882  0.8716
   44MOL   C44625472   0.714   6.688   5.177 -0.6411 -0.5656 -0.1926
   44MOL   O44725473   0.743   6.800   5.263 -0.2602  0.0112  0.4938
   44MOL   C44825474   0.657   6.580   5.269 -0.4676  0.3538 -0.0215
   44MOL   O44925475   0.751   6.561   5.367 -0.0688 -0.5788  0.0289
   44MOL   H45025476   1.571   6.743   4.646  1.0992 -2.6129 -1.4813
   44MOL   H45125477   1.649   6.619   4.732 -1.7691 -2.8821 -0.6717
   44MOL   H45225478   1.435   6.541   4.837  1.1644  0.0657 -0.5638
   44MOL   H45325479   1.332   6.479   4.646  0.4361 -1.9894 -3.7189
   44MOL   H45425480   1.332   6.778   4.831  0.4081 -1.9580  1.2965
   44MOL   H45525481   1.294   6.750   4.668 -1.2257 -0.0859 -0.4823
   44MOL   H45625482   1.072   6.787   4.799  0.5701  0.8413  0.2753
   44MOL   H45725483   1.158   6.769   4.951 -0.5055  0.4234 -0.4401
   44MOL   H45825484   1.041   6.546   4.993  2.2257  1.2648 -0.2784
   44MOL   H45925485   0.925   6.591   4.867  0.1624 -2.0664  0.7924
   44MOL   H46025486   0.958   6.800   5.093  0.2134  0.4930  1.3554
   44MOL   H46125487   0.842   6.786   4.962  0.4908 -0.8013 -0.4658
   44MOL   H46225488   0.649   6.728   5.099  0.4907 -1.6806 -1.7483
   44MOL   H46325489   0.774   6.756   5.341  1.8683  1.6384  0.6273
   44MOL   H46425490   0.555   6.607   5.297 -0.6180 -1.1675  0.9386
   44MOL   H46525491   0.659   6.488   5.211 -1.0812 -0.8220  1.7676
   44MOL   C46625492   0.697   6.490   5.478 -0.3108  0.6040 -0.1933
   44MOL   C46725493   0.808   6.467   5.579 -0.5379  0.7567  0.2288
   44MOL   O46825494   0.854   6.591   5.625  0.4574 -0.6411  0.0375
   44MOL   C46925495   0.770   6.380   5.697 -0.1864  0.0546  0.0797
   44MOL   O47025496   0.880   6.323   5.767  0.3319  0.2545 -0.5522
   44MOL   C47125497   0.959   6.402   5.854  1.2517 -0.3840 -0.1335
   44MOL   C47225498   1.076   6.321   5.906 -0.8054 -0.0741 -0.1421
   44MOL   C47325499   1.049   6.207   6.004  0.0005 -0.4859  0.5387
   44MOL   O47425500   1.009   6.271   6.128 -0.2749 -0.7970  0.1968
   44MOL   C47525501   1.008   6.169   6.232  0.2821  0.2547 -0.5668
   44MOL   O47625502   0.893   6.086   6.205  0.0246  0.0108 -0.5389
   44MOL   C47725503   0.995   6.232   6.364 -0.0219 -0.3004  0.1208
   44MOL   O47825504   1.120   6.293   6.395  0.3996  0.0788  0.0689
   44MOL   H47925505   0.664   6.389   5.453  0.6119  0.2533 -0.0333
   44MOL   H48025506   0.598   6.519   5.514 -0.7619  0.5870 -1.4150
   44MOL   H48125507   0.892   6.414   5.532 -0.5555  0.9060  0.0248
   44MOL   H48225508   0.780   6.648   5.640  0.3029 -1.0486  0.8101
   44MOL   H48325509   0.710   6.449   5.758  0.1026  1.2249 -0.9529
   44MOL   H48425510   0.696   6.304   5.673 -0.9566  0.6266  0.5755
   44MOL   H48525511   0.890   6.421   5.935  0.6260 -1.4443 -0.4144
   44MOL   H48625512   0.989   6.496   5.807 -1.7459  0.8010  0.2434
   44MOL   H48725513   1.147   6.388   5.953 -0.7496 -0.3330  0.1471
   44MOL   H48825514   1.109   6.273   5.814  1.7489 -0.4387  0.9186
   44MOL   H48925515   0.970   6.148   5.960  0.5670  0.1140 -1.3570
   44MOL   H49025516   1.136   6.142   6.005  0.3058 -0.0827  0.5924
   44MOL   H49125517   1.095   6.103   6.227  0.5309  0.6006 -0.8817
   44MOL   H49225518   0.930   6.017   6.152  2.4524  1.3760 -0.6715
   44MOL   H49325519   0.921   6.313   6.360 -0.9381 -1.0292  1.8585
   44MOL   H49425520   0.974   6.161   6.444  0.8201  0.4236  1.0051
   44MOL   C49525521   1.119   6.350   6.520  0.0973 -0.6808 -0.0836
   44MOL   C49625522   1.245   6.428   6.538  0.1147  0.0562 -0.2770
   44MOL   O49725523   1.225   6.548   6.619 -0.0858  0.0820 -0.0049
   44MOL   C49825524   1.350   6.352   6.615  0.2777 -0.2138  0.1708
   44MOL   O49925525   1.475   6.403   6.578 -0.5748  0.1944 -0.1197
   44MOL   C50025526   1.578   6.329   6.640 -0.5487  0.1062  0.3611
   44MOL   C50125527   1.595   6.357   6.792 -0.0756  0.1485  0.0630
   44MOL   C50225528   1.683   6.257   6.863  0.2668 -0.2324 -0.5117
   44MOL   O50325529   1.646   6.267   7.000  0.9018 -0.5517 -0.1051
   44MOL   C50425530   1.726   6.182   7.082 -0.6642 -0.1365  0.1022
   44MOL   O50525531   1.739   6.045   7.037 -0.4108 -0.4080  0.3375
   44MOL   C50625532   1.667   6.189   7.222  0.0237  0.6182  0.4686
   44MOL   O50725533   1.529   6.155   7.221  0.4927 -1.0354 -0.5564
   44MOL   H50825534   1.101   6.279   6.601 -0.6215  0.9937  1.2721
   44MOL   H50925535   1.033   6.416   6.534 -0.9940 -2.7759  3.9763
   44MOL   H51025536   1.290   6.452   6.441 -1.1552 -3.3518 -1.7807
   44MOL   H51125537   1.302   6.561   6.673  0.2887 -0.2967 -0.4468
   44MOL   H51225538   1.328   6.355   6.722  0.1369  2.1858  0.1114
   44MOL   H51325539   1.341   6.247   6.591 -0.3731 -0.7668  2.6895
   44MOL   H51425540   1.676   6.353   6.598 -0.9147  1.2538  0.1567
   44MOL   H51525541   1.570   6.222   6.618  0.0675  0.2836 -0.7876
   44MOL   H51625542   1.499   6.362   6.844 -0.2440 -0.7836 -0.1550
   44MOL   H51725543   1.631   6.460   6.795  0.1000  0.1022 -0.4152
   44MOL   H51825544   1.673   6.158   6.820 -2.5632 -0.2899  0.2097
   44MOL   H51925545   1.790   6.266   6.843  0.1712 -0.2111 -1.0407
   44MOL   H52025546   1.825   6.228   7.084  0.0420 -1.6482  0.4178
   44MOL   H52125547   1.652   6.013   7.022  1.0180 -3.1925 -2.5135
   44MOL   H52225548   1.714   6.113   7.283  0.5481  0.6537  0.1176
   44MOL   H52325549   1.679   6.292   7.256  2.1242  1.8188 -3.5809
   44MOL   C52425550   1.477   6.137   7.354 -0.7879  0.0279 -0.2369
   44MOL   C52525551   1.331   6.115   7.360  0.1146  0.4690  0.6100
   44MOL   O52625552   1.302   6.005   7.279 -0.3423  0.7228  0.4878
   44MOL   C52725553   1.245   6.231   7.307 -0.7574 -0.4541 -0.2565
   44MOL   O52825554   1.271   6.255   7.171 -0.0788  0.2634 -0.5483
   44MOL   C52925555   1.164   6.326   7.118  0.9342  0.2119 -0.0897
   44MOL   C53025556   1.204   6.390   6.985  0.3000  0.0009 -0.2181
   44MOL   C53125557   1.278   6.522   7.004  0.4533 -0.3373  0.5938
   44MOL   O53225558   1.301   6.572   6.872  0.2479  0.6137  0.4554
   44MOL   C53325559   1.378   6.688   6.866 -0.2841  0.4190 -0.1021
   44MOL   O53425560   1.470   6.660   6.763  0.3710  0.1677 -0.0701
   44MOL   C53525561   1.292   6.807   6.833 -1.0485 -0.1460  0.5160
   44MOL   O53625562   1.260   6.870   6.952  0.4046 -0.0467  0.0937
   44MOL   H53725563   1.508   6.222   7.414  0.2520  0.1257 -0.8977
   44MOL   H53825564   1.518   6.050   7.406 -2.2228 -0.3328  0.3210
   44MOL   H53925565   1.298   6.098   7.462 -0.6160 -0.2024  0.2650
   44MOL   H54025566   1.324   6.037   7.193 -0.9841  0.1259  0.0995
   44MOL   H54125567   1.143   6.191   7.308 -0.5237 -1.0351  0.6330
   44MOL   H54225568   1.269   6.325   7.356  3.5982 -2.1411  1.0194
   44MOL   H54325569   1.124   6.402   7.185  0.2842  0.5175 -0.8165
   44MOL   H54425570   1.089   6.248   7.103 -0.6005  1.3681  1.3809
   44MOL   H54525571   1.108   6.404   6.936 -0.0662 -0.1215  0.4541
   44MOL   H54625572   1.276   6.324   6.935 -3.1315 -1.3615 -3.6177
   44MOL   H54725573   1.214   6.595   7.053 -1.6236 -2.0820  0.5345
   44MOL   H54825574   1.366   6.498   7.064  0.0149 -1.5712  0.7478
   44MOL   H54925575   1.432   6.699   6.960  2.4350 -3.2196 -1.1017
   44MOL   H55025576   1.549   6.710   6.776 -0.6733  1.4234  1.6639
   44MOL   H55125577   1.346   6.884   6.779 -3.0384  1.8219  1.2610
   44MOL   H55225578   1.201   6.787   6.775 -0.8726  0.5308 -0.0005
   44MOL   C55325579   1.172   6.976   6.930 -0.7738 -0.3969 -0.5529
   44MOL   C55425580   1.098   6.999   7.065  0.5078  0.4329  0.2572
   44MOL   O55525581   1.200   7.053   7.147  0.0006 -0.2420  0.0456
   44MOL   C55625582   1.050   6.868   7.132 -0.5725  0.2187 -0.0283
   44MOL   O55725583   0.975   6.802   7.039  0.2610  0.1448  0.0690
   44MOL   C55825584   0.917   6.673   7.079  0.2977  0.3373  0.1588
   44MOL   C55925585   0.880   6.597   6.942  0.4879  0.0137 -0.8578
   44MOL   C56025586   0.818   6.463   6.959  0.0764  0.9796 -0.1023
   44MOL   O56125587   0.793   6.426   6.825 -0.0535 -0.0575  0.9284
   44MOL   C56225588   0.795   6.289   6.806 -0.4087  0.0528 -0.3704
   44MOL   O56325589   0.708   6.215   6.884 -0.4597 -0.3631 -0.2285
   44MOL   C56425590   0.765   6.267   6.654 -0.1749 -0.1521 -0.2575
   44MOL   O56525591   0.625   6.254   6.639 -0.6037  0.0809 -0.6740
   44MOL   H56625592   1.103   6.949   6.850 -1.8244 -0.0627  0.2141
   44MOL   H56725593   1.228   7.065   6.901 -1.9148  0.0747 -1.3662
   44MOL   H56825594   1.018   7.072   7.053  0.1438  0.1645  1.0537
   44MOL   H56925595   1.261   6.983   7.162  1.7943  1.2716 -0.0626
   44MOL   H57025596   1.136   6.811   7.168 -1.7702 -1.4453  0.2555
   44MOL   H57125597   0.983   6.886   7.216 -1.8255 -1.0009 -0.7224
   44MOL   H57225598   0.992   6.622   7.139  1.5988  0.4979 -1.3076
   44MOL   H57325599   0.825   6.693   7.135  0.5642  0.7760  0.4427
   44MOL   H57425600   0.965   6.577   6.877  2.2849 -0.4846  1.5787
   44MOL   H57525601   0.824   6.670   6.883  2.9413  2.1556 -0.6429
   44MOL   H57625602   0.871   6.384   7.012  0.8714  1.5235 -0.0840
   44MOL   H57725603   0.724   6.482   7.011 -0.1991 -0.8909  0.1315
   44MOL   H57825604   0.894   6.259   6.843 -1.7959 -1.9494  1.8554
   44MOL   H57925605   0.631   6.198   6.831  0.8766 -0.5455 -2.1427
   44MOL   H58025606   0.794   6.356   6.599  1.2432  0.4285  1.3802
   44MOL   H58125607   0.822   6.178   6.627  1.5939  0.8142  0.1815
   44MOL   H58225608   0.583   6.339   6.633  0.7233  0.9822  1.9695
   45MOL     C125609   1.205   1.990   5.526  0.0906 -0.4605 -0.7681
   45MOL     C225610   1.319   1.962   5.617 -0.3734 -0.1016 -0.4473
   45MOL     O325611   1.387   2.087   5.645  0.0321 -0.6840 -0.3035
   45MOL     C425612   1.272   1.892   5.745 -0.2039 -0.1432  0.0669
   45MOL     O525613   1.171   1.974   5.804 -0.3728 -0.7550 -0.5343
   45MOL     C625614   1.126   1.928   5.933 -0.1333 -0.0784 -0.3026
   45MOL     C725615   1.039   2.038   5.991  0.4048  0.2903 -0.5015
   45MOL     C825616   1.024   1.999   6.142  0.0964  0.2730 -0.5191
   45MOL     O925617   1.147   2.007   6.217  0.1308 -0.4575 -0.3329
   45MOL    C1025618   1.134   2.017   6.357  0.0897  0.3712  0.4400
   45MOL    O1125619   1.243   2.076   6.417 -0.3566  0.1651  0.5020
   45MOL    C1225620   1.123   1.875   6.403 -0.3436 -0.1373  0.1487
   45MOL    O1325621   0.999   1.816   6.365 -0.6257 -0.2657  0.2968
   45MOL    H1425622   1.140   1.903   5.537  0.5105 -1.0052 -2.3158
   45MOL    H1525623   1.231   1.996   5.420  1.5059 -2.4785 -0.5823
   45MOL    H1625624   1.397   1.907   5.564 -0.8618 -1.1671 -0.0839
   45MOL    H1725625   1.455   2.070   5.709  0.8907  0.3497 -0.9255
   45MOL    H1825626   1.235   1.792   5.723 -0.6517  0.1542 -0.5506
   45MOL    H1925627   1.358   1.881   5.810 -0.9437 -0.0840  1.0654
   45MOL    H2025628   1.201   1.893   6.004 -0.0641  2.5497  0.9917
   45MOL    H2125629   1.066   1.845   5.898 -0.8887  0.7795 -1.0743
   45MOL    H2225630   0.942   2.045   5.942  0.5383 -0.9885 -0.9791
   45MOL    H2325631   1.095   2.131   5.983  1.1664 -0.0414  0.7757
   45MOL    H2425632   0.959   2.076   6.184 -0.0720  0.2890 -0.8099
   45MOL    H2525633   0.976   1.902   6.138  0.5187  0.0849 -1.0675
   45MOL    H2625634   1.047   2.079   6.378 -0.9988 -0.4601 -1.4252
   45MOL    H2725635   1.228   2.166   6.392  2.0052 -0.0308 -1.8559
   45MOL    H2825636   1.213   1.819   6.376  0.5227  1.3332 -0.0455
   45MOL    H2925637   1.136   1.872   6.511  1.8592 -1.5394 -0.1212
   45MOL    H3025638   1.151   2.081   5.549 -0.4652 -1.1087  0.5447
   45MOL    C3125639   1.005   1.681   6.407 -0.9282  0.5439 -0.6616
   45MOL    C3225640   0.879   1.603   6.371  0.3325  0.5272  0.6844
   45MOL    O3325641   0.825   1.550   6.495  0.3432 -0.4272 -0.1779
   45MOL    C3425642   0.900   1.485   6.282  0.2813 -0.2543 -0.3148
   45MOL    O3525643   0.762   1.450   6.260  0.0878  0.4320 -0.0084
   45MOL    C3625644   0.750   1.330   6.179 -0.0796  1.3133  0.0524
   45MOL    C3725645   0.742   1.212   6.274 -0.1732  0.2135  0.3134
   45MOL    C3825646   0.749   1.084   6.209 -0.5475  0.7953 -0.6062
   45MOL    O3925647   0.745   0.996   6.320  0.6503  0.6250  0.5951
   45MOL    C4025648   0.749   0.864   6.290  0.2031  0.1559 -0.0913
   45MOL    O4125649   0.660   0.826   6.187  0.0105  0.0510 -0.2696
   45MOL    C4225650   0.722   0.779   6.408  0.6980 -0.3976  0.3128
   45MOL    O4325651   0.608   0.825   6.475 -1.0972 -0.3156 -0.5638
   45MOL    H4425652   1.092   1.625   6.373 -1.9377 -0.9033 -0.9261
   45MOL    H4525653   1.022   1.692   6.514  0.5138  0.3660 -0.8648
   45MOL    H4625654   0.798   1.668   6.341 -1.0684 -1.1479  0.7713
   45MOL    H4725655   0.749   1.500   6.470 -0.7938  0.6126  1.1483
   45MOL    H4825656   0.939   1.524   6.188 -1.4940 -0.2009 -1.0464
   45MOL    H4925657   0.961   1.401   6.315  1.7613  0.9848  0.1634
   45MOL    H5025658   0.819   1.316   6.095 -0.4395  0.8095 -0.1627
   45MOL    H5125659   0.652   1.341   6.133  0.2661 -0.8551 -1.3111
   45MOL    H5225660   0.649   1.220   6.332  0.7288 -0.9504  1.9700
   45MOL    H5325661   0.827   1.208   6.342  2.1232 -0.5041 -2.5019
   45MOL    H5425662   0.662   1.081   6.142 -1.1974 -1.1604  0.2958
   45MOL    H5525663   0.837   1.071   6.146  0.5987  0.6624  1.0035
   45MOL    H5625664   0.850   0.842   6.256  0.8437  1.1440  1.1274
   45MOL    H5725665   0.576   0.813   6.227 -0.5392  1.9520 -0.7385
   45MOL    H5825666   0.710   0.683   6.358 -1.9626  0.9732 -1.8327
   45MOL    H5925667   0.808   0.776   6.475  0.5874 -0.6199  0.4439
   45MOL    C6025668   0.550   0.727   6.558 -0.2084  0.0143 -0.4989
   45MOL    C6125669   0.409   0.732   6.608  0.5861 -0.1539 -0.1376
   45MOL    O6225670   0.405   0.808   6.731 -0.0181  0.1580 -0.2869
   45MOL    C6325671   0.355   0.582   6.636 -0.0221  0.1257 -0.6173
   45MOL    O6425672   0.271   0.545   6.529  0.0145 -0.4062 -0.4420
   45MOL    C6525673   0.228   0.409   6.534 -0.3880  0.8330  0.0040
   45MOL    C6625674   0.115   0.375   6.633 -0.4633 -0.0961 -0.1311
   45MOL    C6725675   7.683   0.451   6.593 -0.0322 -0.7390  0.4928
   45MOL    O6825676   7.593   0.445   6.702  0.3851 -0.0683  0.4969
   45MOL    C6925677   7.491   0.538   6.703 -0.7500  0.4510  0.8464
   45MOL    O7025678   7.403   0.522   6.596  0.4219 -0.4629  0.5102
   45MOL    C7125679   7.409   0.516   6.835  0.1427  0.4652  0.0861
   45MOL    O7225680   7.380   0.378   6.847  0.2420  0.1949 -0.3496
   45MOL    H7325681   0.608   0.720   6.650 -2.1439 -0.1348  0.7629
   45MOL    H7425682   0.558   0.632   6.505 -1.5490 -0.4505  0.1165
   45MOL    H7525683   0.349   0.798   6.545 -1.3215  1.3047  3.1014
   45MOL    H7625684   0.422   0.740   6.794  0.8766 -0.2590 -0.9633
   45MOL    H7725685   0.438   0.515   6.659 -0.7344  0.5342  3.7125
   45MOL    H7825686   0.292   0.577   6.725 -0.4773 -0.0670 -0.9513
   45MOL    H7925687   0.315   0.346   6.551 -1.1881 -0.3776 -0.3146
   45MOL    H8025688   0.191   0.383   6.435  1.4283  0.2156 -0.5264
   45MOL    H8125689   0.147   0.408   6.731 -0.3138 -1.6173  0.3510
   45MOL    H8225690   0.097   0.268   6.646 -3.8982  0.7586  2.8976
   45MOL    H8325691   7.642   0.420   6.497 -0.4405  1.0730  0.0573
   45MOL    H8425692   0.016   0.555   6.571 -3.0970  0.0324  0.1246
   45MOL    H8525693   7.537   0.637   6.698  0.7340 -0.2504 -0.0356
   45MOL    H8625694   7.360   0.438   6.595 -0.2163 -0.1648 -2.1409
   45MOL    H8725695   7.469   0.549   6.920  1.4763 -0.7330 -0.3903
   45MOL    H8825696   7.318   0.577   6.833 -1.8871 -2.5089 -1.6129
   45MOL    C8925697   7.319   0.354   6.969  0.2846  0.2083 -0.2121
   45MOL    C9025698   7.293   0.203   6.986 -0.3403 -0.0114  0.4065
   45MOL    O9125699   7.420   0.147   7.033  0.1643 -0.3156  0.3076
   45MOL    C9225700   7.172   0.160   7.070  0.0015  0.7682 -0.4059
   45MOL    O9325701   7.055   0.208   7.018  0.3292 -0.1487  0.1312
   45MOL    C9425702   6.950   0.162   7.096  0.2877  0.0580  0.1354
   45MOL    C9525703   6.810   0.205   7.036 -0.3205 -0.1143 -0.5796
   45MOL    C9625704   6.694   0.124   7.093 -0.6428 -0.3801 -0.0257
   45MOL    O9725705   6.581   0.148   7.019  0.1787  0.4935  0.4321
   45MOL    C9825706   6.473   0.064   7.050 -0.0919 -0.0694  0.0503
   45MOL    O9925707   6.420   0.102   7.174  0.2685 -0.9155  0.2580
   45MOL   C10025708   6.366   0.085   6.954  0.7258 -0.1567 -0.1110
   45MOL   O10125709   6.337   0.218   6.934 -0.5267 -0.0533  0.2051
   45MOL   H10225710   7.222   0.405   6.965  1.6082  2.7931 -0.9010
   45MOL   H10325711   7.368   0.392   7.059 -1.7753 -0.4910  1.2342
   45MOL   H10425712   7.287   0.157   6.888 -0.6516  1.5797 -0.3447
   45MOL   H10525713   7.449   0.092   6.962 -2.4138 -0.1367 -0.9629
   45MOL   H10625714   7.162   0.052   7.082 -0.3149  0.7498 -0.8404
   45MOL   H10725715   7.188   0.195   7.172 -0.4815 -1.2864  0.4049
   45MOL   H10825716   6.964   0.207   7.194  2.3352  1.3885 -0.7326
   45MOL   H10925717   6.955   0.055   7.113 -0.7085 -0.4334 -2.3713
   45MOL   H11025718   6.805   0.177   6.931 -0.6376 -0.2250 -0.5354
   45MOL   H11125719   6.801   0.314   7.036 -0.8584 -0.1539 -2.1976
   45MOL   H11225720   6.714   0.017   7.092  3.4055  0.2194  3.1839
   45MOL   H11325721   6.679   0.154   7.197  1.0994  0.9132 -0.1443
   45MOL   H11425722   6.497   7.653   7.059  0.3611  0.2402  3.1689
   45MOL   H11525723   6.398   0.194   7.174  0.0260 -0.9730  0.9170
   45MOL   H11625724   6.394   0.030   6.864 -1.9383 -1.0994 -0.4149
   45MOL   H11725725   6.274   0.041   6.994  0.6006  2.2539  2.4076
   45MOL   C11825726   6.225   0.234   6.855  0.1721 -0.2876  0.5159
   45MOL   C11925727   6.198   0.380   6.814 -0.2349  0.5631 -0.2501
   45MOL   O12025728   6.076   0.389   6.748 -0.3842 -0.3109 -0.4225
   45MOL   C12125729   6.307   0.438   6.724  0.0994 -0.1716 -0.1607
   45MOL   O12225730   6.265   0.547   6.650 -0.1155  0.3468 -0.0514
   45MOL   C12325731   6.338   0.672   6.663  0.2439 -0.0621 -0.0520
   45MOL   C12425732   6.314   0.744   6.795 -0.0824  0.0099  0.4668
   45MOL   C12525733   6.165   0.777   6.820 -0.7324 -0.6561 -0.2128
   45MOL   O12625734   6.121   0.885   6.745  0.3487  0.0465 -0.2554
   45MOL   C12725735   5.982   0.906   6.757 -0.3341 -0.3166  0.3678
   45MOL   O12825736   5.900   0.793   6.725 -0.1656 -0.1137  0.3851
   45MOL   C12925737   5.939   1.020   6.660 -0.5921  0.2515  0.0415
   45MOL   O13025738   5.939   0.986   6.527  0.2565  0.0943 -0.3535
   45MOL   H13125739   6.226   0.163   6.772  0.6158  1.2814 -0.8658
   45MOL   H13225740   6.143   0.202   6.919  0.6674  0.1926  1.3984
   45MOL   H13325741   6.195   0.426   6.913  0.0203  1.3387 -0.5944
   45MOL   H13425742   6.088   0.474   6.708  2.4682  1.4069  3.7109
   45MOL   H13525743   6.407   0.449   6.767 -0.5775  1.5769  1.0604
   45MOL   H13625744   6.324   0.374   6.638  0.1065  0.1154 -0.3743
   45MOL   H13725745   6.289   0.738   6.592  0.2010 -0.9583 -0.8571
   45MOL   H13825746   6.444   0.660   6.639 -0.0385 -0.4317 -1.0972
   45MOL   H13925747   6.378   0.832   6.801  1.5693 -1.1746  0.4893
   45MOL   H14025748   6.345   0.683   6.880 -2.5874 -1.2789  0.4942
   45MOL   H14125749   6.107   0.686   6.803 -1.3609 -0.3279  0.1831
   45MOL   H14225750   6.154   0.804   6.925 -0.7016 -1.3051 -0.0364
   45MOL   H14325751   5.960   0.942   6.858 -1.8135 -1.5091  0.4725
   45MOL   H14425752   5.856   0.809   6.642 -0.8146 -1.9488  0.3611
   45MOL   H14525753   5.836   1.048   6.680 -0.9978  0.6971 -2.4626
   45MOL   H14625754   5.990   1.116   6.661  0.8417 -0.4797 -0.4958
   45MOL   C14725755   6.067   0.955   6.475  0.0834  0.3473  0.3603
   45MOL   C14825756   6.041   0.938   6.323  0.7999  0.1945  0.0588
   45MOL   O14925757   5.953   0.826   6.308 -0.5643 -0.4345  0.7536
   45MOL   C15025758   6.169   0.902   6.244 -0.6267 -0.0946  0.0278
   45MOL   O15125759   6.139   0.878   6.106  0.1780  0.0980 -0.6394
   45MOL   C15225760   6.253   0.831   6.030 -0.6033 -0.0055  0.6325
   45MOL   C15325761   6.208   0.815   5.879 -0.1877 -0.4416 -0.4258
   45MOL   C15425762   6.327   0.775   5.800 -0.8336  0.6903  0.4251
   45MOL   O15525763   6.290   0.745   5.663  0.2666  0.1628 -0.5590
   45MOL   C15625764   6.381   0.726   5.567 -0.5259 -0.0331  0.7074
   45MOL   O15725765   6.434   0.850   5.518 -0.3598  0.3525  0.4075
   45MOL   C15825766   6.303   0.649   5.448  0.0816  0.2251 -0.6669
   45MOL   O15925767   6.389   0.613   5.344  0.2715 -0.0458 -0.1216
   45MOL   H16025768   6.117   0.863   6.507  3.1483  1.6943 -0.3100
   45MOL   H16125769   6.122   1.047   6.494 -0.9991  0.9721  0.5005
   45MOL   H16225770   5.999   1.027   6.276  0.7192  0.5875  0.8788
   45MOL   H16325771   5.874   0.843   6.358  0.7421  0.3926  2.5998
   45MOL   H16425772   6.250   0.972   6.259 -0.5241 -0.6204  2.2252
   45MOL   H16525773   6.216   0.816   6.292 -1.3336 -0.8419 -0.5876
   45MOL   H16625774   6.299   0.739   6.067 -0.7667 -0.1591  0.4543
   45MOL   H16725775   6.330   0.907   6.041 -0.3679  0.1533 -1.8131
   45MOL   H16825776   6.145   0.902   5.859 -0.2576  0.4193  3.1456
   45MOL   H16925777   6.146   0.726   5.885 -1.3948  0.4943  1.5566
   45MOL   H17025778   6.393   0.861   5.791  0.1021 -0.0038  0.5379
   45MOL   H17125779   6.386   0.697   5.849  0.8703  3.2878  2.6205
   45MOL   H17225780   6.469   0.667   5.591  0.4721  0.9443 -0.4868
   45MOL   H17325781   6.381   0.861   5.440 -0.1794 -0.9906  0.0727
   45MOL   H17425782   6.258   0.559   5.490  2.0357  0.4935  2.1836
   45MOL   H17525783   6.215   0.706   5.419  0.0659  0.7494  0.3856
   45MOL   C17625784   6.318   0.580   5.229 -0.1152 -0.4848 -0.0142
   45MOL   C17725785   6.407   0.502   5.130  0.0863  0.2610 -0.1823
   45MOL   O17825786   6.518   0.581   5.084  0.1931  0.5910 -0.5790
   45MOL   C17925787   6.341   0.435   5.008  1.0062  0.5917 -0.2857
   45MOL   O18025788   6.285   0.521   4.913  0.2095 -0.0470  0.6862
   45MOL   C18125789   6.182   0.459   4.839 -0.0080 -0.5301 -0.1508
   45MOL   C18225790   6.155   0.540   4.710  0.3225  0.1733  0.2483
   45MOL   C18325791   6.048   0.499   4.614  0.4114  0.0979  0.4876
   45MOL   O18425792   5.913   0.516   4.665  0.1975 -0.1992 -0.2013
   45MOL   C18525793   5.850   0.404   4.718 -0.1635 -0.5760 -0.0899
   45MOL   O18625794   5.825   0.303   4.625 -0.6950 -0.4666 -0.0872
   45MOL   C18725795   5.720   0.442   4.777  0.1595  0.1805 -0.8235
   45MOL   O18825796   5.733   0.467   4.918  0.1292  0.1791  0.2236
   45MOL   H18925797   6.279   0.671   5.183 -3.2978 -2.9877 -2.5577
   45MOL   H19025798   6.228   0.524   5.257  0.7383  0.1353  4.2153
   45MOL   H19125799   6.445   0.421   5.191 -2.6975 -2.4350 -1.8766
   45MOL   H19225800   6.484   0.654   5.034 -0.1894  0.6405 -0.2382
   45MOL   H19325801   6.418   0.376   4.957  0.6926  2.7496 -3.3319
   45MOL   H19425802   6.264   0.378   5.060  1.2375  1.3572  0.9126
   45MOL   H19525803   6.093   0.447   4.901 -1.5151  1.3139 -1.8682
   45MOL   H19625804   6.217   0.361   4.807  0.5120 -0.2817 -0.3506
   45MOL   H19725805   6.240   0.532   4.643 -1.2047  2.7825 -2.0864
   45MOL   H19825806   6.143   0.647   4.727  0.3140  0.4426 -1.4450
   45MOL   H19925807   6.048   0.551   4.518  0.5357 -2.3586 -0.8759
   45MOL   H20025808   6.058   0.394   4.588 -1.7770  0.3046 -1.3764
   45MOL   H20125809   5.916   0.366   4.796  1.8147  1.4892 -0.7163
   45MOL   H20225810   5.740   0.312   4.585 -1.5008 -0.4277  1.6054
   45MOL   H20325811   5.679   0.525   4.719  0.0383  0.3189 -0.5406
   45MOL   H20425812   5.647   0.362   4.773 -1.2036  1.4390 -1.7387
   45MOL   C20525813   5.629   0.565   4.960 -0.1412  0.3334 -0.0888
   45MOL   C20625814   5.651   0.610   5.114 -0.5183 -0.4642  0.2443
   45MOL   O20725815   5.578   0.722   5.142  0.5857  0.3250  0.3381
   45MOL   C20825816   5.620   0.501   5.211 -0.0392 -0.1737 -0.0688
   45MOL   O20925817   5.663   0.525   5.349  0.1078  0.5932  0.1058
   45MOL   C21025818   5.783   0.583   5.374  0.4752 -0.1502  0.1879
   45MOL   C21125819   5.852   0.551   5.509  0.0214  0.4155  0.5527
   45MOL   C21225820   5.753   0.574   5.628 -0.7197  0.1358 -0.2041
   45MOL   O21325821   5.830   0.540   5.748 -0.1183  0.6680  1.0193
   45MOL   C21425822   5.772   0.514   5.873  1.0278  0.4451  0.1697
   45MOL   O21525823   5.699   0.620   5.920 -0.0051 -0.4892  0.3342
   45MOL   C21625824   5.883   0.473   5.971 -0.0138 -0.0575 -0.1353
   45MOL   O21725825   5.966   0.375   5.918 -0.8723 -0.3037 -0.4374
   45MOL   H21825826   5.528   0.526   4.942 -0.4743  1.1210  0.0205
   45MOL   H21925827   5.650   0.657   4.905  2.6238  0.5949  1.3201
   45MOL   H22025828   5.756   0.640   5.118 -0.6201 -0.1463  0.5319
   45MOL   H22125829   5.592   0.747   5.232  0.7786 -1.3073  0.7793
   45MOL   H22225830   5.516   0.469   5.216 -0.2718  0.8024  1.6493
   45MOL   H22325831   5.676   0.415   5.173 -2.4349 -1.9394  0.3340
   45MOL   H22425832   5.764   0.690   5.371  0.9688  0.0435  2.9431
   45MOL   H22525833   5.855   0.556   5.296  2.6124  1.2381  1.6476
   45MOL   H22625834   5.943   0.605   5.532 -1.6564  3.0847  1.1514
   45MOL   H22725835   5.870   0.445   5.494  0.2369  0.2315  2.0456
   45MOL   H22825836   5.715   0.674   5.645  0.4012  0.6792 -0.8367
   45MOL   H22925837   5.673   0.502   5.612 -1.0790  0.0464  1.8155
   45MOL   H23025838   5.700   0.433   5.866  0.0339  1.4124 -1.0117
   45MOL   H23125839   5.762   0.688   5.937  0.8148 -1.0211 -0.4944
   45MOL   H23225840   5.947   0.559   5.989  0.2551 -0.1569 -0.6092
   45MOL   H23325841   5.849   0.442   6.070  0.6629  1.7277  0.6677
   45MOL   C23425842   6.082   0.371   6.001 -0.0850 -0.0727  0.4156
   45MOL   C23525843   6.194   0.285   5.929  0.1785 -0.6879 -0.1442
   45MOL   O23625844   6.299   0.263   6.020  0.2377 -0.2817 -0.4595
   45MOL   C23725845   6.253   0.357   5.804  0.1351  0.2636 -0.2405
   45MOL   O23825846   6.334   0.256   5.736 -0.2022  0.2846  0.1844
   45MOL   C23925847   6.376   0.305   5.608  0.0856  0.6088 -0.1759
   45MOL   C24025848   6.444   0.181   5.542  1.1543 -0.7638  0.1939
   45MOL   C24125849   6.481   0.209   5.398 -0.3387 -0.3299  0.7517
   45MOL   O24225850   6.520   0.088   5.349 -0.0981  0.0380 -0.6166
   45MOL   C24325851   6.501   0.074   5.212 -0.3582  0.0487 -0.3168
   45MOL   O24425852   6.544   0.190   5.145 -0.3083  0.1583 -0.2877
   45MOL   C24525853   6.352   0.048   5.185  0.3178 -0.4244 -0.0096
   45MOL   O24625854   6.333   7.624   5.106  0.1991 -0.1024  0.0546
   45MOL   H24725855   6.123   0.468   6.028 -2.2925  1.3916 -1.2809
   45MOL   H24825856   6.051   0.325   6.095 -1.4913 -0.8437 -0.4117
   45MOL   H24925857   6.159   0.187   5.896  2.9620 -0.9503 -2.5656
   45MOL   H25025858   6.372   0.223   5.975  0.4365 -0.4239 -0.0217
   45MOL   H25125859   6.173   0.391   5.739  1.4413  0.0714 -1.9925
   45MOL   H25225860   6.305   0.447   5.837 -0.5952  0.3460  0.7257
   45MOL   H25325861   6.447   0.382   5.640 -1.0253  1.4748  0.2283
   45MOL   H25425862   6.295   0.347   5.548 -0.5571  1.5380  1.3132
   45MOL   H25525863   6.370   0.101   5.548 -1.4282  1.2929 -2.7109
   45MOL   H25625864   6.521   0.135   5.604  1.1207 -1.6262 -0.3933
   45MOL   H25725865   6.400   0.260   5.346  2.1531  0.0177 -2.9757
   45MOL   H25825866   6.565   0.279   5.405 -1.0559  0.3779  2.8855
   45MOL   H25925867   6.553   7.680   5.175  3.0551  1.4795  0.8647
   45MOL   H26025868   6.637   0.200   5.161 -0.5199  2.1706 -0.1621
   45MOL   H26125869   6.298   0.042   5.280 -1.6519  0.8036 -1.0106
   45MOL   H26225870   6.305   0.133   5.136  2.0657  0.8624  0.5088
   45MOL   C26325871   6.192   7.594   5.081 -0.8782 -0.0690 -0.7189
   45MOL   C26425872   6.190   7.456   5.009 -0.3947  0.0941  0.4258
   45MOL   O26525873   6.057   7.422   4.976 -0.4289 -0.5333 -0.3534
   45MOL   C26625874   6.254   7.477   4.868 -0.3801  0.1203 -0.3950
   45MOL   O26725875   6.206   7.592   4.799  0.5980 -0.3727 -0.0208
   45MOL   C26825876   6.283   7.629   4.683 -0.1613  0.0987 -0.1451
   45MOL   C26925877   6.232   0.068   4.623 -0.2836  0.2485  0.3173
   45MOL   C27025878   6.329   0.107   4.516  0.0793  0.1207  0.3909
   45MOL   O27125879   6.306   0.023   4.406  0.2673  0.5737  0.0660
   45MOL   C27225880   6.390   0.043   4.295  0.3530 -0.1438 -0.3556
   45MOL   O27325881   6.529   0.023   4.323 -0.2687 -0.1649  0.2842
   45MOL   C27425882   6.358   7.647   4.175  0.2682 -0.2779 -0.3028
   45MOL   O27525883   6.261   0.011   4.087  0.2373 -0.0312 -0.4109
   45MOL   H27625884   6.160   7.678   5.019  0.5937  0.2253 -1.1157
   45MOL   H27725885   6.138   7.611   5.174 -0.4416  1.4903 -0.7248
   45MOL   H27825886   6.240   7.375   5.062 -0.4081  0.5000  1.0612
   45MOL   H27925887   6.040   7.443   4.885 -0.4981  0.9955 -0.0022
   45MOL   H28025888   6.360   7.495   4.882 -0.2205 -1.8583  1.2187
   45MOL   H28125889   6.244   7.384   4.812 -3.6991 -0.3642  0.8856
   45MOL   H28225890   6.266   7.544   4.617 -1.2338  0.1947  0.0011
   45MOL   H28325891   6.391   7.617   4.692 -0.2616 -3.8798 -2.8283
   45MOL   H28425892   6.224   0.136   4.707  1.6168 -0.3002  0.9817
   45MOL   H28525893   6.132   0.071   4.581 -0.0747  1.3493 -0.1136
   45MOL   H28625894   6.302   0.208   4.483 -2.8730 -0.6470  0.2962
   45MOL   H28725895   6.430   0.096   4.555 -0.5905 -1.8599  1.6329
   45MOL   H28825896   6.380   0.147   4.264 -2.0561 -0.5035 -0.9368
   45MOL   H28925897   6.564   7.649   4.268 -2.0503 -0.5724 -0.3866
   45MOL   H29025898   6.443   7.618   4.113 -0.2100  0.9128 -1.5372
   45MOL   H29125899   6.318   7.553   4.213 -1.2296  1.1272  1.7598
   45MOL   C29225900   6.118   7.689   4.124  0.0149 -0.6828 -0.1176
   45MOL   C29325901   6.036   0.023   3.995  0.2958 -0.6945 -0.1818
   45MOL   O29425902   6.036   7.609   3.911  0.7384  0.1012  0.3312
   45MOL   C29525903   5.889   0.060   4.026  0.2739 -0.0346  0.5322
   45MOL   O29625904   5.836   0.133   3.916  0.1547  0.0842  0.5630
   45MOL   C29725905   5.698   0.163   3.922 -0.5233 -0.0917 -0.5148
   45MOL   C29825906   5.675   0.261   3.816 -0.4870  0.1870 -0.7281
   45MOL   C29925907   5.542   0.343   3.830 -0.2087 -1.0722 -0.1498
   45MOL   O30025908   5.539   0.444   3.930 -0.4702  0.2640  0.1957
   45MOL   C30125909   5.412   0.505   3.941  0.4320 -0.4049 -0.8562
   45MOL   O30225910   5.311   0.430   4.010 -0.3623  0.6231 -0.3023
   45MOL   C30325911   5.438   0.633   4.017 -0.5811  0.6348  0.2469
   45MOL   O30425912   5.437   0.744   3.929 -0.1013  0.0414  0.0953
   45MOL   H30525913   6.083   7.593   4.164  0.5318 -0.1761  1.5923
   45MOL   H30625914   6.088   0.069   4.198 -2.2158  0.1165 -1.7592
   45MOL   H30725915   6.074   0.112   3.945 -0.1320 -0.7497 -0.6114
   45MOL   H30825916   5.996   7.635   3.829  0.1791 -0.5208  0.4056
   45MOL   H30925917   5.827   7.666   4.040 -0.9193  0.5810 -0.7495
   45MOL   H31025918   5.876   0.120   4.117  0.2220  0.4299  0.2195
   45MOL   H31125919   5.673   0.216   4.014 -1.0626 -2.4956  0.7636
   45MOL   H31225920   5.631   0.078   3.915  1.1377 -1.4369 -0.3254
   45MOL   H31325921   5.668   0.199   3.727 -2.4584  2.0901 -1.9442
   45MOL   H31425922   5.756   0.335   3.820  0.8866 -1.3267  0.1309
   45MOL   H31525923   5.514   0.381   3.732  0.1879  1.6354  0.7433
   45MOL   H31625924   5.463   0.272   3.853  0.9643 -2.1949  0.4660
   45MOL   H31725925   5.371   0.526   3.842 -1.1090 -1.5957 -0.4865
   45MOL   H31825926   5.268   0.487   4.071  1.2317 -0.9635  2.3731
   45MOL   H31925927   5.534   0.633   4.069 -0.9049  1.1065  0.8577
   45MOL   H32025928   5.362   0.649   4.093  0.2539 -1.4900  1.5738
   45MOL   C32125929   5.431   0.873   3.993  0.2164  0.5187  0.2557
   45MOL   C32225930   5.449   0.994   3.900 -0.4456 -0.1375 -0.2364
   45MOL   O32325931   5.329   1.057   3.878  0.1950  0.5662 -0.2441
   45MOL   C32425932   5.544   1.108   3.942  0.7355 -0.0460  0.0746
   45MOL   O32525933   5.539   1.131   4.084 -0.5792  0.1124  0.4674
   45MOL   C32625934   5.551   1.271   4.125  0.0298  0.1364  0.1717
   45MOL   C32725935   5.629   1.287   4.254 -0.0206 -0.7038 -0.0837
   45MOL   C32825936   5.769   1.231   4.252  0.0512  0.6076  0.6621
   45MOL   O32925937   5.848   1.288   4.359 -0.3579 -0.1277 -0.1088
   45MOL   C33025938   5.956   1.213   4.385 -0.1304 -0.3218  0.1777
   45MOL   O33125939   6.068   1.227   4.303  0.1534 -0.1649  0.0364
   45MOL   C33225940   5.993   1.246   4.536  0.4108 -0.4396 -0.3629
   45MOL   O33325941   6.077   1.362   4.536  0.6428  0.2215  0.5344
   45MOL   H33425942   5.519   0.882   4.057 -1.0922  2.3033  1.8933
   45MOL   H33525943   5.343   0.888   4.056  1.5642 -0.2976  2.4161
   45MOL   H33625944   5.490   0.953   3.808  1.3420  0.2837  0.3593
   45MOL   H33725945   5.311   1.105   3.958 -2.5545  1.5512 -1.3905
   45MOL   H33825946   5.531   1.197   3.881  3.2103 -0.3508 -0.9555
   45MOL   H33925947   5.645   1.071   3.922  1.4689  2.2501 -0.5674
   45MOL   H34025948   5.457   1.325   4.121 -0.1169 -0.2683 -3.7992
   45MOL   H34125949   5.613   1.321   4.051 -1.0365 -0.1028 -0.8885
   45MOL   H34225950   5.639   1.389   4.290 -0.0606 -0.6824 -0.1332
   45MOL   H34325951   5.583   1.249   4.346 -1.1009 -0.4252 -0.5019
   45MOL   H34425952   5.770   1.122   4.252  1.8521  0.5649 -2.0249
   45MOL   H34525953   5.822   1.261   4.161 -2.4971  1.5083 -0.5618
   45MOL   H34625954   5.920   1.110   4.384 -1.7422  0.2405 -1.0241
   45MOL   H34725955   6.125   1.295   4.335  1.9333 -1.4331 -0.4169
   45MOL   H34825956   5.901   1.241   4.594 -0.6025  0.7316 -1.8323
   45MOL   H34925957   6.058   1.164   4.567  1.7844  1.2398  1.3071
   45MOL   C35025958   6.004   1.490   4.547 -0.6103  0.2431  0.4111
   45MOL   C35125959   6.102   1.601   4.548  0.5154  0.8805  0.1426
   45MOL   O35225960   6.025   1.719   4.517 -0.2937  0.2878 -0.8522
   45MOL   C35325961   6.173   1.620   4.687  0.1595  0.1518 -0.2872
   45MOL   O35425962   6.269   1.716   4.663  0.4823 -0.2507 -0.3623
   45MOL   C35525963   6.354   1.745   4.778  0.3592  0.7772 -0.3234
   45MOL   C35625964   6.452   1.855   4.739  1.0918  0.1007  0.9752
   45MOL   C35725965   6.387   1.998   4.737 -0.1917  0.3166  1.0030
   45MOL   O35825966   6.493   2.090   4.740 -0.3631 -0.4813 -0.1954
   45MOL   C35925967   6.466   2.217   4.716 -0.4839  0.3176  0.0581
   45MOL   O36025968   6.407   2.276   4.830  0.0538 -0.1206  0.3493
   45MOL   C36125969   6.602   2.278   4.678  0.8815 -0.2778 -0.2748
   45MOL   O36225970   6.586   2.398   4.597 -0.0310 -0.1996  0.0783
   45MOL   H36325971   5.940   1.499   4.634 -0.7211 -0.9569  0.4684
   45MOL   H36425972   5.932   1.501   4.465  0.0510 -0.4802 -0.2797
   45MOL   H36525973   6.184   1.601   4.477  0.9050  1.2163  0.5883
   45MOL   H36625974   6.090   1.788   4.509  0.1153 -0.3524 -3.7220
   45MOL   H36725975   6.106   1.649   4.768  1.2394 -0.2985  0.7870
   45MOL   H36825976   6.229   1.532   4.718 -0.1785  0.2756  0.6743
   45MOL   H36925977   6.407   1.652   4.793  1.8985  1.5021 -1.1796
   45MOL   H37025978   6.297   1.763   4.869 -0.0100 -1.9816  0.0303
   45MOL   H37125979   6.488   1.820   4.642  1.7147 -2.0772  1.9559
   45MOL   H37225980   6.529   1.851   4.817 -0.5608  1.3122  2.7302
   45MOL   H37325981   6.326   2.013   4.648  1.6306  0.0254 -0.3173
   45MOL   H37425982   6.325   2.002   4.826  1.5682  1.6987  2.2074
   45MOL   H37525983   6.398   2.228   4.631  1.4367 -1.9173 -1.8402
   45MOL   H37625984   6.475   2.281   4.895 -0.2576  1.6208  0.5708
   45MOL   H37725985   6.669   2.290   4.763  0.6278 -2.8719  0.3274
   45MOL   H37825986   6.653   2.204   4.616 -1.1388 -1.5298 -0.4848
   45MOL   C37925987   6.540   2.510   4.671 -0.3115 -0.1190  0.3183
   45MOL   C38025988   6.593   2.630   4.597 -0.3722 -0.2730  0.3830
   45MOL   O38125989   6.532   2.634   4.469  0.5700 -0.2955  0.6332
   45MOL   C38225990   6.571   2.761   4.676  0.5758 -0.0926  0.5805
   45MOL   O38325991   6.659   2.782   4.785  1.0934  0.1004 -0.5815
   45MOL   C38425992   6.650   2.913   4.841 -0.1921  0.3193  0.1627
   45MOL   C38525993   6.787   2.941   4.916 -0.6397  0.3358 -0.1872
   45MOL   C38625994   6.804   3.065   5.000  0.0793 -0.4128  0.3879
   45MOL   O38725995   6.715   3.050   5.108 -0.0276  0.4533 -0.1030
   45MOL   C38825996   6.687   3.160   5.187  0.6323 -0.9613 -0.4747
   45MOL   O38925997   6.617   3.258   5.114 -0.0084  0.1108 -0.5056
   45MOL   C39025998   6.588   3.110   5.290 -0.2086  0.1365  0.8489
   45MOL   O39125999   6.658   3.025   5.380 -0.4954 -0.1394  0.6012
   45MOL   H39226000   6.592   2.503   4.767  0.4252 -0.5993 -0.1151
   45MOL   H39326001   6.432   2.506   4.686 -0.4287  0.7930 -0.2388
   45MOL   H39426002   6.701   2.618   4.587 -0.1844  1.1513  0.5467
   45MOL   H39526003   6.512   2.543   4.454  1.6911 -0.1781 -1.8039
   45MOL   H39626004   6.582   2.846   4.610 -1.2029 -1.2999 -1.3032
   45MOL   H39726005   6.466   2.754   4.704  0.2490 -1.0806 -0.8348
   45MOL   H39826006   6.563   2.918   4.906 -2.6851 -2.0076 -2.8381
   45MOL   H39926007   6.638   2.991   4.767 -0.2120  0.7860  0.6504
   45MOL   H40026008   6.862   2.930   4.838 -1.8315  1.9925 -1.6311
   45MOL   H40126009   6.813   2.854   4.975 -1.3089  1.6401  2.0688
   45MOL   H40226010   6.905   3.065   5.040 -0.2771 -0.5431  1.2928
   45MOL   H40326011   6.785   3.155   4.941 -1.0738  0.1037  1.5149
   45MOL   H40426012   6.781   3.205   5.220 -0.9591  0.9433  1.5621
   45MOL   H40526013   6.560   3.209   5.056 -3.4905  0.4411  2.4747
   45MOL   H40626014   6.544   3.202   5.330 -2.7803 -1.1562  1.0783
   45MOL   H40726015   6.513   3.051   5.238 -1.3458  0.6077  1.9232
   45MOL   C40826016   6.577   2.981   5.489 -0.5321 -0.3024  0.2916
   45MOL   C40926017   6.586   3.075   5.612  0.6752  0.4122  0.2878
   45MOL   O41026018   6.705   3.057   5.685 -0.1715 -0.3743 -0.1657
   45MOL   C41126019   6.468   3.061   5.714  0.2765 -0.6431  0.0061
   45MOL   O41226020   6.468   3.166   5.810  0.5728  0.3626 -0.8778
   45MOL   C41326021   6.348   3.170   5.885 -0.4850  0.0705  0.6470
   45MOL   C41426022   6.265   3.293   5.843 -0.6201 -0.1579 -0.3228
   45MOL   C41526023   6.155   3.299   5.948 -0.4064  0.1136  0.2979
   45MOL   O41626024   6.215   3.339   6.070 -0.2186  0.2761 -0.7201
   45MOL   C41726025   6.132   3.311   6.181  0.2320 -0.7366  0.1728
   45MOL   O41826026   6.016   3.393   6.179  0.2994 -0.1842  0.3745
   45MOL   C41926027   6.212   3.320   6.317 -0.1289 -0.3801 -0.2704
   45MOL   O42026028   6.153   3.241   6.417  0.0640  0.0647  0.1333
   45MOL   H42126029   6.610   2.881   5.516 -0.3809 -0.8108 -1.7309
   45MOL   H42226030   6.475   2.988   5.452  0.0344 -0.0995 -1.2577
   45MOL   H42326031   6.570   3.180   5.590  0.6602  0.3053 -0.2009
   45MOL   H42426032   6.679   3.041   5.774 -1.2621 -2.2728 -0.7872
   45MOL   H42526033   6.370   3.060   5.666 -0.5471  0.4697  1.6366
   45MOL   H42626034   6.477   2.960   5.754  1.4685 -0.5966 -0.1256
   45MOL   H42726035   6.281   3.085   5.877  1.4299 -1.5469  1.4505
   45MOL   H42826036   6.376   3.177   5.990 -0.4152 -0.2847  0.6523
   45MOL   H42926037   6.211   3.280   5.749 -1.5655  0.7772  0.0930
   45MOL   H43026038   6.329   3.381   5.853 -0.4500 -0.4114  0.8748
   45MOL   H43126039   6.070   3.364   5.927 -0.8834 -0.8518 -0.8095
   45MOL   H43226040   6.107   3.202   5.953 -1.1502  0.4731  0.2133
   45MOL   H43326041   6.089   3.211   6.182  0.1774 -0.7431 -1.7252
   45MOL   H43426042   5.983   3.406   6.267 -1.9573  0.3086 -0.5048
   45MOL   H43526043   6.307   3.280   6.283  0.5783 -1.6042  2.9781
   45MOL   H43626044   6.228   3.426   6.342  1.2626 -1.4584  3.9529
   45MOL   C43726045   6.107   3.306   6.537  0.8455 -0.0343  0.0579
   45MOL   C43826046   5.980   3.388   6.510 -0.4257 -0.3221  0.3813
   45MOL   O43926047   6.005   3.509   6.444 -0.2113 -0.0445 -0.0703
   45MOL   C44026048   5.894   3.420   6.632  0.5510  0.5320  0.2291
   45MOL   O44126049   5.977   3.507   6.715 -0.2312  0.3663  0.0428
   45MOL   C44226050   5.922   3.535   6.847 -0.0452  0.6007 -0.4734
   45MOL   C44326051   6.031   3.577   6.944  0.4931 -0.4189 -0.7498
   45MOL   C44426052   5.969   3.602   7.082 -0.2964 -0.8169 -0.2173
   45MOL   O44526053   6.068   3.653   7.171 -0.0733 -0.0951  0.4933
   45MOL   C44626054   6.019   3.706   7.296 -0.7259 -0.1184  0.2435
   45MOL   O44726055   5.954   3.825   7.277 -0.3041 -0.2077 -0.3700
   45MOL   C44826056   6.140   3.732   7.391 -0.7763 -0.4322  0.0794
   45MOL   O44926057   6.230   3.827   7.339 -0.1431 -0.0890 -0.2752
   45MOL   H45026058   6.086   3.227   6.609  0.0031  0.4368  0.3374
   45MOL   H45126059   6.193   3.360   6.577  0.4321  1.2570 -0.7528
   45MOL   H45226060   5.918   3.318   6.455  0.5332 -0.6960 -0.2368
   45MOL   H45326061   6.049   3.571   6.500 -2.2700  0.3743  1.1706
   45MOL   H45426062   5.799   3.466   6.602 -0.5086 -0.4641  1.9521
   45MOL   H45526063   5.868   3.337   6.698  0.8041  1.4584  1.5173
   45MOL   H45626064   5.864   3.453   6.890 -0.3352  0.7191 -0.6316
   45MOL   H45726065   5.847   3.614   6.837 -1.4668 -0.6485  0.2054
   45MOL   H45826066   6.068   3.674   6.912 -4.0441  2.0563  0.9737
   45MOL   H45926067   6.112   3.504   6.937  0.9845  0.1902 -1.4266
   45MOL   H46026068   5.905   3.688   7.063  0.1790 -0.2911  0.5394
   45MOL   H46126069   5.912   3.520   7.127 -2.4359  1.1678  0.8206
   45MOL   H46226070   5.943   3.644   7.343 -2.9633  3.0393  0.9506
   45MOL   H46326071   6.019   3.892   7.266  0.1787 -0.3820  1.3390
   45MOL   H46426072   6.100   3.760   7.488  2.3047  0.8771  1.0318
   45MOL   H46526073   6.179   3.631   7.407  0.1075 -0.4404 -1.8841
   45MOL   C46626074   6.323   3.865   7.432  0.4014  1.0378  0.0504
   45MOL   C46726075   6.386   3.993   7.387 -0.6920 -0.4930 -0.1228
   45MOL   O46826076   6.278   4.088   7.371 -0.2722 -0.2686 -0.9601
   45MOL   C46926077   6.485   4.044   7.495  0.4949  0.0837 -0.0184
   45MOL   O47026078   6.555   4.154   7.444  0.4792  0.0690 -0.3714
   45MOL   C47126079   6.687   4.120   7.415 -0.3878 -0.3639 -0.5673
   45MOL   C47226080   6.781   4.231   7.361 -0.4873  0.4411  0.2723
   45MOL   C47326081   6.722   4.302   7.239 -0.4796 -0.8198  0.6517
   45MOL   O47426082   6.813   4.387   7.168  0.2330  0.2849  0.2587
   45MOL   C47526083   6.768   4.439   7.042 -0.1618  0.0743 -0.2940
   45MOL   O47626084   6.783   4.337   6.947  0.7188  0.3015  0.2111
   45MOL   C47726085   6.841   4.569   7.004  0.2148 -0.4840 -0.0153
   45MOL   O47826086   6.761   4.677   7.037 -0.1599 -0.4673  0.1730
   45MOL   H47926087   6.395   3.784   7.442  0.4398  1.0077 -0.4637
   45MOL   H48026088   6.279   3.889   7.529  2.3480  0.2624  1.1583
   45MOL   H48126089   6.438   3.988   7.291  0.1804  0.5258  0.2956
   45MOL   H48226090   6.201   4.033   7.365 -2.4147  2.1155  2.3460
   45MOL   H48326091   6.436   4.073   7.588  0.4423 -1.3414  0.4123
   45MOL   H48426092   6.549   3.960   7.521  0.8196 -0.3137 -2.0102
   45MOL   H48526093   6.677   4.046   7.336 -1.4510  1.0443 -1.7787
   45MOL   H48626094   6.743   4.071   7.494 -1.0570  0.4153  0.3988
   45MOL   H48726095   6.878   4.182   7.350 -0.1101  0.5303  2.8798
   45MOL   H48826096   6.805   4.305   7.437  0.6889 -1.4835  1.8160
   45MOL   H48926097   6.679   4.231   7.169  1.0697  0.9306 -2.2032
   45MOL   H49026098   6.652   4.376   7.279 -0.2313 -0.2106 -0.0192
   45MOL   H49126099   6.663   4.466   7.053  0.2679  1.0387  1.7667
   45MOL   H49226100   6.865   4.353   6.901 -0.1167 -0.4149 -1.5971
   45MOL   H49326101   6.939   4.578   7.051 -0.2161 -0.1898  0.8211
   45MOL   H49426102   6.868   4.581   6.899  1.3886 -0.3822  0.2939
   45MOL   C49526103   6.825   4.809   7.051 -0.9894  0.3134 -0.1860
   45MOL   C49626104   6.743   4.900   7.152 -0.3627  0.6650  0.6256
   45MOL   O49726105   6.829   5.002   7.200  0.1520  0.6714  0.3369
   45MOL   C49826106   6.615   4.959   7.085  0.4946  0.0467  0.3745
   45MOL   O49926107   6.517   4.930   7.179 -0.5296  1.1348 -0.3628
   45MOL   C50026108   6.451   4.803   7.152  0.3516  0.6539  0.3478
   45MOL   C50126109   6.352   4.780   7.274  0.2261 -0.0854  0.1319
   45MOL   C50226110   6.266   4.658   7.240  0.1819  0.5964  0.0149
   45MOL   O50326111   6.339   4.545   7.203 -0.6070  0.4125 -0.1501
   45MOL   C50426112   6.266   4.428   7.183 -0.1331 -0.1709 -0.5104
   45MOL   O50526113   6.229   4.372   7.306 -0.3772 -0.3316 -0.1026
   45MOL   C50626114   6.342   4.334   7.097  0.0428  0.2582  0.4283
   45MOL   O50726115   6.329   4.363   6.957 -0.4208  0.5452  0.3108
   45MOL   H50826116   6.822   4.863   6.957 -2.7756  0.2251 -0.2066
   45MOL   H50926117   6.930   4.794   7.076 -0.2837 -0.1659 -3.2194
   45MOL   H51026118   6.727   4.833   7.237 -1.5440 -0.9896 -0.8486
   45MOL   H51126119   6.918   4.977   7.219 -0.5890 -1.6882  0.8313
   45MOL   H51226120   6.626   5.067   7.070 -0.4203  0.1467  0.4182
   45MOL   H51326121   6.594   4.909   6.990  0.2284 -0.5867  0.7662
   45MOL   H51426122   6.524   4.723   7.146  1.2376  1.6591 -4.5567
   45MOL   H51526123   6.405   4.802   7.053 -1.2627  0.8684  1.0863
   45MOL   H51626124   6.292   4.872   7.279 -0.6930 -0.5827 -1.4930
   45MOL   H51726125   6.405   4.773   7.369  1.2738 -0.2193 -0.4538
   45MOL   H51826126   6.194   4.644   7.320  0.1431 -2.0191 -0.4031
   45MOL   H51926127   6.201   4.678   7.154 -0.0312 -1.5323 -0.3524
   45MOL   H52026128   6.178   4.459   7.126  0.4516  0.0905 -1.2773
   45MOL   H52126129   6.289   4.304   7.332 -0.2611 -0.2968 -0.2824
   45MOL   H52226130   6.447   4.327   7.126  0.1327  0.7287  0.2259
   45MOL   H52326131   6.301   4.236   7.120 -1.1427  0.7107  0.2998
   45MOL   C52426132   6.405   4.285   6.868 -0.4103  0.1904  0.3115
   45MOL   C52526133   6.390   4.340   6.722 -1.1515 -0.2223 -1.1928
   45MOL   O52626134   6.253   4.319   6.693  0.0249 -0.0272  0.6750
   45MOL   C52726135   6.479   4.271   6.626  0.2273 -0.0773  0.4913
   45MOL   O52826136   6.495   4.355   6.512  0.4519 -0.2282 -0.0211
   45MOL   C52926137   6.613   4.320   6.445 -0.6997  0.0981 -0.0814
   45MOL   C53026138   6.605   4.195   6.353 -0.1446 -0.0411 -0.4960
   45MOL   C53126139   6.516   4.220   6.230  0.2161  0.4211  0.2531
   45MOL   O53226140   6.463   4.092   6.199  0.4347  0.0984 -0.1162
   45MOL   C53326141   6.371   4.096   6.091 -0.4978  0.0396  0.5130
   45MOL   O53426142   6.439   4.145   5.981 -0.4473  0.3505  0.7661
   45MOL   C53526143   6.334   3.954   6.057 -0.3046 -0.2665  0.0584
   45MOL   O53626144   6.452   3.872   6.072  0.4039 -0.5479  0.1669
   45MOL   H53726145   6.373   4.180   6.869  0.9425 -0.2360  1.2363
   45MOL   H53826146   6.509   4.283   6.901 -0.3635  0.8672  0.1976
   45MOL   H53926147   6.409   4.447   6.721  2.1873 -0.7424 -0.6088
   45MOL   H54026148   6.238   4.226   6.691 -1.3311  0.1876  0.1198
   45MOL   H54126149   6.573   4.246   6.675  0.1057 -0.5304  0.4981
   45MOL   H54226150   6.431   4.175   6.606  2.4235 -1.1544  0.2429
   45MOL   H54326151   6.701   4.320   6.509  0.5464 -1.3834 -1.7283
   45MOL   H54426152   6.638   4.404   6.380 -0.0193 -0.3007 -0.3393
   45MOL   H54526153   6.568   4.110   6.409  1.9457 -1.4601 -1.2232
   45MOL   H54626154   6.707   4.176   6.321 -0.9767 -2.9799 -1.5346
   45MOL   H54726155   6.436   4.281   6.271 -1.8845 -1.4331 -0.9840
   45MOL   H54826156   6.557   4.288   6.155  2.2212 -1.6342 -0.5549
   45MOL   H54926157   6.286   4.161   6.112 -2.4164 -1.5132 -2.2197
   45MOL   H55026158   6.504   4.077   5.971  0.8415  1.8864 -1.8777
   45MOL   H55126159   6.262   3.926   6.134 -0.6782 -0.5753 -0.3967
   45MOL   H55226160   6.278   3.951   5.963 -0.6772  3.5351  0.1016
   45MOL   C55326161   6.423   3.738   6.051  0.1201  0.9142 -0.2469
   45MOL   C55426162   6.553   3.647   6.069  0.6756 -0.5373 -0.3000
   45MOL   O55526163   6.631   3.686   5.953  0.5404 -0.0729  0.3041
   45MOL   C55626164   6.518   3.496   6.070 -0.6114  0.0154 -0.0794
   45MOL   O55726165   6.614   3.409   6.115 -1.0168 -0.1205  0.6792
   45MOL   C55826166   6.710   3.384   6.011  0.3492 -0.6293 -0.2124
   45MOL   C55926167   6.814   3.288   6.067 -0.1963  0.3400  0.4952
   45MOL   C56026168   6.921   3.262   5.960  0.1968  0.2871  0.3053
   45MOL   O56126169   7.012   3.164   6.014  0.8094 -0.3126  0.5713
   45MOL   C56226170   7.079   3.087   5.926  0.2804 -0.4060 -0.3585
   45MOL   O56326171   7.174   3.160   5.853 -0.7594 -0.0237 -0.0522
   45MOL   C56426172   7.148   2.981   6.010  0.3368  0.1282 -0.0020
   45MOL   O56526173   7.048   2.905   6.072  0.0235  1.0793  0.7360
   45MOL   H56626174   6.388   3.719   5.950 -1.3056 -0.0254  0.4042
   45MOL   H56726175   6.353   3.707   6.128  0.2384  2.4859  0.5092
   45MOL   H56826176   6.603   3.685   6.158  1.0307 -1.0837 -0.2674
   45MOL   H56926177   6.648   3.779   5.958 -4.3173  0.9552  0.0722
   45MOL   H57026178   6.436   3.471   6.137 -0.8993 -3.5787 -1.6474
   45MOL   H57126179   6.480   3.460   5.974  0.8378 -4.1374  0.7941
   45MOL   H57226180   6.651   3.328   5.938 -0.6219 -0.8890  0.7592
   45MOL   H57326181   6.761   3.470   5.969  1.2127 -0.6643  0.7644
   45MOL   H57426182   6.770   3.196   6.105  0.2776  0.2371  0.8049
   45MOL   H57526183   6.865   3.332   6.153 -1.5157  0.5370  1.1804
   45MOL   H57626184   6.881   3.228   5.864  2.1224 -0.5090 -0.2271
   45MOL   H57726185   6.971   3.355   5.933  2.7954 -0.8994  0.9373
   45MOL   H57826186   7.008   3.045   5.855 -1.0401  0.9307  0.1579
   45MOL   H57926187   7.204   3.095   5.792  0.3315 -2.5266  2.9893
   45MOL   H58026188   7.201   2.915   5.941  0.6756 -0.5814  0.9304
   45MOL   H58126189   7.225   3.025   6.073  1.0924  0.3385 -1.0452
   45MOL   H58226190   7.000   2.961   6.131 -0.2932  1.9049 -0.2913
   46MOL     C126191   5.840   0.670   7.115 -0.1248 -0.3410 -0.9738
   46MOL     C226192   5.884   0.661   7.260  0.4351  0.2700 -0.9181
   46MOL     O326193   5.888   0.528   7.304  0.5204  0.2875 -0.0380
   46MOL     C426194   6.030   0.724   7.269  0.8775 -0.1929  1.1484
   46MOL     O526195   6.014   0.859   7.234  0.3234 -0.3773  0.2002
   46MOL     C626196   6.129   0.937   7.218  0.1346 -0.4375  0.3395
   46MOL     C726197   6.181   0.992   7.352 -0.0489  0.3775  0.3464
   46MOL     C826198   6.257   1.121   7.338 -0.8787 -0.0533  0.6844
   46MOL     O926199   6.322   1.171   7.450  0.3183 -0.1393  0.1332
   46MOL    C1026200   6.436   1.102   7.488 -0.3388  0.0451  0.5631
   46MOL    O1126201   6.416   1.019   7.598  0.3464  0.1869  0.9286
   46MOL    C1226202   6.531   1.215   7.528  0.4354  0.7115  0.3859
   46MOL    O1326203   6.499   1.246   7.661  0.0567 -0.8299  0.2956
   46MOL    H1426204   5.847   0.771   7.074  1.8425 -0.3123 -0.6531
   46MOL    H1526205   5.734   0.649   7.104 -0.4973 -0.2243  1.9826
   46MOL    H1626206   5.830   0.717   7.337  0.9283 -0.8029  0.2299
   46MOL    H1726207   5.937   0.510   7.383 -0.5070  0.2878  0.6079
   46MOL    H1826208   6.085   0.717   7.363  2.5787 -0.3441  0.1570
   46MOL    H1926209   6.099   0.672   7.202  2.2171  0.2209  2.1739
   46MOL    H2026210   6.096   1.017   7.152  1.2664 -0.7201 -0.5940
   46MOL    H2126211   6.201   0.885   7.155 -1.0120 -0.5455 -0.8955
   46MOL    H2226212   6.252   0.916   7.384  1.5968  1.4410 -0.7511
   46MOL    H2326213   6.108   1.002   7.433 -0.4876 -1.1089  0.1474
   46MOL    H2426214   6.329   1.125   7.256 -0.9967 -1.3540  0.5016
   46MOL    H2526215   6.176   1.189   7.310  0.8307  1.9495  0.5152
   46MOL    H2626216   6.479   1.037   7.411 -1.0623 -0.5223  0.6331
   46MOL    H2726217   6.387   1.083   7.661  0.5288 -1.5852  2.8684
   46MOL    H2826218   6.628   1.165   7.523  0.7239  0.6956  4.2308
   46MOL    H2926219   6.541   1.293   7.452 -0.8595  0.2022 -0.3036
   46MOL    H3026220   5.913   0.607   7.063  0.4544 -0.0294 -0.5463
   46MOL    C3126221   6.610   1.304   0.033  0.5169 -0.7768 -0.2604
   46MOL    C3226222   6.646   1.450   7.687  0.3054  0.3942  0.1859
   46MOL    O3326223   6.727   1.494   0.097 -0.3295  0.0134 -0.5701
   46MOL    C3426224   6.515   1.538   7.680 -0.0222 -0.0772 -0.7248
   46MOL    O3526225   6.534   1.662   7.615 -0.6524  0.1608 -0.1001
   46MOL    C3626226   6.588   1.757   0.012 -0.8350 -0.1321 -0.4013
   46MOL    C3726227   6.557   1.898   7.659  0.0756 -0.2979  0.1315
   46MOL    C3826228   6.645   1.950   7.545  0.1977  0.1956  0.6620
   46MOL    O3926229   6.769   1.998   7.600 -0.2148  0.2967  0.0133
   46MOL    C4026230   6.866   2.040   7.512  0.5200  0.3861  0.0428
   46MOL    O4126231   6.825   2.148   7.429  0.3018  0.3184 -0.6195
   46MOL    C4226232   6.921   1.920   7.431 -0.6278  0.9808 -0.3119
   46MOL    O4326233   7.021   1.841   7.499  0.3430  0.0068 -0.3231
   46MOL    H4426234   6.583   1.309   0.138  1.3156  0.4111 -0.0921
   46MOL    H4526235   6.695   1.238   0.044 -0.3990 -1.8089  0.6947
   46MOL    H4626236   6.704   1.447   7.595 -0.5555 -0.4269 -0.3371
   46MOL    H4726237   6.692   1.468   0.182 -1.7876  1.0308 -0.8454
   46MOL    H4826238   6.444   1.493   7.611 -1.3966  0.1435  0.5265
   46MOL    H4926239   6.455   1.544   0.077 -0.9297 -1.0284 -1.2488
   46MOL    H5026240   6.692   1.738   0.038 -0.3761 -0.5060 -2.4143
   46MOL    H5126241   6.548   1.741   0.112 -0.6700 -1.5731 -0.5566
   46MOL    H5226242   6.579   1.963   0.049 -0.6670 -0.6174  0.5828
   46MOL    H5326243   6.450   1.905   7.638 -0.0604 -3.0632 -0.2458
   46MOL    H5426244   6.662   1.880   7.463  1.2511  1.8466 -0.5591
   46MOL    H5526245   6.593   2.035   7.501  1.8904  0.5065 -0.8106
   46MOL    H5626246   6.952   2.079   7.567  0.9804 -2.0741  1.1252
   46MOL    H5726247   6.827   2.223   7.487 -1.8706  0.3566 -0.5579
   46MOL    H5826248   6.853   1.860   7.370  1.0586  0.1502 -1.4112
   46MOL    H5926249   6.984   1.960   7.352  1.3120 -0.8063  0.2692
   46MOL    C6026250   6.962   1.761   7.602 -0.2050 -0.9624 -0.1145
   46MOL    C6126251   7.072   1.664   7.644 -0.9536  0.1839  0.2075
   46MOL    O6226252   7.062   1.543   7.564  0.0840  0.4486 -0.1757
   46MOL    C6326253   7.077   1.626   0.098  0.3389 -0.1645  0.1991
   46MOL    O6426254   7.207   1.570   0.120  0.0012  0.2770 -0.3235
   46MOL    C6526255   7.221   1.500   0.243 -0.2172 -0.4259 -0.0036
   46MOL    C6626256   7.360   1.452   0.254 -0.2779 -0.3559  0.2388
   46MOL    C6726257   7.395   1.328   0.167 -0.3738 -0.2167 -0.7923
   46MOL    O6826258   7.538   1.319   0.133 -0.6815 -0.3610 -0.1123
   46MOL    C6926259   7.573   1.207   0.054 -0.3529  0.2484 -0.1318
   46MOL    O7026260   7.538   1.223   7.616  0.0092  0.4561  0.7285
   46MOL    C7126261   0.029   1.194   0.061 -0.4549 -0.6512 -0.5237
   46MOL    O7226262   0.077   1.109   0.164 -0.0870 -0.2773  0.2244
   46MOL    H7326263   6.880   1.698   7.566  0.4695 -1.1010 -1.4234
   46MOL    H7426264   6.923   1.817   7.687  1.8643  1.0878 -0.4578
   46MOL    H7526265   7.158   1.727   7.621 -1.5555  0.8169 -0.3522
   46MOL    H7626266   7.096   1.479   7.624 -2.0326  0.7674  1.4217
   46MOL    H7726267   7.059   1.718   0.155 -3.3198 -1.8928  2.0311
   46MOL    H7826268   7.003   1.550   0.125  1.2212 -1.3812 -0.7856
   46MOL    H7926269   7.148   1.420   0.252  0.3427 -0.9290  0.1194
   46MOL    H8026270   7.190   1.567   0.323  0.9920 -2.5137  2.2824
   46MOL    H8126271   7.387   1.426   0.356  0.8253  0.2984  0.1143
   46MOL    H8226272   7.422   1.537   0.225 -3.2911  1.4629 -1.0794
   46MOL    H8326273   7.341   1.338   0.073 -3.5334  2.1258  1.1714
   46MOL    H8426274   7.357   1.235   0.208 -0.9409  0.4468  0.2283
   46MOL    H8526275   7.533   1.111   0.086 -0.2608 -0.6573 -2.6185
   46MOL    H8626276   7.596   1.293   7.591 -1.2796  1.2795  0.0041
   46MOL    H8726277   0.067   1.154   7.661  0.7249  0.1145 -0.3789
   46MOL    H8826278   0.077   1.291   0.065  1.6042 -1.6955  0.7192
   46MOL    C8926279   0.081   1.169   0.296 -0.1042  0.1580 -0.2943
   46MOL    C9026280   0.206   1.139   0.380  0.6307 -0.0440 -0.2645
   46MOL    O9126281   0.204   0.995   0.395 -0.0288 -0.3120 -0.2381
   46MOL    C9226282   0.344   1.196   0.332  0.7423  0.7413 -0.2654
   46MOL    O9326283   0.428   1.229   0.441 -0.1370  0.1202 -0.4422
   46MOL    C9426284   0.508   1.127   0.491  0.3156 -0.0112 -0.0020
   46MOL    C9526285   0.607   1.182   0.594  0.2055  0.7107 -0.3150
   46MOL    C9626286   0.694   1.079   0.664  0.1283 -0.3379  0.5218
   46MOL    O9726287   0.768   1.153   0.765  0.5441 -0.1279 -0.2256
   46MOL    C9826288   0.840   1.063   0.845 -0.2958  0.0658 -0.0003
   46MOL    O9926289   0.975   1.059   0.802  0.4484 -0.0235 -0.5250
   46MOL   C10026290   0.829   1.113   0.990 -0.5465  0.4192 -0.0269
   46MOL   O10126291   0.912   1.229   1.006  0.2043  0.5771  0.2012
   46MOL   H10226292   7.686   1.135   0.348  0.5748  0.5919  1.1838
   46MOL   H10326293   0.072   1.278   0.286  1.5921  0.3732  0.3564
   46MOL   H10426294   0.190   1.184   0.478  0.8199 -1.4654  0.4375
   46MOL   H10526295   0.201   0.961   0.307  1.4586  1.0412 -0.8336
   46MOL   H10626296   0.389   1.120   0.268 -0.0987 -0.2311  0.2754
   46MOL   H10726297   0.329   1.284   0.271  1.6543  0.2000 -1.2795
   46MOL   H10826298   0.563   1.078   0.410 -2.2991  0.7262 -2.3060
   46MOL   H10926299   0.445   1.057   0.546  0.3957  1.5371  2.1105
   46MOL   H11026300   0.563   1.245   0.671 -1.0215 -1.3620  0.7297
   46MOL   H11126301   0.674   1.256   0.550  0.5804  0.6853  0.2141
   46MOL   H11226302   0.634   1.007   0.720 -2.5418  1.6858  0.3354
   46MOL   H11326303   0.767   1.035   0.595  0.9765  0.9082  0.6148
   46MOL   H11426304   0.817   0.958   0.828  2.4130 -0.2851 -1.6376
   46MOL   H11526305   1.022   1.129   0.844  0.5660  0.4670 -1.4618
   46MOL   H11626306   0.729   1.139   1.026 -0.3006  0.1762  0.8636
   46MOL   H11726307   0.858   1.029   1.054 -0.5909  0.7867  0.4860
   46MOL   C11826308   0.854   1.349   0.960  0.1383 -0.2202  0.4358
   46MOL   C11926309   0.930   1.472   1.017  0.6272  0.9303 -0.6253
   46MOL   O12026310   0.912   1.489   1.148  0.1786 -0.2889 -0.0035
   46MOL   C12126311   0.908   1.599   0.937  0.4286 -0.8064 -0.6343
   46MOL   O12226312   0.897   1.582   0.802  0.4156 -0.6791  0.1464
   46MOL   C12326313   1.025   1.583   0.734  0.4247  0.2654 -0.3160
   46MOL   C12426314   0.991   1.573   0.585  0.2641 -0.5234 -0.1639
   46MOL   C12526315   0.900   1.458   0.535 -0.4622  0.1169  0.6204
   46MOL   O12626316   0.937   1.430   0.398  0.2317 -0.6438  0.6493
   46MOL   C12726317   0.880   1.321   0.338 -0.6070 -0.6772  0.2488
   46MOL   O12826318   0.928   1.197   0.384  0.0191  0.0959  0.0224
   46MOL   C12926319   0.923   1.329   0.191  0.1798  0.2060 -0.1260
   46MOL   O13026320   0.816   1.379   0.120 -0.5064 -0.4227 -0.3806
   46MOL   H13126321   0.878   1.347   0.853 -2.6713 -0.7939 -0.2310
   46MOL   H13226322   0.748   1.358   0.981  0.1544 -0.5073  0.6431
   46MOL   H13326323   1.037   1.457   1.005  0.3091 -0.2624 -2.1677
   46MOL   H13426324   0.953   1.414   1.188  0.6556  0.9683  1.9327
   46MOL   H13526325   0.819   1.647   0.977 -0.1295 -3.7567  1.9221
   46MOL   H13626326   0.992   1.665   0.959  0.0924 -0.4019 -0.5696
   46MOL   H13726327   1.078   1.494   0.769  1.0941  1.1544  0.9521
   46MOL   H13826328   1.085   1.670   0.759 -0.7839  1.4175 -1.3365
   46MOL   H13926329   1.087   1.568   0.534  0.7172 -1.1029  0.7371
   46MOL   H14026330   0.943   1.665   0.550 -1.5353 -1.6797 -0.7948
   46MOL   H14126331   0.920   1.373   0.600 -0.4169  0.9812  1.7444
   46MOL   H14226332   0.792   1.471   0.544 -0.6207 -1.0446  0.5107
   46MOL   H14326333   0.771   1.319   0.346 -0.4781 -1.3145  1.9005
   46MOL   H14426334   1.022   1.197   0.373 -0.0443 -0.5892 -0.5742
   46MOL   H14526335   1.022   1.376   0.189  1.5032 -2.4537 -1.2884
   46MOL   H14626336   0.941   1.230   0.149  1.5175 -0.3348  1.6548
   46MOL   C14726337   0.843   1.507   0.061  0.2245  0.0572 -0.1498
   46MOL   C14826338   0.710   1.553   0.001  0.6198 -0.3617 -0.0235
   46MOL   O14926339   0.746   1.659   7.615 -0.0324 -0.3257 -0.4833
   46MOL   C15026340   0.616   1.617   0.102  0.8435  1.1298 -0.0811
   46MOL   O15126341   0.492   1.639   0.024  0.0249  0.0173  0.1513
   46MOL   C15226342   0.381   1.704   0.093 -0.2523 -0.1519 -0.1464
   46MOL   C15326343   0.314   1.587   0.169  0.8774 -0.4278  0.5208
   46MOL   C15426344   0.183   1.619   0.227  0.3665 -0.3396  0.3150
   46MOL   O15526345   0.145   1.537   0.339 -0.5672  0.5333  0.2724
   46MOL   C15626346   0.053   1.586   0.422 -0.0346  0.0964 -0.7557
   46MOL   O15726347   0.107   1.680   0.513  0.2064  0.2703  0.1154
   46MOL   C15826348   7.681   1.477   0.500 -0.2420  0.2464  0.1298
   46MOL   O15926349   0.075   1.418   0.587  0.3309  0.4723  0.3884
   46MOL   H16026350   0.913   1.488   7.674  0.4072 -1.3769  0.3313
   46MOL   H16126351   0.899   1.588   0.108  2.4995 -1.0884 -0.8587
   46MOL   H16226352   0.655   1.476   7.640  0.3708 -0.5937  0.5452
   46MOL   H16326353   0.664   1.705   7.609 -0.3002 -0.7739 -0.2718
   46MOL   H16426354   0.608   1.558   0.194 -0.3163 -1.1769 -1.6143
   46MOL   H16526355   0.655   1.713   0.135 -0.1326  1.0629  1.3520
   46MOL   H16626356   0.318   1.757   0.022  0.8993  1.0558 -0.2921
   46MOL   H16726357   0.422   1.778   0.163  0.9834 -0.6359 -0.3474
   46MOL   H16826358   0.386   1.554   0.245  1.6090  3.7162  1.7152
   46MOL   H16926359   0.300   1.502   0.101  2.2916  0.1386 -0.5071
   46MOL   H17026360   0.202   1.723   0.253  4.2386 -0.4001 -1.8087
   46MOL   H17126361   0.107   1.605   0.151  1.8977 -1.4519 -1.0526
   46MOL   H17226362   7.675   1.643   0.364 -0.7499  0.8998  0.8909
   46MOL   H17326363   0.166   1.632   0.570  1.3034  2.2229  0.6842
   46MOL   H17426364   7.586   1.511   0.541 -0.3051 -1.1318  1.1722
   46MOL   H17526365   7.654   1.400   0.428 -0.3124  0.8758 -0.5252
   46MOL   C17626366   0.024   1.323   0.680 -0.3922  0.3317 -0.0798
   46MOL   C17726367   7.621   1.382   0.776  0.4964  0.1544  0.8658
   46MOL   O17826368   7.653   1.352   0.910  0.1711  0.1352  0.0041
   46MOL   C17926369   7.479   1.331   0.733  0.1919  0.0099  0.3187
   46MOL   O18026370   7.380   1.426   0.772  0.1476 -0.5073 -0.2758
   46MOL   C18126371   7.269   1.421   0.697  0.1176  0.1870 -0.2291
   46MOL   C18226372   7.159   1.509   0.759 -0.2095 -0.5044 -0.5021
   46MOL   C18326373   7.030   1.481   0.683  0.6047  0.2197 -0.1186
   46MOL   O18426374   6.918   1.556   0.729  0.5245 -0.1174 -0.0611
   46MOL   C18526375   6.797   1.514   0.674 -0.7806  0.3865  0.4484
   46MOL   O18626376   6.787   1.542   0.535  0.1121  0.1172  0.6303
   46MOL   C18726377   6.674   1.562   0.748 -0.5016 -0.4229  0.2864
   46MOL   O18826378   6.689   1.702   0.776  0.0880  0.0318  0.0296
   46MOL   H18926379   0.114   1.282   0.725  0.6628  0.3184 -2.1332
   46MOL   H19026380   7.682   1.237   0.624  1.1171 -0.6002  0.3595
   46MOL   H19126381   7.615   1.490   0.768  1.9640  0.1300 -0.6950
   46MOL   H19226382   7.595   1.401   0.967  0.4899 -0.3439  0.7502
   46MOL   H19326383   7.473   1.311   0.626  1.0886 -0.2184  0.3037
   46MOL   H19426384   7.456   1.229   0.764  0.6315 -0.2129 -0.0854
   46MOL   H19526385   7.242   1.317   0.681 -2.9467  1.0513 -0.8544
   46MOL   H19626386   7.295   1.451   0.596 -0.8035  0.6728 -0.3254
   46MOL   H19726387   7.182   1.615   0.747  0.5235 -0.7974 -1.8003
   46MOL   H19826388   7.137   1.480   0.861 -0.6562 -0.3369 -0.5501
   46MOL   H19926389   7.037   1.498   0.576 -1.0619  1.0890 -0.1040
   46MOL   H20026390   7.003   1.376   0.700  2.7863 -0.4841 -0.8176
   46MOL   H20126391   6.804   1.406   0.676 -0.6598  0.4051  1.2391
   46MOL   H20226392   6.758   1.461   0.496 -2.8239  1.3509  0.0606
   46MOL   H20326393   6.585   1.549   0.687  0.4735 -0.7901 -1.0935
   46MOL   H20426394   6.661   1.508   0.842 -3.9911  1.5955  1.0499
   46MOL   C20526395   6.570   1.756   0.842 -0.2111  0.1442  0.0485
   46MOL   C20626396   6.601   1.888   0.902 -0.2388 -0.0099  0.0008
   46MOL   O20726397   6.562   1.994   0.808 -0.4230  0.2576 -0.0424
   46MOL   C20826398   6.538   1.915   1.037 -0.5599 -0.0336  0.6197
   46MOL   O20926399   6.627   1.841   1.125 -0.6432  0.0701  0.2662
   46MOL   C21026400   6.601   1.882   1.267 -0.1986 -0.1761 -0.9867
   46MOL   C21126401   6.716   1.830   1.352 -0.1419  0.3010  0.1847
   46MOL   C21226402   6.761   1.910   1.470 -0.2674  0.8536 -0.0691
   46MOL   O21326403   6.864   2.009   1.438  0.0705 -0.6700 -0.0778
   46MOL   C21426404   6.893   2.087   1.547  0.5576  0.3108  0.0587
   46MOL   O21526405   6.786   2.168   1.592  0.9257 -0.2627  0.8959
   46MOL   C21626406   7.012   2.168   1.516 -0.8639 -0.5380 -0.4308
   46MOL   O21726407   7.088   2.175   1.634  0.4618  0.1950  0.8154
   46MOL   H21826408   6.520   1.690   0.913 -2.8699 -2.3508 -3.9391
   46MOL   H21926409   6.488   1.773   0.772 -1.3990  1.2046  1.6525
   46MOL   H22026410   6.709   1.897   0.908 -0.0900 -1.4997 -0.1962
   46MOL   H22126411   6.628   1.984   0.742 -0.9766 -1.0483 -0.4141
   46MOL   H22226412   6.556   2.018   1.069 -2.0196  0.0555  1.1785
   46MOL   H22326413   6.431   1.901   1.053 -0.1503 -1.9866  1.8878
   46MOL   H22426414   6.504   1.843   1.296 -0.0862  0.7574  0.6871
   46MOL   H22526415   6.592   1.990   1.270 -2.3291 -0.3439 -0.4522
   46MOL   H22626416   6.802   1.826   1.284 -0.9971  0.8264 -0.9577
   46MOL   H22726417   6.697   1.726   1.379  0.7787  0.1202  0.1611
   46MOL   H22826418   6.668   1.945   1.516 -0.9840 -1.3443  0.2160
   46MOL   H22926419   6.801   1.840   1.544 -0.4906  0.4130 -0.3648
   46MOL   H23026420   6.917   2.016   1.626 -1.4112 -0.1777  0.2463
   46MOL   H23126421   6.774   2.241   1.534 -1.1216 -1.8688 -0.7652
   46MOL   H23226422   7.067   2.122   1.434 -0.5027 -0.7509 -0.0689
   46MOL   H23326423   6.984   2.267   1.479  2.3473  0.1982 -0.9912
   46MOL   C23426424   7.183   2.278   1.642  0.6615 -0.0232  0.1293
   46MOL   C23526425   7.238   2.287   1.778 -0.1609 -0.7146 -0.6570
   46MOL   O23626426   7.327   2.396   1.785 -0.1629 -0.4061  0.6836
   46MOL   C23726427   7.333   2.169   1.812  0.2002 -0.5477  0.2412
   46MOL   O23826428   7.379   2.169   1.951 -0.4148  0.0873 -0.4002
   46MOL   C23926429   7.485   2.076   1.970  0.1908  0.4863  0.0501
   46MOL   C24026430   7.515   2.057   2.119 -0.1217  0.5188 -0.4859
   46MOL   C24126431   7.582   1.921   2.153 -0.8731 -0.5675  0.3499
   46MOL   O24226432   7.485   1.809   2.144  0.4082  0.3038  0.1363
   46MOL   C24326433   7.483   1.723   2.250  0.3037 -0.5347  0.1215
   46MOL   O24426434   7.591   1.643   2.245  0.3034  0.1405  0.0369
   46MOL   C24526435   7.355   1.640   2.247  0.5904  0.8331  0.7405
   46MOL   O24626436   7.240   1.721   2.250  0.0569  0.1825  0.5255
   46MOL   H24726437   7.254   2.261   1.561 -1.3275 -0.2867 -1.5928
   46MOL   H24826438   7.134   2.375   1.633  0.6576 -0.2629 -2.7532
   46MOL   H24926439   7.174   2.324   1.858  3.1907  2.0844  0.8793
   46MOL   H25026440   7.372   2.416   1.705 -0.5015  0.6062  0.7348
   46MOL   H25126441   7.275   2.076   1.808  1.2530 -1.1704 -0.9842
   46MOL   H25226442   7.400   2.147   1.729 -1.2090  0.6574 -1.2542
   46MOL   H25326443   7.577   2.099   1.916 -0.3067  0.2713 -0.8953
   46MOL   H25426444   7.454   1.974   1.946  0.2932 -0.3600  3.3097
   46MOL   H25526445   7.424   2.060   2.178  1.4881  0.3129  2.0606
   46MOL   H25626446   7.579   2.139   2.152 -0.4457  0.5658  0.0181
   46MOL   H25726447   7.665   1.909   2.084  0.5956 -1.1654  2.1645
   46MOL   H25826448   7.629   1.929   2.251 -3.2167 -0.4415  1.5139
   46MOL   H25926449   7.489   1.772   2.347  0.2696  1.1313 -0.7044
   46MOL   H26026450   7.590   1.584   2.171  0.3366 -0.6007  0.6172
   46MOL   H26126451   7.346   1.591   2.150  2.7441 -0.0951  0.9735
   46MOL   H26226452   7.350   1.563   2.324 -1.6047 -0.4081 -0.5765
   46MOL   C26326453   7.198   1.787   2.133  0.4687 -0.0694 -0.3802
   46MOL   C26426454   7.103   1.910   2.159  0.0148  0.5751 -0.3315
   46MOL   O26526455   7.169   2.014   2.221  0.1851 -0.2508 -0.2712
   46MOL   C26626456   7.057   1.951   2.026  0.1574  0.1773 -0.6758
   46MOL   O26726457   6.958   2.053   2.039  0.0263 -0.0828  0.1357
   46MOL   C26826458   6.915   2.124   1.920  0.4648 -0.1426 -0.2733
   46MOL   C26926459   6.824   2.243   1.956  0.6742  0.5445  0.0196
   46MOL   C27026460   6.878   2.361   1.870  0.2498  0.7707 -0.7822
   46MOL   O27126461   6.787   2.471   1.883  0.8735  0.0867 -0.0790
   46MOL   C27226462   6.843   2.600   1.868 -0.7537  0.1136 -0.0511
   46MOL   O27326463   6.917   2.645   1.977 -0.1344 -0.8459  0.1675
   46MOL   C27426464   6.923   2.606   1.735 -0.8916 -0.1063  0.0628
   46MOL   O27526465   6.844   2.577   1.618 -0.3934  1.0063  0.6334
   46MOL   H27626466   7.148   1.706   2.080 -0.4102  0.3802 -0.2490
   46MOL   H27726467   7.284   1.809   2.071 -0.3713  1.9688 -0.8773
   46MOL   H27826468   7.009   1.876   2.203 -0.7721  1.2659 -1.4507
   46MOL   H27926469   7.181   2.085   2.160 -2.6608 -0.3429 -0.9799
   46MOL   H28026470   7.148   1.987   1.977  1.4850 -1.0969  0.7745
   46MOL   H28126471   7.029   1.873   1.956 -1.8039  0.4584 -0.2330
   46MOL   H28226472   6.855   2.051   1.865  0.9022  0.1410 -1.1468
   46MOL   H28326473   7.006   2.162   1.873 -0.3078  2.6272  0.3998
   46MOL   H28426474   6.819   2.266   2.063 -1.0859 -0.4818  0.1796
   46MOL   H28526475   6.721   2.229   1.923  0.9577  0.0730 -0.6790
   46MOL   H28626476   6.978   2.387   1.904  0.2508  0.2031 -0.3401
   46MOL   H28726477   6.878   2.322   1.769 -1.0996 -0.0742 -0.4797
   46MOL   H28826478   6.757   2.666   1.864 -1.5863 -0.8732  1.1072
   46MOL   H28926479   6.991   2.587   1.974 -0.0858 -0.7798  0.0625
   46MOL   H29026480   6.966   2.707   1.737 -1.6793  0.2176  2.0039
   46MOL   H29126481   7.005   2.535   1.740 -1.4208 -0.6454  1.1599
   46MOL   C29226482   6.912   2.571   1.489 -0.3802 -0.6254  0.4204
   46MOL   C29326483   6.818   2.516   1.375  0.3840 -1.3140 -0.4264
   46MOL   O29426484   6.772   2.387   1.400  0.4107  0.2794  0.4074
   46MOL   C29526485   6.683   2.597   1.358 -0.0003 -0.3863  0.3850
   46MOL   O29626486   6.605   2.545   1.254  0.1028 -0.4128  0.6378
   46MOL   C29726487   6.519   2.632   1.195  0.4840  0.5434 -0.8947
   46MOL   C29826488   6.420   2.553   1.115  0.8038  0.7519 -0.6318
   46MOL   C29926489   6.288   2.621   1.092 -0.5137 -0.3314 -0.1759
   46MOL   O30026490   6.207   2.536   1.011 -0.6985  0.7252  0.5321
   46MOL   C30126491   6.093   2.593   0.978  0.2496  0.2039 -0.2827
   46MOL   O30226492   6.116   2.693   0.881  0.4704  0.1857  0.0185
   46MOL   C30326493   6.008   2.487   0.919 -0.0082 -0.1774  0.3358
   46MOL   O30426494   5.945   2.424   1.021 -0.4077 -0.1263  0.2923
   46MOL   H30526495   6.946   2.668   1.454 -0.7400  0.2572  2.4415
   46MOL   H30626496   6.999   2.505   1.496  1.7974  1.8832 -2.0057
   46MOL   H30726497   6.876   2.514   1.283  1.5358  2.5053  0.1293
   46MOL   H30826498   6.697   2.377   1.343 -0.1344  0.0040  1.1598
   46MOL   H30926499   6.629   2.605   1.453 -1.3092  0.9943 -0.4610
   46MOL   H31026500   6.712   2.700   1.341  0.7946 -0.3129  2.1147
   46MOL   H31126501   6.565   2.711   1.135  0.8772  1.3781  0.4846
   46MOL   H31226502   6.471   2.698   1.268  1.3931  0.3654 -0.1257
   46MOL   H31326503   6.392   2.460   1.165  0.2620  1.8033  1.0580
   46MOL   H31426504   6.448   2.533   1.012 -1.2592 -1.7900 -0.7578
   46MOL   H31526505   6.251   2.633   1.194  2.0644  1.0097  0.6372
   46MOL   H31626506   6.307   2.713   1.037  0.6307 -1.0007 -0.9242
   46MOL   H31726507   6.056   2.638   1.071 -0.2592 -2.1120  0.6724
   46MOL   H31826508   6.105   2.651   0.797 -1.4363 -0.3887  0.5228
   46MOL   H31926509   6.058   2.417   0.852 -0.5324 -0.2236 -0.0175
   46MOL   H32026510   5.938   2.538   0.853  2.5420  1.9162 -0.8658
   46MOL   C32126511   5.852   2.325   0.980  0.0012  0.0443 -0.0744
   46MOL   C32226512   5.729   2.339   1.068  0.0891 -0.0632  0.5024
   46MOL   O32326513   5.650   2.443   1.019 -0.2293  0.0671 -0.8140
   46MOL   C32426514   5.642   2.216   1.080  0.0670  0.7851  0.5198
   46MOL   O32526515   5.694   2.102   1.143 -0.0929 -0.6083  0.4840
   46MOL   C32626516   5.751   2.117   1.270 -0.7460 -0.7734  0.5700
   46MOL   C32726517   5.747   1.977   1.340 -0.3877 -0.7319 -0.2274
   46MOL   C32826518   5.805   1.979   1.489  0.2171 -0.2865 -0.2495
   46MOL   O32926519   5.796   1.848   1.545  0.0252 -0.0154 -0.4000
   46MOL   C33026520   5.836   1.849   1.672 -0.0689 -0.3097  0.0150
   46MOL   O33126521   5.736   1.899   1.763  0.6188 -0.0744 -0.3765
   46MOL   C33226522   5.885   1.708   1.712 -0.1059  0.5048 -0.0834
   46MOL   O33326523   6.021   1.718   1.734  0.1859  0.0864  1.0250
   46MOL   H33426524   5.910   2.236   1.003  3.7665  2.5329  0.5251
   46MOL   H33526525   5.833   2.329   0.872  2.6781  1.4271 -0.5555
   46MOL   H33626526   5.760   2.356   1.171 -1.8184 -0.0167  1.1039
   46MOL   H33726527   5.638   2.427   0.927  1.2891 -0.4072 -0.9381
   46MOL   H33826528   5.603   2.200   0.980 -0.4702  0.7456  0.7296
   46MOL   H33926529   5.548   2.241   1.131  0.1466 -0.2292  1.1748
   46MOL   H34026530   5.690   2.190   1.323 -1.4665  0.7329 -2.2494
   46MOL   H34126531   5.852   2.160   1.269 -1.1390  0.2871  3.3048
   46MOL   H34226532   5.648   1.932   1.347  0.8125 -3.7148 -1.7974
   46MOL   H34326533   5.816   1.912   1.286 -1.3755 -0.9547 -1.2425
   46MOL   H34426534   5.907   2.018   1.479  0.2733 -0.6889 -1.3356
   46MOL   H34526535   5.744   2.043   1.552  3.3945 -1.1410  3.8968
   46MOL   H34626536   5.925   1.911   1.681 -1.1739  1.3260 -0.2627
   46MOL   H34726537   5.785   1.906   1.843  0.2869  1.4991 -0.2997
   46MOL   H34826538   5.828   1.673   1.799 -1.0368  1.1763 -0.4186
   46MOL   H34926539   5.847   1.636   1.639 -0.7281 -1.4055  2.0249
   46MOL   C35026540   6.092   1.682   1.610 -0.7131 -0.3935 -0.4263
   46MOL   C35126541   6.234   1.739   1.628 -0.4019  0.1609 -0.5872
   46MOL   O35226542   6.318   1.645   1.682 -0.4166 -0.1265 -0.3612
   46MOL   C35326543   6.297   1.792   1.493 -0.4689  0.3698  0.3458
   46MOL   O35426544   6.219   1.908   1.446  0.1314  0.0109 -0.0678
   46MOL   C35526545   6.278   1.972   1.340  0.4821 -0.0920  0.1484
   46MOL   C35626546   6.185   2.088   1.290 -0.1363  0.1641  0.0240
   46MOL   C35726547   6.243   2.184   1.188 -0.3539 -0.6786  0.3472
   46MOL   O35826548   6.288   2.126   1.072  0.4023  0.2202  0.6529
   46MOL   C35926549   6.315   2.215   0.972  0.0561  0.2918 -0.0437
   46MOL   O36026550   6.457   2.242   0.981 -0.8459  0.0127  0.5658
   46MOL   C36126551   6.281   2.152   0.835 -0.2152 -0.3766  0.2273
   46MOL   O36226552   6.150   2.186   0.805 -0.1779 -0.0969 -0.0594
   46MOL   H36326553   6.046   1.732   1.524  2.5794  2.4869 -0.6488
   46MOL   H36426554   6.086   1.574   1.596 -1.5730 -0.3098 -0.7140
   46MOL   H36526555   6.227   1.820   1.701 -1.0612  2.1842 -2.8392
   46MOL   H36626556   6.406   1.678   1.693 -0.3184  0.3105 -2.2705
   46MOL   H36726557   6.398   1.829   1.510 -0.1617  0.2462 -1.2066
   46MOL   H36826558   6.300   1.718   1.413 -2.3598  0.2153  0.3888
   46MOL   H36926559   6.280   1.905   1.254 -0.4310  1.0424 -0.7773
   46MOL   H37026560   6.375   2.015   1.365  0.6139 -0.3867  0.1454
   46MOL   H37126561   6.153   2.155   1.369  1.8510  1.3902 -0.1992
   46MOL   H37226562   6.090   2.054   1.248 -0.1071  1.7752 -1.4112
   46MOL   H37326563   6.174   2.266   1.169  0.8457  0.0029 -1.1756
   46MOL   H37426564   6.329   2.223   1.242 -1.2204 -2.4943  3.1731
   46MOL   H37526565   6.261   2.309   0.983 -0.9577 -0.4058  1.0458
   46MOL   H37626566   6.502   2.179   0.927 -0.0592 -0.4954  1.7850
   46MOL   H37726567   6.346   2.195   0.758  1.2284  0.6509  1.9895
   46MOL   H37826568   6.290   2.044   0.849 -1.0701 -0.4091  0.5391
   46MOL   C37926569   6.113   2.118   0.687 -0.6221 -0.5256  0.2684
   46MOL   C38026570   5.971   2.157   0.656 -0.2151 -0.3396 -0.3167
   46MOL   O38126571   5.955   2.298   0.642 -0.1003 -0.2579  0.3184
   46MOL   C38226572   5.937   2.110   0.516 -0.6075  0.5680  0.0090
   46MOL   O38326573   5.794   2.127   0.507 -0.5140  0.0103  0.7209
   46MOL   C38426574   5.742   2.104   0.377 -0.2793  0.5980 -0.1361
   46MOL   C38526575   5.605   2.164   0.367  0.0922 -0.6273  0.7495
   46MOL   C38626576   5.601   2.320   0.363 -0.2862 -1.3758 -0.1532
   46MOL   O38726577   5.628   2.362   0.497  0.2732  0.6986  0.1019
   46MOL   C38826578   5.624   2.500   0.520  0.3656 -0.5093 -0.2215
   46MOL   O38926579   5.501   2.557   0.494  0.6156  0.0631  0.6103
   46MOL   C39026580   5.660   2.522   0.662  0.4104 -0.6431 -0.6300
   46MOL   O39126581   5.598   2.430   0.748  0.1169  0.5692  0.1172
   46MOL   H39226582   6.132   2.011   0.694  1.0735 -0.3007 -0.7360
   46MOL   H39326583   6.171   2.153   0.602  0.8784 -1.2472  0.9772
   46MOL   H39426584   5.898   2.130   0.733  1.8548 -2.2369  1.0433
   46MOL   H39526585   5.862   2.304   0.624 -0.0049 -0.7053 -0.3674
   46MOL   H39626586   5.988   2.171   0.442 -0.1298  0.8288  0.5534
   46MOL   H39726587   5.976   2.010   0.495 -0.7871  0.8262 -1.5838
   46MOL   H39826588   5.742   1.999   0.345 -2.1832  1.4365 -3.0855
   46MOL   H39926589   5.798   2.156   0.299  1.5280 -0.4249  0.4436
   46MOL   H40026590   5.531   2.120   0.434 -0.0040  0.8990  1.6819
   46MOL   H40126591   5.578   2.130   0.267  1.8404  1.1954 -0.3814
   46MOL   H40226592   5.665   2.375   0.295 -0.2316 -0.1274  0.8883
   46MOL   H40326593   5.499   2.349   0.338 -0.9648 -0.6913  3.1355
   46MOL   H40426594   5.696   2.545   0.451 -1.3515  2.0314 -0.3993
   46MOL   H40526595   5.489   2.643   0.532 -2.8171 -0.1025  0.0403
   46MOL   H40626596   5.765   2.502   0.682 -0.1804 -2.8736  0.4281
   46MOL   H40726597   5.628   2.625   0.675 -0.8710 -1.0385 -0.5168
   46MOL   C40826598   5.455   2.437   0.765  0.0219  0.3110  0.5894
   46MOL   C40926599   5.390   2.302   0.752 -0.3731  0.1960  0.2872
   46MOL   O41026600   5.408   2.262   0.619  0.2765  0.5438 -0.4426
   46MOL   C41126601   5.239   2.300   0.784 -0.2371 -0.0476  0.1041
   46MOL   O41226602   5.173   2.411   0.719 -0.0570  0.2155 -0.2685
   46MOL   C41326603   5.041   2.436   0.771  0.5860  0.1369  0.4487
   46MOL   C41426604   4.996   2.566   0.702  0.3072  0.1795 -0.6507
   46MOL   C41526605   5.020   2.579   0.556  0.2417  0.0869 -0.0354
   46MOL   O41626606   4.915   2.496   0.499  0.3295  0.1335  0.2262
   46MOL   C41726607   4.894   2.524   0.364  0.0712  0.0346 -0.1702
   46MOL   O41826608   4.858   2.662   0.356 -0.5740 -0.1545  0.2928
   46MOL   C41926609   4.784   2.442   0.305  0.6159 -0.1918 -0.4660
   46MOL   O42026610   4.783   2.474   0.170  0.1830 -0.2048  0.3318
   46MOL   H42126611   5.401   2.509   0.704 -0.1784  1.0436  1.6188
   46MOL   H42226612   5.446   2.463   0.870  2.1734 -2.0884  1.4364
   46MOL   H42326613   5.443   2.227   0.810  0.4993 -0.5799 -1.4969
   46MOL   H42426614   5.493   2.288   0.586  1.5907 -2.6473  0.2105
   46MOL   H42526615   5.188   2.208   0.758  0.1715 -0.2069 -0.1413
   46MOL   H42626616   5.232   2.316   0.892  0.1564  0.4611  0.0598
   46MOL   H42726617   4.972   2.356   0.745 -1.6670  1.2414  2.7567
   46MOL   H42826618   5.042   2.454   0.879 -2.9565  0.8292  0.4278
   46MOL   H42926619   5.033   2.653   0.757 -2.2692  0.3377  0.9454
   46MOL   H43026620   4.891   2.579   0.729  0.2467 -0.6916 -0.4629
   46MOL   H43126621   5.006   2.685   0.533  0.2612  0.4115  1.4299
   46MOL   H43226622   5.120   2.564   0.515  0.1012  0.0899 -0.3861
   46MOL   H43326623   4.980   2.514   0.298 -1.4603 -1.1818 -2.0574
   46MOL   H43426624   4.767   2.674   0.332 -0.7168 -0.9680  0.4206
   46MOL   H43526625   4.813   2.338   0.319  0.4578 -0.3473 -1.2522
   46MOL   H43626626   4.692   2.464   0.358  0.7391 -0.8975  0.0534
   46MOL   C43726627   4.697   2.389   0.096 -0.8459  0.2752  0.0529
   46MOL   C43826628   4.710   2.424   7.636 -0.1347 -0.6973  0.4932
   46MOL   O43926629   4.651   2.549   7.607 -0.2338  0.1561 -0.2072
   46MOL   C44026630   4.639   2.325   7.553 -0.4288 -0.5182  0.1322
   46MOL   O44126631   4.647   2.377   7.419  0.4383 -0.5217 -0.0088
   46MOL   C44226632   4.544   2.329   7.335  0.0016 -0.6655 -0.1753
   46MOL   C44326633   4.592   2.197   7.276  0.3064  0.2767  0.1580
   46MOL   C44426634   4.703   2.212   7.180 -0.0952 -0.5065 -0.1998
   46MOL   O44526635   4.754   2.081   7.144  0.7997  0.0988 -0.4682
   46MOL   C44626636   4.835   2.087   7.027  0.2753  0.2382 -0.0038
   46MOL   O44726637   4.765   2.125   6.912 -0.0227 -0.0458 -0.3022
   46MOL   C44826638   4.891   1.952   7.002 -0.2788  0.3408  0.1822
   46MOL   O44926639   4.785   1.864   6.978  0.1502  0.6651  0.5746
   46MOL   H45026640   4.741   2.290   0.107  0.8230  1.1780  1.9699
   46MOL   H45126641   4.597   2.387   0.140 -0.8111  0.3610  0.1372
   46MOL   H45226642   4.814   2.430   7.604 -0.4910 -1.8014 -0.9268
   46MOL   H45326643   4.635   2.554   7.514 -1.7016 -0.4604  0.0015
   46MOL   H45426644   4.680   2.224   7.551  1.1474  0.1225 -1.9835
   46MOL   H45526645   4.535   2.329   7.585 -1.1739 -3.5167 -1.7316
   46MOL   H45626646   4.533   2.393   7.247  1.0555 -0.9729 -0.5355
   46MOL   H45726647   4.446   2.320   7.381  0.7645  1.1269  1.9109
   46MOL   H45826648   4.501   2.152   7.237  0.7316  0.1760 -0.7254
   46MOL   H45926649   4.629   2.134   7.358  1.4794 -0.4009 -0.8830
   46MOL   H46026650   4.658   2.264   7.095  0.9307  2.9829  1.3083
   46MOL   H46126651   4.787   2.270   7.216 -2.3490  1.7878  1.5959
   46MOL   H46226652   4.911   2.165   7.031  0.8844 -0.4044  1.3174
   46MOL   H46326653   4.714   2.054   6.878 -3.2502  1.6754  0.7499
   46MOL   H46426654   4.956   1.960   6.915 -1.7524 -0.6664 -1.0526
   46MOL   H46526655   4.942   1.918   7.092 -2.4406  2.0000  2.0812
   46MOL   C46626656   4.840   1.730   6.955  0.0687 -0.2925  0.7814
   46MOL   C46726657   4.723   1.642   6.919  0.6471  0.0363 -0.1990
   46MOL   O46826658   4.690   1.667   6.790 -0.2903  0.4926  0.4678
   46MOL   C46926659   4.755   1.490   6.931  0.4110 -0.1994 -0.1539
   46MOL   O47026660   4.752   1.463   7.075 -0.0132 -0.6637  0.3007
   46MOL   C47126661   4.765   1.325   7.101 -0.4655  0.0483 -0.7587
   46MOL   C47226662   4.743   1.299   7.247  0.0854  0.1786  0.7373
   46MOL   C47326663   4.841   1.359   7.341 -0.0837  0.8777 -0.5601
   46MOL   O47426664   4.787   1.356   7.470  0.1127 -0.2002  0.5040
   46MOL   C47526665   4.865   1.393   7.578  0.0638 -0.3988 -0.1081
   46MOL   O47626666   4.953   1.293   7.609 -0.5263 -0.6792  0.1010
   46MOL   C47726667   4.777   1.415   0.001  0.0364  0.1650 -0.3668
   46MOL   O47826668   4.685   1.303   0.010  0.4408  0.0895 -0.1698
   46MOL   H47926669   4.886   1.689   7.045  2.8051 -1.1960 -0.9871
   46MOL   H48026670   4.921   1.731   6.882 -1.3472 -2.0325 -0.8550
   46MOL   H48126671   4.638   1.657   6.985  0.4307 -1.1506 -0.1872
   46MOL   H48226672   4.639   1.746   6.798  0.1236  0.6913  1.2944
   46MOL   H48326673   4.677   1.437   6.877  1.5306 -1.8945 -0.1605
   46MOL   H48426674   4.850   1.462   6.885  1.8442  1.8921  1.4018
   46MOL   H48526675   4.870   1.309   7.078  0.2891  0.1351  2.4402
   46MOL   H48626676   4.694   1.275   7.034  0.1054 -2.2182  0.3124
   46MOL   H48726677   4.731   1.193   7.269  2.6381 -0.0086  1.3051
   46MOL   H48826678   4.644   1.341   7.266 -0.4902 -1.5345  1.6919
   46MOL   H48926679   4.934   1.303   7.335  0.4742  1.7843 -0.4609
   46MOL   H49026680   4.864   1.459   7.305  1.4463  1.0499  0.8751
   46MOL   H49126681   4.919   1.483   7.550 -2.0714  0.7591 -0.6532
   46MOL   H49226682   4.894   1.221   7.626 -0.9476 -0.3335  0.1200
   46MOL   H49326683   4.849   1.405   0.082  0.3878 -2.4799 -0.9766
   46MOL   H49426684   4.735   1.515   0.016 -1.4871 -0.7299  1.6147
   46MOL   C49526685   4.637   1.292   0.147  0.8300  0.5425 -0.0562
   46MOL   C49626686   4.546   1.170   0.169  0.2646  0.7030 -0.6524
   46MOL   O49726687   4.632   1.057   0.173  0.5059 -0.5473 -0.2916
   46MOL   C49826688   4.483   1.187   0.313 -0.3758 -0.4734 -0.6843
   46MOL   O49926689   4.375   1.090   0.339  0.0362 -0.5092 -0.7582
   46MOL   C50026690   4.418   0.976   0.411  0.1718 -0.0779 -2.0324
   46MOL   C50126691   4.295   0.899   0.453 -0.1034 -0.3378  0.0731
   46MOL   C50226692   4.217   0.977   0.564 -0.4116  0.4847 -0.2676
   46MOL   O50326693   4.080   0.923   0.567 -0.4011  0.6202 -0.1289
   46MOL   C50426694   4.011   0.926   0.690 -0.2783 -0.6614 -0.0194
   46MOL   O50526695   4.049   0.817   0.772 -0.7375  0.0403 -0.5574
   46MOL   C50626696   3.863   0.931   0.666  0.5096  0.2309 -0.2007
   46MOL   O50726697   3.820   1.062   0.640 -0.1303  0.3514  0.1211
   46MOL   H50826698   4.583   1.381   0.175 -1.7193 -1.5325  1.8557
   46MOL   H50926699   4.726   1.292   0.210  0.3089 -2.5844  0.7732
   46MOL   H51026700   4.469   1.159   0.092 -0.6273 -0.5541  0.3998
   46MOL   H51126701   4.698   1.069   0.106  0.1037  0.9804 -0.4415
   46MOL   H51226702   4.550   1.199   0.398 -1.1240 -0.6159 -0.0678
   46MOL   H51326703   4.428   1.281   0.321  0.9932  0.3632 -1.0643
   46MOL   H51426704   4.463   1.005   0.506 -0.6619  1.5378 -2.1107
   46MOL   H51526705   4.467   0.905   0.344 -1.8358 -0.1553 -3.4812
   46MOL   H51626706   4.343   0.808   0.488  0.6188 -0.3147 -0.8472
   46MOL   H51726707   4.231   0.874   0.368 -0.5916  0.6239  0.1480
   46MOL   H51826708   4.270   0.965   0.658  1.7829  0.4862 -1.4803
   46MOL   H51926709   4.218   1.085   0.545  1.6383  0.5248  0.0259
   46MOL   H52026710   4.049   1.011   0.747 -1.2742 -0.6212  0.5901
   46MOL   H52126711   4.011   0.830   0.858 -0.4702  0.7585 -0.5464
   46MOL   H52226712   3.835   0.856   0.592 -2.3507  1.5088 -0.4856
   46MOL   H52326713   3.807   0.899   0.754 -2.4557 -2.6435 -2.9777
   46MOL   C52426714   3.795   1.077   0.502 -0.7658 -0.2930  0.2733
   46MOL   C52526715   3.778   1.233   0.484 -0.2258  0.2905  0.2001
   46MOL   O52626716   3.655   1.276   0.538 -0.2300 -0.1984  0.0849
   46MOL   C52726717   3.776   1.275   0.337 -0.6021  0.1713 -0.3828
   46MOL   O52826718   3.913   1.260   0.278  0.4592  0.0588  0.1337
   46MOL   C52926719   4.016   1.352   0.322  0.0760  0.5427  0.3211
   46MOL   C53026720   4.147   1.339   0.247  0.2941 -0.5880  0.4759
   46MOL   C53126721   4.151   1.394   0.109 -0.1327 -0.3203  0.5225
   46MOL   O53226722   4.270   1.352   0.046 -0.5350  0.7831  0.3015
   46MOL   C53326723   4.321   1.453   7.663  0.3200  0.0141 -0.1146
   46MOL   O53426724   4.411   1.529   0.045 -0.1171  0.6917  0.5343
   46MOL   C53526725   4.398   1.392   7.540 -0.1712 -0.3162  0.4053
   46MOL   O53626726   4.312   1.391   7.426  0.3731 -0.0273  0.5656
   46MOL   H53726727   3.705   1.026   0.469 -1.5997  2.1708 -1.4560
   46MOL   H53826728   3.877   1.041   0.440 -1.4753 -2.2387  0.4385
   46MOL   H53926729   3.869   1.274   0.527  1.4724 -1.1078 -1.8783
   46MOL   H54026730   3.580   1.240   0.493 -0.9968  1.1553  0.2494
   46MOL   H54126731   3.700   1.216   0.285  1.1482 -0.8655 -1.7988
   46MOL   H54226732   3.732   1.374   0.321  0.0669  0.4912 -0.2584
   46MOL   H54326733   4.039   1.327   0.425 -0.2552  0.2116  0.3180
   46MOL   H54426734   3.969   1.449   0.313 -0.8470  0.0157 -0.6671
   46MOL   H54526735   4.186   1.238   0.249  1.5654 -0.1071  3.3225
   46MOL   H54626736   4.214   1.397   0.312  0.0867 -0.4716  0.5868
   46MOL   H54726737   4.069   1.360   0.046 -1.6791 -0.1033  2.3948
   46MOL   H54826738   4.139   1.503   0.109  0.3363 -0.2685  0.8048
   46MOL   H54926739   4.249   1.519   7.617  2.0323  0.3527 -2.4022
   46MOL   H55026740   4.492   1.527   7.692 -0.0830  0.4002  0.6048
   46MOL   H55126741   4.476   1.465   7.519  0.4351 -1.3997 -1.2915
   46MOL   H55226742   4.436   1.292   7.562 -0.4622 -0.1673  1.6085
   46MOL   C55326743   4.376   1.392   7.296 -0.1379  0.3282  0.2647
   46MOL   C55426744   4.387   1.251   7.246 -0.0062 -0.7495  0.3254
   46MOL   O55526745   4.435   1.262   7.113 -0.2033  0.2117  0.2467
   46MOL   C55626746   4.248   1.177   7.252  0.2062 -0.6259  0.4199
   46MOL   O55726747   4.265   1.035   7.254 -0.4993 -0.3673  0.2094
   46MOL   C55826748   4.140   0.965   7.241  0.0272 -0.3716 -0.0569
   46MOL   C55926749   4.151   0.814   7.266  0.2821  0.3883  0.4334
   46MOL   C56026750   4.019   0.744   7.251  0.0376 -0.7347  0.1803
   46MOL   O56126751   3.928   0.771   7.355  0.7803 -0.2089  0.2011
   46MOL   C56226752   3.925   0.682   7.460 -0.0470  0.8911  0.4637
   46MOL   O56326753   4.027   0.711   7.551 -0.1700  0.1350  0.0621
   46MOL   C56426754   3.791   0.694   7.535  0.1268 -0.0837 -0.3019
   46MOL   O56526755   3.791   0.810   7.621  0.7120  0.0155  0.0541
   46MOL   H56626756   4.464   1.455   7.288  0.2587 -0.1911  0.5081
   46MOL   H56726757   4.307   1.444   7.230 -0.3037 -0.0506  0.1358
   46MOL   H56826758   4.454   1.201   7.316  0.7495 -1.0819 -0.6265
   46MOL   H56926759   4.403   1.183   7.073 -2.8798  1.1512  0.4166
   46MOL   H57026760   4.191   1.201   7.341  2.0560  0.7814  1.2462
   46MOL   H57126761   4.183   1.213   7.172  0.4236  0.7164  0.8542
   46MOL   H57226762   4.074   1.016   7.311  2.5167  0.4665  1.8008
   46MOL   H57326763   4.096   0.979   7.142  1.2517  0.9563 -0.4268
   46MOL   H57426764   4.187   0.799   7.368 -1.2735  1.1513  1.0970
   46MOL   H57526765   4.218   0.768   7.193 -1.1241 -2.4320  0.8758
   46MOL   H57626766   3.967   0.771   7.159  0.4562  0.3989  0.2714
   46MOL   H57726767   4.026   0.636   7.242 -2.2622 -0.9002  0.0677
   46MOL   H57826768   3.923   0.578   7.426  0.7853  0.7396  0.8672
   46MOL   H57926769   4.006   0.801   7.571 -1.7996 -0.3377  0.5552
   46MOL   H58026770   3.707   0.705   7.466  0.8858  0.6638 -1.1143
   46MOL   H58126771   3.758   0.608   7.594  0.2316  0.3588  0.4130
   46MOL   H58226772   3.853   0.786   7.689  1.8638 -1.7940 -1.5937
   47MOL     C126773   2.183   7.231   2.344 -0.1436 -0.2386  0.3121
   47MOL     C226774   2.200   7.352   2.431  0.2586  0.2389 -0.1904
   47MOL     O326775   2.109   7.463   2.399  0.6913 -0.4372  0.2870
   47MOL     C426776   2.211   7.328   2.582  0.5211 -0.2306  0.5850
   47MOL     O526777   2.081   7.272   2.616  0.7307 -0.2394 -0.2290
   47MOL     C626778   2.022   7.326   2.733  0.5524 -0.5638 -0.2971
   47MOL     C726779   1.876   7.281   2.739 -0.1914  0.1794 -0.3376
   47MOL     C826780   1.802   7.340   2.860 -0.2282  0.7583  0.7764
   47MOL     O926781   1.684   7.267   2.889 -0.4200 -0.8146  0.3496
   47MOL    C1026782   1.574   7.336   2.936 -0.1124 -0.3430  0.0264
   47MOL    O1126783   1.591   7.386   3.066  0.6812  0.4652  0.1193
   47MOL    C1226784   1.441   7.252   2.925  0.4588 -1.1203  0.3387
   47MOL    O1326785   1.440   7.153   3.023  0.3369  0.0231  0.4538
   47MOL    H1426786   2.206   7.252   2.240 -0.3743 -1.6657 -0.0293
   47MOL    H1526787   2.077   7.206   2.336  0.4999 -3.3871  0.9924
   47MOL    H1626788   2.304   7.384   2.422  0.1172  0.9486  0.5559
   47MOL    H1726789   2.022   7.426   2.396 -0.3473  1.9028  0.3990
   47MOL    H1826790   2.289   7.255   2.605  1.8838  1.7979  2.6942
   47MOL    H1926791   2.239   7.410   2.649  2.9542 -0.0395 -0.6188
   47MOL    H2026792   2.015   7.434   2.723  2.6707 -0.4839 -1.2177
   47MOL    H2126793   2.073   7.293   2.823 -1.7517 -2.3999  0.3815
   47MOL    H2226794   1.874   7.172   2.748  0.0672  0.2393  0.4264
   47MOL    H2326795   1.830   7.318   2.647  0.8729  0.2324 -0.8652
   47MOL    H2426796   1.862   7.343   2.951 -1.0485 -3.1073  1.4977
   47MOL    H2526797   1.783   7.446   2.840 -0.0561  0.5924 -0.3132
   47MOL    H2626798   1.554   7.429   2.882 -1.2764 -0.2700  0.5554
   47MOL    H2726799   1.548   7.324   3.124  0.6290 -0.3130 -0.7359
   47MOL    H2826800   1.349   7.310   2.923  0.3500 -1.2609  1.1940
   47MOL    H2926801   1.451   7.205   2.827  0.1793  1.2293 -0.8599
   47MOL    H3026802   2.241   7.145   2.379  2.1880  1.3576  0.5018
   47MOL    C3126803   1.313   7.091   3.049  0.2382 -0.4910 -0.2634
   47MOL    C3226804   1.342   6.980   3.151 -0.7314 -0.6471 -0.5480
   47MOL    O3326805   1.223   6.927   3.200 -0.0337  0.2538 -0.3834
   47MOL    C3426806   1.418   7.010   3.269 -0.3743 -0.6135  0.3802
   47MOL    O3526807   1.476   6.900   3.329  0.6488  0.5191 -0.1576
   47MOL    C3626808   1.565   6.937   3.432  0.1334 -0.1309  0.2450
   47MOL    C3726809   1.640   6.805   3.485 -0.8155  0.6153  0.3064
   47MOL    C3826810   1.743   6.828   3.594  0.2051  0.6509 -0.1256
   47MOL    O3926811   1.871   6.834   3.539 -0.4630  0.1820 -0.0727
   47MOL    C4026812   1.938   6.718   3.514  0.1639 -0.5039  0.0783
   47MOL    O4126813   1.967   6.637   3.629  0.4605 -0.2309 -0.7373
   47MOL    C4226814   2.069   6.757   3.446 -0.5530 -0.2723 -0.3137
   47MOL    O4326815   2.049   6.798   3.310  0.0967  0.3907 -0.3826
   47MOL    H4426816   1.239   7.147   3.105  1.7040  0.4417  0.7717
   47MOL    H4526817   1.266   7.053   2.959 -2.2748  2.4111 -0.2478
   47MOL    H4626818   1.399   6.906   3.095 -0.4726  0.2477 -1.4889
   47MOL    H4726819   1.170   6.903   3.126  1.1096 -0.4453 -1.0023
   47MOL    H4826820   1.498   7.078   3.238 -0.2038  0.6324  3.4114
   47MOL    H4926821   1.366   7.082   3.331  1.3988  1.5464 -0.5688
   47MOL    H5026822   1.499   6.981   3.507  0.0674  0.3065 -0.0667
   47MOL    H5126823   1.632   7.017   3.399  0.4038 -0.2577  0.4833
   47MOL    H5226824   1.695   6.771   3.397  1.5251  1.7131  1.3074
   47MOL    H5326825   1.569   6.725   3.506  1.2173 -1.4459 -0.5060
   47MOL    H5426826   1.726   6.919   3.651 -2.4788  0.6819 -0.9018
   47MOL    H5526827   1.734   6.742   3.661  1.3518  0.3518 -0.3411
   47MOL    H5626828   1.873   6.659   3.449  2.5814 -0.6246 -2.3258
   47MOL    H5726829   2.054   6.652   3.660  0.9467  1.3414 -2.7324
   47MOL    H5826830   2.128   6.831   3.500 -0.5888 -0.6078  0.1897
   47MOL    H5926831   2.124   6.663   3.448 -1.0740 -0.5809 -0.4621
   47MOL    C6026832   2.050   6.934   3.276  0.6439 -0.3306 -0.5844
   47MOL    C6126833   2.017   6.959   3.126 -0.1370 -0.8056  0.0336
   47MOL    O6226834   2.034   7.104   3.107 -0.7974 -0.2229 -0.2740
   47MOL    C6326835   1.872   6.930   3.097 -0.5622 -0.1844 -0.0671
   47MOL    O6426836   1.863   6.954   2.954  0.1820 -0.2939  0.3171
   47MOL    C6526837   1.728   6.943   2.896 -1.1670 -0.4802  0.0187
   47MOL    C6626838   1.664   6.800   2.898  0.0258  0.1597 -0.0261
   47MOL    C6726839   1.529   6.795   2.833  0.6426 -0.2647 -0.2398
   47MOL    O6826840   1.475   6.664   2.848  0.8940  0.6657  0.1904
   47MOL    C6926841   1.379   6.634   2.753  0.0667 -0.2260  0.3945
   47MOL    O7026842   1.428   6.596   2.628 -0.2069  0.5535  0.2393
   47MOL    C7126843   1.277   6.527   2.809 -0.1161 -0.3723 -0.1074
   47MOL    O7226844   1.165   6.591   2.870  0.5350  0.3546  0.3337
   47MOL    H7326845   2.151   6.963   3.304 -0.0318  0.6824  0.8593
   47MOL    H7426846   1.980   6.991   3.337  0.8327 -2.2341  1.4502
   47MOL    H7526847   2.079   6.901   3.058  0.9049 -0.0192  0.2866
   47MOL    H7626848   1.968   7.129   3.044 -0.9284  0.6009  0.1797
   47MOL    H7726849   1.841   6.828   3.120 -0.3930 -0.2275 -0.0308
   47MOL    H7826850   1.793   6.989   3.144 -1.3714 -2.2317  1.2059
   47MOL    H7926851   1.740   7.001   2.804 -0.3905  1.7377  1.4899
   47MOL    H8026852   1.662   7.007   2.954  0.4529 -2.1199  3.8396
   47MOL    H8126853   1.647   6.788   3.004 -4.2876  2.0283 -0.3872
   47MOL    H8226854   1.728   6.721   2.858 -0.7253 -0.1650 -0.5971
   47MOL    H8326855   1.543   6.812   2.727 -1.3860 -1.7707 -0.7743
   47MOL    H8426856   1.452   6.856   2.881  0.0429 -2.2214  1.3837
   47MOL    H8526857   1.324   6.722   2.719 -0.4428 -0.0322  1.6853
   47MOL    H8626858   1.432   6.502   2.630 -1.0945  0.4251 -2.5629
   47MOL    H8726859   1.245   6.458   2.731  1.0907 -1.9241  0.7343
   47MOL    H8826860   1.327   6.466   2.885  1.1453 -0.3947 -0.9463
   47MOL    C8926861   1.174   6.612   3.013  0.1070  0.2090  1.3710
   47MOL    C9026862   1.065   6.700   3.055  0.0314 -0.6135 -0.6073
   47MOL    O9126863   1.089   6.820   2.987 -0.2954  0.4757  0.2502
   47MOL    C9226864   0.929   6.636   3.026 -0.0120 -0.1283 -1.1209
   47MOL    O9326865   0.881   6.564   3.143  0.7944  0.5262 -0.7028
   47MOL    C9426866   0.762   6.488   3.113 -0.2971  0.4299  0.2515
   47MOL    C9526867   0.808   6.365   3.031  0.6825  0.2257 -0.4061
   47MOL    C9626868   0.706   6.251   3.036 -0.2448  0.0873  0.7207
   47MOL    O9726869   0.761   6.130   3.001 -0.0665  0.5735  0.4511
   47MOL    C9826870   0.680   6.016   3.024 -0.1322  0.4839  0.2501
   47MOL    O9926871   0.600   5.984   2.903  0.1560  0.1543 -0.1470
   47MOL   C10026872   0.787   5.906   3.045 -0.3322 -0.2797 -0.1894
   47MOL   O10126873   0.878   5.910   2.937 -0.1308 -0.2088 -0.0424
   47MOL   H10226874   1.272   6.648   3.045  1.2082  0.8899 -2.5593
   47MOL   H10326875   1.160   6.511   3.054  1.6323 -0.3387  0.5658
   47MOL   H10426876   1.083   6.721   3.161  2.7711  1.5244 -1.4465
   47MOL   H10526877   1.074   6.805   2.895  0.3086 -0.0527  0.2325
   47MOL   H10626878   0.847   6.704   3.004  0.6660  1.8780  2.1686
   47MOL   H10726879   0.926   6.582   2.932 -0.1240 -0.5230 -0.8913
   47MOL   H10826880   0.689   6.552   3.064 -2.0731 -1.2397  0.6362
   47MOL   H10926881   0.723   6.467   3.213  1.0045  0.6192  0.8032
   47MOL   H11026882   0.900   6.317   3.063  0.0220 -1.8367 -1.5531
   47MOL   H11126883   0.832   6.398   2.930 -0.7219  1.7271 -0.2724
   47MOL   H11226884   0.667   6.238   3.137  0.4507 -0.1196  0.9692
   47MOL   H11326885   0.620   6.275   2.974  0.8506 -0.2577 -0.9775
   47MOL   H11426886   0.606   6.023   3.103 -0.4209 -0.0048  0.0250
   47MOL   H11526887   0.654   5.967   2.827  2.5025 -1.6114  1.8060
   47MOL   H11626888   0.844   5.926   3.136 -1.0374 -2.5913  0.8081
   47MOL   H11726889   0.725   5.817   3.055  1.1031 -1.3060 -0.2746
   47MOL   C11826890   0.991   5.835   2.964 -0.1365  0.1259 -0.1976
   47MOL   C11926891   1.074   5.811   2.839 -0.3643 -0.2218  0.7337
   47MOL   O12026892   1.002   5.728   2.748  0.2458  0.2903  0.4840
   47MOL   C12126893   1.223   5.769   2.858 -0.0567 -0.5097  0.7938
   47MOL   O12226894   1.290   5.831   2.749  0.2260 -0.1424  0.1547
   47MOL   C12326895   1.372   5.753   2.667  0.5940  0.5814  0.0490
   47MOL   C12426896   1.386   5.819   2.531 -0.6380  0.1044 -0.2640
   47MOL   C12526897   1.473   5.727   2.449  0.7821 -0.3737 -0.3333
   47MOL   O12626898   1.459   5.774   2.315 -0.1942 -0.0311  0.0394
   47MOL   C12726899   1.550   5.722   2.224 -0.2068 -0.5635  0.0978
   47MOL   O12826900   1.674   5.801   2.214 -0.2674  0.2430 -0.2324
   47MOL   C12926901   1.484   5.727   2.081 -0.1568 -0.0827 -0.6606
   47MOL   O13026902   1.366   5.650   2.071  0.5958  0.5014  0.1383
   47MOL   H13126903   1.054   5.895   3.030  0.7082 -2.2510  1.2193
   47MOL   H13226904   0.963   5.744   3.017  2.0841 -0.6822 -0.3489
   47MOL   H13326905   1.067   5.912   2.797 -0.2430 -0.3573  0.3786
   47MOL   H13426906   0.914   5.760   2.742 -0.1678 -0.5614  1.7825
   47MOL   H13526907   1.260   5.802   2.955 -0.5491  1.1971  0.4207
   47MOL   H13626908   1.237   5.661   2.862  1.6185 -0.4097 -1.0575
   47MOL   H13726909   1.338   5.651   2.655  1.6101  0.0984  1.1325
   47MOL   H13826910   1.467   5.747   2.720 -0.2820 -1.2146  1.4759
   47MOL   H13926911   1.429   5.918   2.539 -0.5714  0.0452  0.1084
   47MOL   H14026912   1.294   5.839   2.476 -0.5120  0.1186 -0.4717
   47MOL   H14126913   1.576   5.728   2.486  1.1163  0.7637 -1.2454
   47MOL   H14226914   1.446   5.622   2.451  2.4834 -0.9102 -2.7802
   47MOL   H14326915   1.566   5.617   2.247  0.8128 -0.1966  1.0970
   47MOL   H14426916   1.654   5.877   2.162  1.7968  0.8397 -0.1953
   47MOL   H14526917   1.457   5.829   2.051 -1.3511 -0.0982  0.3087
   47MOL   H14626918   1.557   5.692   2.008 -0.0618  1.3548 -1.2900
   47MOL   C14726919   1.289   5.676   1.953 -0.3455 -0.4120  0.7217
   47MOL   C14826920   1.187   5.559   1.946 -0.1601 -0.5817  0.6387
   47MOL   O14926921   1.111   5.567   1.828  0.3314  0.2802  0.2229
   47MOL   C15026922   1.084   5.552   2.065 -0.7550 -0.3906 -0.2010
   47MOL   O15126923   1.040   5.420   2.077  0.2281  0.1108 -0.1860
   47MOL   C15226924   0.916   5.392   2.019  0.0202 -0.0942 -0.1053
   47MOL   C15326925   0.831   5.321   2.122 -0.5004 -0.5977  0.4008
   47MOL   C15426926   0.812   5.394   2.257  0.2208 -0.2884  0.4686
   47MOL   O15526927   0.686   5.464   2.243 -0.4871  0.1190  0.2091
   47MOL   C15626928   0.681   5.594   2.296 -0.1210 -0.5623  0.8533
   47MOL   O15726929   0.682   5.592   2.439 -0.2171  0.1065  0.4490
   47MOL   C15826930   0.556   5.665   2.253 -0.6221  0.1478  0.3003
   47MOL   O15926931   0.571   5.710   2.121  0.7704 -0.3559  0.1909
   47MOL   H16026932   1.344   5.702   1.863 -2.6432 -0.0814 -0.6294
   47MOL   H16126933   1.234   5.770   1.964 -0.3380 -0.2102 -0.8382
   47MOL   H16226934   1.241   5.465   1.941  0.2499 -0.3184  0.0004
   47MOL   H16326935   1.044   5.634   1.839 -1.4765 -1.2677 -1.1882
   47MOL   H16426936   1.140   5.579   2.155  1.0347  1.3244 -1.7926
   47MOL   H16526937   1.003   5.625   2.067 -0.7308 -0.3807  0.4398
   47MOL   H16626938   0.908   5.345   1.921 -0.1659 -1.8839  0.7569
   47MOL   H16726939   0.858   5.482   1.996  1.4370  0.3185 -2.2849
   47MOL   H16826940   0.889   5.231   2.145 -0.6539 -0.8230 -0.0727
   47MOL   H16926941   0.733   5.291   2.085 -1.3769  2.3590  0.1977
   47MOL   H17026942   0.801   5.329   2.343  0.4235  0.1920  0.8626
   47MOL   H17126943   0.890   5.465   2.284 -0.3784  0.1130  1.1735
   47MOL   H17226944   0.766   5.647   2.255 -0.4804 -1.6333 -1.3170
   47MOL   H17326945   0.756   5.542   2.470  0.2340  0.4237 -0.0997
   47MOL   H17426946   0.463   5.611   2.271 -0.9085  1.1292  1.8340
   47MOL   H17526947   0.558   5.750   2.322  0.9618  0.7853 -0.5046
   47MOL   C17626948   0.470   5.799   2.071  0.5893 -0.3932  0.3167
   47MOL   C17726949   0.508   5.856   1.931  0.0326  0.0981 -0.7112
   47MOL   O17826950   0.414   5.955   1.887 -0.4131  0.5636 -0.0565
   47MOL   C17926951   0.514   5.741   1.827  0.5650  0.6955 -0.3056
   47MOL   O18026952   0.623   5.766   1.741 -0.0138  0.0605  0.6595
   47MOL   C18126953   0.637   5.680   1.629  0.0052 -0.2817 -0.3389
   47MOL   C18226954   0.714   5.552   1.667  0.0130 -0.6374 -0.3423
   47MOL   C18326955   0.725   5.450   1.558  1.0406  0.4195 -0.0101
   47MOL   O18426956   0.801   5.500   1.451 -0.6660  0.0268 -0.4404
   47MOL   C18526957   0.795   5.413   1.339  0.3650  0.5597 -0.9446
   47MOL   O18626958   0.858   5.288   1.358 -0.2859 -0.7590 -0.0384
   47MOL   C18726959   0.868   5.487   1.224  0.0285 -0.5201  0.1228
   47MOL   O18826960   0.787   5.572   1.151  0.1904 -0.1842 -0.4653
   47MOL   H18926961   0.451   5.883   2.137 -1.3771 -0.7508  0.2625
   47MOL   H19026962   0.373   5.750   2.057  0.5058 -1.1593  3.3285
   47MOL   H19126963   0.610   5.890   1.941  0.3201 -1.5720  2.7906
   47MOL   H19226964   0.330   5.914   1.873 -0.7849  0.0230  3.3283
   47MOL   H19326965   0.532   5.642   1.869  0.6178  0.5145 -0.7522
   47MOL   H19426966   0.416   5.731   1.781  1.3341 -1.9436 -1.4833
   47MOL   H19526967   0.697   5.725   1.549 -0.8120 -0.4423 -1.0447
   47MOL   H19626968   0.541   5.640   1.596 -0.0640  0.0395 -0.5247
   47MOL   H19726969   0.656   5.515   1.752 -1.4945  2.1304 -0.1178
   47MOL   H19826970   0.814   5.577   1.700  0.2992 -1.9406 -0.1748
   47MOL   H19926971   0.757   5.356   1.601 -1.4119 -1.0291 -1.2185
   47MOL   H20026972   0.627   5.426   1.516  1.0382  1.7985 -0.8331
   47MOL   H20126973   0.691   5.396   1.309 -0.2216 -1.4636  1.9982
   47MOL   H20226974   0.952   5.302   1.366 -0.2681 -0.5524 -0.6231
   47MOL   H20326975   0.960   5.534   1.259  0.0341 -0.9437  0.6956
   47MOL   H20426976   0.905   5.411   1.154  1.1579  1.4974 -1.5214
   47MOL   C20526977   0.746   5.692   1.220 -0.0865 -0.1304 -0.4268
   47MOL   C20626978   0.692   5.787   1.114 -0.0901  0.3423  0.1848
   47MOL   O20726979   0.595   5.717   1.050 -0.7383  0.5074  0.0908
   47MOL   C20826980   0.622   5.910   1.162 -0.7342  0.6971 -0.2535
   47MOL   O20926981   0.724   5.997   1.203  0.4665 -0.0709  0.6151
   47MOL   C21026982   0.673   6.115   1.263 -0.1201 -0.3937  0.4426
   47MOL   C21126983   0.614   6.087   1.405  0.5907 -0.1731  0.0690
   47MOL   C21226984   0.562   6.206   1.479  0.1576 -0.3703  0.1239
   47MOL   O21326985   0.470   6.169   1.577 -0.0151 -0.3017  0.2426
   47MOL   C21426986   0.474   6.239   1.700 -0.3216  0.3168 -0.4234
   47MOL   O21526987   0.570   6.176   1.783  0.2778 -0.3514  0.0983
   47MOL   C21626988   0.330   6.238   1.757 -0.5677  0.2340 -0.1401
   47MOL   O21726989   0.261   6.347   1.700 -0.0919  0.1296  0.4380
   47MOL   H21826990   0.831   5.725   1.280  0.7445  0.9368 -2.1463
   47MOL   H21926991   0.677   5.666   1.300  1.4819 -1.5409  0.5081
   47MOL   H22026992   0.773   5.808   1.044  0.5938 -0.9194  0.5848
   47MOL   H22126993   0.640   5.639   1.020 -0.4162 -0.2825  2.5509
   47MOL   H22226994   0.564   5.969   1.092 -2.7457  1.4129  1.9661
   47MOL   H22326995   0.558   5.886   1.246  1.8487  3.1206  2.5722
   47MOL   H22426996   0.609   6.167   1.192  0.9577  2.8273  1.7655
   47MOL   H22526997   0.756   6.183   1.277  1.3369 -2.0788  0.1863
   47MOL   H22626998   0.681   6.032   1.471 -0.7727 -0.2552  1.4051
   47MOL   H22726999   0.538   6.010   1.400  0.3305  0.0380  0.7021
   47MOL   H22827000   0.649   6.265   1.509 -0.1157  0.2689 -0.3212
   47MOL   H22927001   0.500   6.263   1.410  2.2924  0.5821 -1.0381
   47MOL   H23027002   0.506   6.343   1.696  1.7961 -0.1488  2.2202
   47MOL   H23127003   0.537   6.089   1.802  0.0189  0.0371  1.5343
   47MOL   H23227004   0.296   6.138   1.729  1.0369  0.3510 -2.6964
   47MOL   H23327005   0.341   6.252   1.865  2.7519  0.8713 -0.5084
   47MOL   C23427006   0.122   6.338   1.739  0.1425 -0.7524  0.4155
   47MOL   C23527007   0.070   6.483   1.712  0.3218  0.0463  0.0356
   47MOL   O23627008   0.149   6.549   1.807  0.0694 -0.2424  0.5704
   47MOL   C23727009   7.612   6.495   1.742  0.6191 -1.3057 -0.4363
   47MOL   O23827010   7.546   6.440   1.625  0.0034  0.1443  0.4953
   47MOL   C23927011   7.403   6.427   1.645 -0.2375 -0.1260  0.3374
   47MOL   C24027012   7.351   6.305   1.559 -0.1217  0.3750 -0.6253
   47MOL   C24127013   7.437   6.189   1.568 -0.0397  0.1549  0.1063
   47MOL   O24227014   7.381   6.080   1.500  0.2481  0.5418 -0.2027
   47MOL   C24327015   7.455   5.962   1.489  0.2542  0.0356 -0.3378
   47MOL   O24427016   7.562   5.979   1.401  0.3563 -1.3887  0.3190
   47MOL   C24527017   7.371   5.849   1.435  0.3880 -0.7448 -0.3476
   47MOL   O24627018   7.275   5.804   1.531  0.1132 -0.0439  0.0205
   47MOL   H24727019   0.072   6.257   1.685  1.4391 -0.1589 -1.7348
   47MOL   H24827020   0.124   6.315   1.846  0.4706  1.1362  0.8225
   47MOL   H24927021   0.087   6.510   1.607 -1.3356 -0.3380 -0.3453
   47MOL   H25027022   0.236   6.519   1.784  0.8941  0.2431  2.9360
   47MOL   H25127023   7.579   6.449   1.835  0.1123  1.7948  0.9824
   47MOL   H25227024   7.598   6.603   1.747 -1.3662 -1.5812  0.2541
   47MOL   H25327025   7.349   6.519   1.622  1.9755  1.1511  0.1509
   47MOL   H25427026   7.366   6.406   1.745 -3.2369  0.4056 -0.5972
   47MOL   H25527027   7.340   6.317   1.451  0.2243 -0.9116 -0.8167
   47MOL   H25627028   7.258   6.270   1.604  0.0277  0.5856 -0.1543
   47MOL   H25727029   7.536   6.219   1.533 -0.8531  3.1040  0.2656
   47MOL   H25827030   7.443   6.181   1.676 -2.4381  1.0366  0.3392
   47MOL   H25927031   7.494   5.939   1.588 -1.4827 -0.6625  0.1883
   47MOL   H26027032   7.531   6.009   1.316  1.9481  3.5744  1.3225
   47MOL   H26127033   7.335   5.877   1.336 -0.6072  0.4334  0.3389
   47MOL   H26227034   7.449   5.774   1.419  1.3486  0.3537 -0.8646
   47MOL   C26327035   7.195   5.692   1.502 -0.1514 -0.0916  0.1871
   47MOL   C26427036   7.138   5.656   1.642 -0.2217 -0.7337  0.0471
   47MOL   O26527037   7.103   5.780   1.699 -0.3996 -0.1490 -0.1177
   47MOL   C26627038   7.025   5.554   1.644 -0.1215  0.0854  0.4910
   47MOL   O26727039   7.053   5.435   1.573  0.3398  0.8138 -0.1101
   47MOL   C26827040   6.980   5.321   1.625  0.2971 -0.4211 -0.4959
   47MOL   C26927041   6.998   5.181   1.553  0.7387  0.3493  1.0619
   47MOL   C27027042   6.889   5.081   1.589 -0.3572 -0.2513 -0.2058
   47MOL   O27127043   6.917   4.975   1.509  0.4251 -0.6724 -0.3627
   47MOL   C27227044   6.824   4.872   1.520  0.4528  0.4001  0.2838
   47MOL   O27327045   6.696   4.902   1.480 -0.4823 -0.1187  0.3207
   47MOL   C27427046   6.867   4.747   1.437  0.1919  0.0135  0.0062
   47MOL   O27527047   6.854   4.621   1.501  0.0370  0.5341 -0.4957
   47MOL   H27627048   7.259   5.610   1.468 -0.2959 -1.2818  2.6667
   47MOL   H27727049   7.126   5.718   1.421 -3.6408 -1.2176  2.6900
   47MOL   H27827050   7.222   5.613   1.697  1.3408  1.0537 -0.8804
   47MOL   H27927051   7.152   5.845   1.652  0.5169  1.1921  2.5954
   47MOL   H28027052   7.012   5.538   1.751  0.2677 -0.3958  0.4684
   47MOL   H28127053   6.937   5.602   1.602 -1.2284 -0.9578  1.6052
   47MOL   H28227054   6.876   5.351   1.620  0.5208  0.2421 -1.2766
   47MOL   H28327055   6.998   5.314   1.733 -0.0122  1.9971 -0.2555
   47MOL   H28427056   7.099   5.141   1.561  0.9265  0.3416 -1.0336
   47MOL   H28527057   6.986   5.199   1.446  2.7868  0.7500  0.8841
   47MOL   H28627058   6.896   5.047   1.693 -1.2842 -2.4163 -0.8315
   47MOL   H28727059   6.793   5.132   1.578  0.0731  0.2894 -1.5700
   47MOL   H28827060   6.809   4.846   1.625  0.3214  0.7568  0.3524
   47MOL   H28927061   6.706   4.926   1.390  0.2999 -1.9681 -0.1230
   47MOL   H29027062   6.824   4.770   1.339 -2.9909 -1.2660  1.0441
   47MOL   H29127063   6.975   4.736   1.425 -0.0107 -0.6397 -1.3608
   47MOL   C29227064   6.723   4.567   1.496 -0.3609  0.2969 -0.6556
   47MOL   C29327065   6.718   4.461   1.387 -0.3525  0.0790  0.0027
   47MOL   O29427066   6.762   4.523   1.265  0.2080 -0.0116  0.2172
   47MOL   C29527067   6.815   4.350   1.431 -0.2761  0.3378 -0.7880
   47MOL   O29627068   6.799   4.223   1.368 -0.6469  0.1610 -0.5005
   47MOL   C29727069   6.684   4.155   1.410 -0.1119  0.2537 -0.2491
   47MOL   C29827070   6.671   4.037   1.317  0.3381 -0.1318  1.0334
   47MOL   C29927071   6.554   3.953   1.342 -0.0005  0.0162  0.0225
   47MOL   O30027072   6.557   3.895   1.468  0.1005 -0.0813 -0.5616
   47MOL   C30127073   6.433   3.850   1.517  0.3598 -0.2183  0.5266
   47MOL   O30227074   6.403   3.720   1.480 -0.2642  0.1944 -0.1809
   47MOL   C30327075   6.436   3.859   1.672 -0.3323 -0.2414 -0.4948
   47MOL   O30427076   6.567   3.841   1.725 -0.1366 -0.0863  0.4111
   47MOL   H30527077   6.700   4.526   1.595 -1.2876 -1.3423 -1.5218
   47MOL   H30627078   6.646   4.643   1.487  0.1729  1.1442  1.5292
   47MOL   H30727079   6.619   4.424   1.366  0.0699 -1.3777  0.5317
   47MOL   H30827080   6.855   4.510   1.266  0.1923 -0.0767  0.9525
   47MOL   H30927081   6.918   4.375   1.409  0.0281 -0.5510 -0.3932
   47MOL   H31027082   6.808   4.332   1.539  2.7918 -1.4566 -0.8387
   47MOL   H31127083   6.592   4.210   1.389 -1.1680 -0.9353  1.1469
   47MOL   H31227084   6.706   4.131   1.514  1.4902 -0.2898 -0.7099
   47MOL   H31327085   6.760   3.975   1.327  0.0444 -0.6712  0.2952
   47MOL   H31427086   6.672   4.071   1.213  1.2281 -0.5073  0.9089
   47MOL   H31527087   6.460   4.004   1.322 -0.4290  0.6401  3.3178
   47MOL   H31627088   6.545   3.868   1.274  2.0409  1.1599 -1.7385
   47MOL   H31727089   6.354   3.915   1.478 -0.4847 -1.2206  0.5369
   47MOL   H31827090   6.475   3.671   1.517 -0.1745  0.6027  0.1874
   47MOL   H31927091   6.358   3.795   1.714  0.8355 -0.4274  1.5020
   47MOL   H32027092   6.405   3.959   1.702  0.5036 -0.4143  1.0434
   47MOL   C32127093   6.590   3.926   1.839  0.2977 -0.2448 -0.6563
   47MOL   C32227094   6.729   3.911   1.878 -0.5361 -0.1820 -0.3738
   47MOL   O32327095   6.756   3.775   1.907 -0.0723 -0.1292  0.2987
   47MOL   C32427096   6.819   3.952   1.761  0.3128 -0.2716  0.2548
   47MOL   O32527097   6.931   4.028   1.802 -0.4702  0.2302 -0.2378
   47MOL   C32627098   7.016   3.963   1.900  1.3095  0.5274 -0.4646
   47MOL   C32727099   7.157   4.019   1.902  0.1918 -0.0587 -0.0587
   47MOL   C32827100   7.222   4.006   2.040 -0.5533  0.5322  1.1808
   47MOL   O32927101   7.349   4.074   2.032 -0.3171  0.2786  0.0747
   47MOL   C33027102   7.425   4.069   2.147 -0.0375 -0.0277  0.2497
   47MOL   O33127103   7.507   3.953   2.156 -0.2555 -0.0934  0.4318
   47MOL   C33227104   7.516   4.191   2.158  0.0194  0.2135 -0.0843
   47MOL   O33327105   7.466   4.274   2.258 -0.4051  0.2275 -0.1263
   47MOL   H33427106   6.521   3.897   1.918  2.4879  0.0381  1.4284
   47MOL   H33527107   6.574   4.031   1.813  0.6871  0.0994  0.4238
   47MOL   H33627108   6.756   3.958   1.973 -0.6688 -2.4086  0.8035
   47MOL   H33727109   6.713   3.736   1.832  0.9857  0.5226 -0.6608
   47MOL   H33827110   6.766   4.009   1.684  3.8674  0.3524 -1.8876
   47MOL   H33927111   6.874   3.872   1.712  0.9253 -0.0958  0.6499
   47MOL   H34027112   7.018   3.856   1.880  0.5034  0.6074 -0.9859
   47MOL   H34127113   6.965   3.960   1.996 -0.0538 -1.1479 -1.2140
   47MOL   H34227114   7.216   3.964   1.829  1.5701  0.9033  0.3305
   47MOL   H34327115   7.160   4.125   1.878 -1.8011  0.2861  1.0773
   47MOL   H34427116   7.164   4.041   2.126 -1.9571 -1.4403  1.0639
   47MOL   H34527117   7.234   3.899   2.055 -0.7121  0.2150 -0.9238
   47MOL   H34627118   7.356   4.070   2.231  0.3882 -0.7741  0.6151
   47MOL   H34727119   7.589   3.977   2.115 -1.4159  2.0283 -0.7374
   47MOL   H34827120   7.619   4.174   2.187  0.4854 -0.3447 -2.0008
   47MOL   H34927121   7.518   4.246   2.064 -0.6573  0.9424  0.3220
   47MOL   C35027122   7.519   4.262   2.388  0.5996 -0.1122 -0.3875
   47MOL   C35127123   7.414   4.332   2.487 -0.4863 -0.1886 -0.2087
   47MOL   O35227124   7.298   4.253   2.504  0.0003  0.3529 -0.4989
   47MOL   C35327125   7.474   4.344   2.631  0.2241  0.3237 -0.1418
   47MOL   O35427126   7.394   4.433   2.716 -0.5109 -0.4432  0.2887
   47MOL   C35527127   7.449   4.448   2.847 -0.1462  0.3093 -0.0376
   47MOL   C35627128   7.368   4.557   2.912 -0.0427  0.6295  0.1270
   47MOL   C35727129   7.239   4.499   2.980 -0.0621  0.7442 -0.1059
   47MOL   O35827130   7.177   4.594   3.046  0.0386 -0.7285 -0.8891
   47MOL   C35927131   7.109   4.579   3.165 -0.4714 -0.1432 -0.4273
   47MOL   O36027132   7.187   4.621   3.277 -0.1351 -0.1250  0.1050
   47MOL   C36127133   6.981   4.666   3.158 -0.2114 -0.5650 -0.3382
   47MOL   O36227134   6.891   4.591   3.087  0.5142 -0.6041 -0.2149
   47MOL   H36327135   7.607   4.326   2.389  0.6263 -0.0678 -3.0430
   47MOL   H36427136   7.549   4.164   2.427  1.6755  0.8630  1.3045
   47MOL   H36527137   7.380   4.432   2.457  2.0057  0.4441 -1.0637
   47MOL   H36627138   7.265   4.235   2.417 -1.9711  1.4577 -0.0120
   47MOL   H36727139   7.498   4.244   2.667  0.0524  0.5922  0.7172
   47MOL   H36827140   7.573   4.389   2.618  0.8102 -1.0950 -0.7596
   47MOL   H36927141   7.556   4.470   2.846 -0.1036  0.1419  0.6738
   47MOL   H37027142   7.436   4.354   2.899 -3.1802 -0.2320 -1.6530
   47MOL   H37127143   7.341   4.643   2.851 -1.1227  0.2413  0.0553
   47MOL   H37227144   7.425   4.601   2.994  0.6517  0.2582 -0.1517
   47MOL   H37327145   7.167   4.447   2.917 -2.7885  2.2136  1.6903
   47MOL   H37427146   7.269   4.429   3.058 -1.5325 -1.2083 -1.2672
   47MOL   H37527147   7.075   4.477   3.183  0.4374 -0.5032 -0.7673
   47MOL   H37627148   7.210   4.712   3.264 -1.0933 -0.3510 -3.7139
   47MOL   H37727149   6.947   4.674   3.261  0.7921  0.1594 -0.0671
   47MOL   H37827150   7.011   4.765   3.125  2.4502 -1.9198 -2.1480
   47MOL   C37927151   6.870   4.635   2.954  0.3297 -0.4098 -0.3632
   47MOL   C38027152   6.816   4.521   2.870  0.4165 -0.6049  0.0159
   47MOL   O38127153   6.682   4.493   2.912 -0.0351 -0.1407 -0.1768
   47MOL   C38227154   6.828   4.539   2.714  0.4365 -0.4209  0.7223
   47MOL   O38327155   6.956   4.547   2.657  0.4971  0.4143  0.0528
   47MOL   C38427156   6.968   4.598   2.530 -0.6811 -0.0812 -0.1870
   47MOL   C38527157   7.110   4.573   2.484 -0.3010  0.3529  0.1276
   47MOL   C38627158   7.142   4.607   2.337 -1.3382 -0.7047 -0.0828
   47MOL   O38727159   7.148   4.483   2.270 -0.3083  0.1459 -0.2502
   47MOL   C38827160   7.195   4.488   2.141  0.1018  0.2576  0.5889
   47MOL   O38927161   7.339   4.495   2.150  0.0959  0.5400  0.5156
   47MOL   C39027162   7.157   4.358   2.065  0.0171  0.9545  0.2308
   47MOL   O39127163   7.027   4.362   2.012 -0.2294 -0.5573 -0.5321
   47MOL   H39227164   6.961   4.671   2.906  1.8915 -0.4589  2.4292
   47MOL   H39327165   6.812   4.727   2.952  2.0213  0.6644 -2.4755
   47MOL   H39427166   6.858   4.423   2.893  1.0444  0.1316  2.1624
   47MOL   H39527167   6.695   4.442   2.990  0.4618  0.7094  0.2908
   47MOL   H39627168   6.783   4.454   2.662  0.9788  1.4994 -3.0454
   47MOL   H39727169   6.764   4.620   2.679  1.6955 -0.2404 -1.2501
   47MOL   H39827170   6.959   4.707   2.525 -1.3684 -0.1019  0.5388
   47MOL   H39927171   6.897   4.552   2.462  1.0484 -2.2344 -0.6089
   47MOL   H40027172   7.141   4.471   2.510  1.3843  0.3073 -1.8928
   47MOL   H40127173   7.174   4.639   2.543 -0.7489  0.0814  0.9298
   47MOL   H40227174   7.070   4.677   2.297  1.5073  1.9284 -0.8096
   47MOL   H40327175   7.239   4.656   2.329 -0.8520 -1.3483  1.5649
   47MOL   H40427176   7.163   4.577   2.088  1.8557 -0.0962 -1.1147
   47MOL   H40527177   7.366   4.411   2.184  1.0618  0.4942 -0.3531
   47MOL   H40627178   7.231   4.351   1.985 -0.3811 -1.1429  0.0289
   47MOL   H40727179   7.169   4.280   2.140 -1.3252  1.2867  0.8098
   47MOL   C40827180   6.916   4.344   2.115  0.6967 -1.1876  0.3930
   47MOL   C40927181   6.781   4.367   2.046 -0.3197 -0.2475  0.4235
   47MOL   O41027182   6.757   4.246   1.975 -0.3929 -0.4187 -0.0788
   47MOL   C41127183   6.781   4.481   1.947  0.0590  0.1618 -0.7168
   47MOL   O41227184   6.643   4.506   1.918  0.2372  0.4440  0.0509
   47MOL   C41327185   6.597   4.631   1.975  0.4389 -0.1568  0.4238
   47MOL   C41427186   6.635   4.764   1.901  0.4532 -0.2925 -0.4641
   47MOL   C41527187   6.777   4.820   1.929  0.5201 -0.1314  0.2291
   47MOL   O41627188   6.781   4.839   2.066  0.3140 -0.2380  0.5471
   47MOL   C41727189   6.891   4.911   2.101 -0.4523 -0.6402 -0.3453
   47MOL   O41827190   7.010   4.829   2.090  0.0566 -0.0916  0.0967
   47MOL   C41927191   6.886   4.960   2.252  0.6420 -0.4685  0.3153
   47MOL   O42027192   6.778   5.053   2.253 -0.0532  0.2778  0.1853
   47MOL   H42127193   6.930   4.412   2.199  3.3634 -0.1106 -0.8565
   47MOL   H42227194   6.925   4.248   2.165 -0.4735 -1.2626  0.4578
   47MOL   H42327195   6.703   4.368   2.122  2.4230 -0.3824  3.3471
   47MOL   H42427196   6.839   4.213   1.942 -1.0909  0.8440 -3.3141
   47MOL   H42527197   6.832   4.561   2.001  1.8188 -0.3940 -1.5146
   47MOL   H42627198   6.828   4.457   1.851  0.6710 -0.8119 -0.1850
   47MOL   H42727199   6.489   4.630   1.960  0.3433  3.0723  0.4518
   47MOL   H42827200   6.620   4.650   2.080 -2.4073 -1.6151  1.3592
   47MOL   H42927201   6.556   4.837   1.921  0.9867  0.5042 -1.2087
   47MOL   H43027202   6.611   4.748   1.796 -2.1558 -0.2601  0.0794
   47MOL   H43127203   6.859   4.756   1.896  0.3337  0.5114 -1.5451
   47MOL   H43227204   6.786   4.908   1.865 -1.7200  0.4284  0.6447
   47MOL   H43327205   6.897   5.001   2.040  1.9739 -0.4612  0.1333
   47MOL   H43427206   7.082   4.863   2.141  0.0626  0.4598 -0.2767
   47MOL   H43527207   6.862   4.880   2.321 -0.1977  0.7606  1.4900
   47MOL   H43627208   6.984   5.006   2.268  1.1331 -0.0592 -3.4543
   47MOL   C43727209   6.765   5.118   2.377  0.1853 -0.0206 -0.4386
   47MOL   C43827210   6.645   5.219   2.385 -0.2673  0.7802  0.8741
   47MOL   O43927211   6.704   5.333   2.314 -0.6484  0.4343 -0.5574
   47MOL   C44027212   6.613   5.253   2.530 -0.2532  0.1305  0.3945
   47MOL   O44127213   6.534   5.366   2.546  0.0211 -0.4913 -0.2630
   47MOL   C44227214   6.416   5.391   2.459 -0.6157  0.7728 -0.3119
   47MOL   C44327215   6.358   5.525   2.505  0.1064 -0.4434  0.1688
   47MOL   C44427216   6.238   5.568   2.426  1.0032 -0.2724 -0.0535
   47MOL   O44527217   6.190   5.693   2.476 -0.6647  0.8169 -0.1020
   47MOL   C44627218   6.184   5.794   2.377  0.3727  1.0546  0.0032
   47MOL   O44727219   6.315   5.846   2.339  0.6684 -0.2873  0.3696
   47MOL   C44827220   6.122   5.906   2.436 -0.4954 -1.3481 -0.4951
   47MOL   O44927221   6.208   5.950   2.539 -0.0536  0.7988  0.2787
   47MOL   H45027222   6.758   5.050   2.461  1.3612 -0.3029 -0.5669
   47MOL   H45127223   6.852   5.176   2.408 -0.3096 -0.2930  1.5001
   47MOL   H45227224   6.558   5.170   2.341  1.4037  1.4747 -3.4765
   47MOL   H45327225   6.748   5.297   2.239 -1.7219 -1.1682 -0.4431
   47MOL   H45427226   6.579   5.163   2.580  0.4715  0.2794  1.1655
   47MOL   H45527227   6.703   5.276   2.586 -0.4121  2.0648 -0.0900
   47MOL   H45627228   6.341   5.312   2.460 -1.1116  1.2368 -0.0905
   47MOL   H45727229   6.448   5.411   2.356 -2.0697  0.8394 -0.7670
   47MOL   H45827230   6.441   5.597   2.506 -0.1255 -0.1910  1.1902
   47MOL   H45927231   6.338   5.511   2.611 -0.8554  1.2191  0.2217
   47MOL   H46027232   6.258   5.565   2.318 -1.5411  1.5328 -0.6161
   47MOL   H46127233   6.165   5.488   2.441  1.4257 -0.4171  1.2808
   47MOL   H46227234   6.129   5.769   2.287  0.3557  0.7453  0.0959
   47MOL   H46327235   6.363   5.867   2.417 -0.9798  0.6187  1.1716
   47MOL   H46427236   6.104   5.986   2.364 -0.1212  0.2233  1.1610
   47MOL   H46527237   6.022   5.889   2.477 -0.1707 -0.1385  0.7963
   47MOL   C46627238   6.161   6.059   2.623 -0.0097  0.3129  0.9904
   47MOL   C46727239   6.259   6.079   2.744  0.4608 -0.5153 -0.0076
   47MOL   O46827240   6.226   6.182   2.827 -0.2427  0.2884 -0.3905
   47MOL   C46927241   6.277   5.964   2.837 -0.1356 -0.1309 -0.2543
   47MOL   O47027242   6.402   5.978   2.903 -0.1279 -0.0579  0.4907
   47MOL   C47127243   6.469   5.856   2.926  0.0733  0.1202  0.4040
   47MOL   C47227244   6.561   5.819   2.808  0.5741 -0.1319  0.3433
   47MOL   C47327245   6.627   5.679   2.814 -0.4736  0.0367  0.4434
   47MOL   O47427246   6.711   5.658   2.696 -0.1177  0.2360  0.0646
   47MOL   C47527247   6.799   5.551   2.694  0.7844 -0.4006 -0.4279
   47MOL   O47627248   6.887   5.550   2.797 -0.4254 -0.0358  0.2198
   47MOL   C47727249   6.882   5.550   2.563 -0.2752 -0.6465  0.0814
   47MOL   O47827250   6.948   5.674   2.552 -0.3282  0.5208 -0.4201
   47MOL   H47927251   6.060   6.044   2.661 -1.2815  0.9655 -2.0195
   47MOL   H48027252   6.166   6.154   2.569 -0.3317 -0.0284  0.3687
   47MOL   H48127253   6.356   6.103   2.701  1.3525 -0.9950  1.6828
   47MOL   H48227254   6.269   6.165   2.909  0.8519  1.5469 -0.6861
   47MOL   H48327255   6.202   5.944   2.914  0.4806 -4.5636 -0.6671
   47MOL   H48427256   6.287   5.887   2.760  0.3326  0.5526 -0.8817
   47MOL   H48527257   6.395   5.777   2.939  1.7265 -1.3966  0.7480
   47MOL   H48627258   6.525   5.860   3.019  0.2008  2.7405  0.2513
   47MOL   H48727259   6.630   5.902   2.789  0.6606 -0.3763 -0.4526
   47MOL   H48827260   6.502   5.812   2.717  0.7805  0.6341  0.1465
   47MOL   H48927261   6.682   5.671   2.907 -0.0977  0.5751  0.2678
   47MOL   H49027262   6.545   5.607   2.817  1.0629 -1.7593  0.1272
   47MOL   H49127263   6.734   5.464   2.704  2.5269 -1.7566 -0.7432
   47MOL   H49227264   6.943   5.626   2.804 -0.8971  0.0782  4.0190
   47MOL   H49327265   6.942   5.459   2.565 -1.0712 -1.1678  1.2525
   47MOL   H49427266   6.805   5.549   2.486 -0.4071  0.7784  0.1741
   47MOL   C49527267   7.034   5.674   2.427 -1.2654  0.1754 -0.0407
   47MOL   C49627268   7.108   5.814   2.435  0.2065 -0.5833  0.5924
   47MOL   O49727269   7.204   5.807   2.536 -0.1679 -0.1771  1.0217
   47MOL   C49827270   7.176   5.849   2.299  0.6296  0.2648 -0.1671
   47MOL   O49927271   7.250   5.738   2.254  0.0899  0.1693 -0.0428
   47MOL   C50027272   7.384   5.741   2.296 -0.3377  0.8996  0.9305
   47MOL   C50127273   7.464   5.627   2.217  0.0687 -0.2991  0.2430
   47MOL   C50227274   7.617   5.651   2.232  0.1339 -0.2744 -0.2147
   47MOL   O50327275   7.686   5.539   2.177  0.4388  0.0777  0.1603
   47MOL   C50427276   0.132   5.562   2.151 -0.1481 -0.0906 -0.1198
   47MOL   O50527277   0.150   5.665   2.053  0.1468 -0.1239  0.2803
   47MOL   C50627278   0.186   5.429   2.100  0.5820 -0.2666  0.7359
   47MOL   O50727279   0.184   5.341   2.211  0.3480  0.2657  0.2446
   47MOL   H50827280   6.969   5.656   2.342  1.3893 -1.4777 -1.8026
   47MOL   H50927281   7.114   5.599   2.424 -1.8378 -0.4146 -0.6398
   47MOL   H51027282   7.037   5.890   2.466  1.3379  1.3836 -1.4987
   47MOL   H51127283   7.179   5.734   2.590 -1.9226 -0.3116  0.0730
   47MOL   H51227284   7.095   5.866   2.228 -0.0452  0.3861  0.6261
   47MOL   H51327285   7.238   5.937   2.319  0.7594 -0.3708  2.3875
   47MOL   H51427286   7.411   5.743   2.402  3.7253  1.9645 -0.0191
   47MOL   H51527287   7.416   5.839   2.260  0.4776 -0.1474 -1.2861
   47MOL   H51627288   7.440   5.630   2.110 -1.6455 -1.6845  0.5796
   47MOL   H51727289   7.434   5.532   2.260 -1.5618 -0.1604 -0.5423
   47MOL   H51827290   7.655   5.748   2.200  1.4087 -0.4395  0.7720
   47MOL   H51927291   7.651   5.645   2.335  0.9118 -0.3592 -0.4754
   47MOL   H52027292   0.186   5.592   2.240 -1.0800 -1.5697  0.9718
   47MOL   H52127293   0.115   5.633   1.971  1.9432  1.9730 -1.3958
   47MOL   H52227294   0.122   5.383   2.025  1.1637  2.8583 -1.7666
   47MOL   H52327295   0.282   5.449   2.052 -1.1955  0.1993 -2.7781
   47MOL   C52427296   0.271   5.230   2.198 -0.5887  0.3024  0.0732
   47MOL   C52527297   0.408   5.281   2.255 -0.4860  0.8466 -0.1168
   47MOL   O52627298   0.481   5.338   2.149 -0.3628  0.4062  0.6112
   47MOL   C52727299   0.500   5.184   2.337  0.4426  0.0678  0.2672
   47MOL   O52827300   0.467   5.171   2.471 -1.4851 -0.1295  0.1093
   47MOL   C52927301   0.524   5.258   2.564 -0.3354 -0.2723 -0.0492
   47MOL   C53027302   0.467   5.221   2.703 -0.9145 -0.2149 -0.2371
   47MOL   C53127303   0.513   5.078   2.737  0.0624 -0.0046 -0.2792
   47MOL   O53227304   0.654   5.084   2.767 -0.7939 -0.5292 -0.0035
   47MOL   C53327305   0.713   4.968   2.809 -0.7051 -0.0298  0.0226
   47MOL   O53427306   0.699   4.870   2.713 -0.4954 -0.0517 -0.0601
   47MOL   C53527307   0.861   4.978   2.836 -0.2852 -0.3910 -0.3634
   47MOL   O53627308   0.877   5.054   2.955 -0.1813 -0.2328  0.7636
   47MOL   H53727309   0.259   5.173   2.106 -1.8510  1.6781 -0.6215
   47MOL   H53827310   0.244   5.167   2.283  0.5901 -0.8472 -0.3823
   47MOL   H53927311   0.390   5.365   2.322 -0.7671  1.5285 -1.0511
   47MOL   H54027312   0.547   5.392   2.189 -0.1632  0.2139  0.5399
   47MOL   H54127313   0.494   5.081   2.303  0.1303  0.4053 -0.7427
   47MOL   H54227314   0.605   5.211   2.327  0.5878 -0.5689  0.0665
   47MOL   H54327315   0.503   5.363   2.541  1.9862  0.1914 -0.1361
   47MOL   H54427316   0.631   5.246   2.554 -0.4072 -0.2704 -0.8433
   47MOL   H54527317   0.358   5.224   2.707 -1.0418 -3.2698 -0.0800
   47MOL   H54627318   0.514   5.290   2.774 -0.2190  0.6059 -1.4674
   47MOL   H54727319   0.444   5.051   2.816 -0.5157 -0.3851 -0.9072
   47MOL   H54827320   0.498   5.009   2.654  1.4942 -0.4057 -0.2148
   47MOL   H54927321   0.663   4.936   2.901  0.3251  0.6420  0.8200
   47MOL   H55027322   0.726   4.906   2.630 -0.6856  0.6915  0.2011
   47MOL   H55127323   0.904   4.878   2.834  1.2634  0.2424  1.3326
   47MOL   H55227324   0.911   5.026   2.752 -0.2364  0.7501  0.3074
   47MOL   C55327325   1.008   5.042   3.000 -0.2453 -0.3119  0.0326
   47MOL   C55427326   1.029   5.130   3.123 -0.4194  0.2864  0.4022
   47MOL   O55527327   0.986   5.261   3.089 -0.0132  0.6742  0.4403
   47MOL   C55627328   1.179   5.122   3.170  0.0689  0.2016  0.4108
   47MOL   O55727329   1.176   5.158   3.308  0.6225  0.3827  0.2074
   47MOL   C55827330   1.181   5.297   3.341 -0.4422  0.0000 -0.8650
   47MOL   C55927331   1.148   5.316   3.494 -0.9434  0.5072 -0.3723
   47MOL   C56027332   1.162   5.461   3.551 -0.9716 -0.6865  0.5283
   47MOL   O56127333   1.098   5.536   3.456  0.1605 -0.1859  0.3562
   47MOL   C56227334   0.964   5.555   3.475  0.8174 -0.1971 -0.6625
   47MOL   O56327335   0.928   5.645   3.587  0.3236 -0.1061  0.1702
   47MOL   C56427336   0.901   5.608   3.345  0.4579 -0.5356  0.7507
   47MOL   O56527337   0.883   5.508   3.246 -0.0098 -0.3822  0.2011
   47MOL   H56627338   1.073   5.081   2.922 -0.4351  1.3636  0.6778
   47MOL   H56727339   1.015   4.939   3.034  3.1151 -0.3674 -0.6523
   47MOL   H56827340   0.966   5.087   3.201  1.3745 -0.8105  1.2792
   47MOL   H56927341   0.907   5.245   3.041 -1.1609  2.8275  1.5325
   47MOL   H57027342   1.227   5.026   3.152 -1.5027 -0.5994  0.3120
   47MOL   H57127343   1.237   5.194   3.114 -0.0172 -0.8413 -1.0392
   47MOL   H57227344   1.280   5.336   3.318  0.0449 -0.6618  0.0358
   47MOL   H57327345   1.115   5.358   3.279 -0.3345  1.2294  0.2087
   47MOL   H57427346   1.224   5.261   3.549 -0.2488  0.3582 -1.4663
   47MOL   H57527347   1.049   5.273   3.505 -1.1314  1.1233  0.3473
   47MOL   H57627348   1.114   5.471   3.649 -3.5273  0.2444 -0.7561
   47MOL   H57727349   1.268   5.479   3.566 -0.5394 -2.0651 -0.7915
   47MOL   H57827350   0.915   5.460   3.498  0.0504  0.3558  0.0270
   47MOL   H57927351   0.938   5.731   3.551 -0.3799 -0.2357 -0.3642
   47MOL   H58027352   0.800   5.637   3.371  0.7826  1.0320  0.3138
   47MOL   H58127353   0.956   5.695   3.309 -0.1638 -0.5865 -0.3251
   47MOL   H58227354   0.967   5.478   3.215 -0.1966  1.1239 -1.8243
   48MOL     C127355   1.483   6.900   6.389 -0.0739 -0.0082  0.1771
   48MOL     C227356   1.538   6.766   6.345 -0.5802 -0.3459 -0.3273
   48MOL     O327357   1.629   6.729   6.444 -0.1997 -0.1234  0.0301
   48MOL     C427358   1.430   6.660   6.323 -0.5217 -0.2089 -0.4349
   48MOL     O527359   1.390   6.666   6.190 -0.1410 -0.2738 -0.2135
   48MOL     C627360   1.294   6.573   6.138  0.3553  0.5347 -0.4297
   48MOL     C727361   1.147   6.628   6.144 -0.5455 -0.2903  0.2698
   48MOL     C827362   1.127   6.754   6.062  0.1348 -0.0065 -0.5008
   48MOL     O927363   1.138   6.721   5.924 -0.1517  0.1844 -0.1147
   48MOL    C1027364   1.074   6.802   5.828  0.5536 -0.0383 -0.7167
   48MOL    O1127365   0.934   6.792   5.836 -0.1841 -0.1744 -0.1968
   48MOL    C1227366   1.118   6.760   5.682  0.0467  0.1312  0.1264
   48MOL    O1327367   1.224   6.831   5.637  0.2115  0.3220  0.7343
   48MOL    H1427368   1.555   6.981   6.397 -0.2742  0.1384  0.4949
   48MOL    H1527369   1.448   6.891   6.491  1.3956 -0.4377  0.6485
   48MOL    H1627370   1.589   6.774   6.249 -0.3332 -0.0459 -0.1725
   48MOL    H1727371   1.580   6.688   6.514  0.2288 -1.7350 -0.5847
   48MOL    H1827372   1.470   6.560   6.338 -1.2111 -0.2491  1.2765
   48MOL    H1927373   1.352   6.681   6.396  1.9838 -0.2304  2.3305
   48MOL    H2027374   1.301   6.480   6.195 -0.5306  0.0397 -1.1146
   48MOL    H2127375   1.316   6.547   6.035  2.4940  1.3435 -0.2126
   48MOL    H2227376   1.115   6.651   6.246  1.1401 -0.4816  0.8734
   48MOL    H2327377   1.077   6.554   6.105 -1.5479  1.0488 -0.5092
   48MOL    H2427378   1.033   6.803   6.087 -0.5533 -0.7197 -1.6291
   48MOL    H2527379   1.199   6.832   6.088 -0.7478  1.1496 -1.4491
   48MOL    H2627380   1.092   6.907   5.851  2.1638 -0.6522  0.9317
   48MOL    H2727381   0.908   6.724   5.775 -2.2008  2.2196 -2.1360
   48MOL    H2827382   1.129   6.652   5.672 -1.7623  0.0365 -1.0491
   48MOL    H2927383   1.032   6.783   5.619 -0.5815 -3.1466 -0.2713
   48MOL    H3027384   1.396   6.929   6.329  0.3052  1.3132  0.2289
   48MOL    C3127385   1.253   6.798   5.502  0.4702  0.2482 -0.1923
   48MOL    C3227386   1.407   6.804   5.479 -0.9662 -0.4468  0.0827
   48MOL    O3327387   1.450   6.936   5.518  0.0136 -0.4121 -0.2612
   48MOL    C3427388   1.445   6.777   5.331 -0.3385 -0.2371  0.3170
   48MOL    O3527389   1.390   6.653   5.296 -0.3568 -0.1437 -0.4878
   48MOL    C3627390   1.389   6.624   5.163 -0.0465 -0.0378  0.2549
   48MOL    C3727391   1.303   6.499   5.135  0.0321 -0.0937  0.2278
   48MOL    C3827392   1.179   6.495   5.222  0.4291 -0.5211  0.2671
   48MOL    O3927393   1.099   6.390   5.181  0.2545 -0.3706 -0.0913
   48MOL    C4027394   0.984   6.362   5.264 -0.3334 -0.6894  0.3018
   48MOL    O4127395   1.011   6.284   5.372 -0.6996  0.5529  0.0600
   48MOL    C4227396   0.881   6.296   5.183  0.3721  0.1160 -0.3492
   48MOL    O4327397   0.931   6.166   5.162  0.4315 -0.9079 -0.3782
   48MOL    H4427398   1.216   6.701   5.469  0.4262 -0.6551  2.3910
   48MOL    H4527399   1.209   6.871   5.434  0.0999  0.5092  0.3196
   48MOL    H4627400   1.470   6.732   5.531 -0.5871 -0.2904 -0.1556
   48MOL    H4727401   1.439   6.937   5.612 -0.8479  0.8540 -0.3737
   48MOL    H4827402   1.384   6.846   5.273  1.9735  3.4676  2.1213
   48MOL    H4927403   1.550   6.786   5.303 -0.8967 -0.8119 -2.0939
   48MOL    H5027404   1.492   6.617   5.127 -1.1244  1.6025 -3.3174
   48MOL    H5127405   1.338   6.705   5.112  1.0455  0.9577  0.6937
   48MOL    H5227406   1.353   6.406   5.160 -2.3933 -1.6426 -0.5265
   48MOL    H5327407   1.272   6.491   5.031 -1.4364 -1.7016  0.7707
   48MOL    H5427408   1.205   6.497   5.328  0.1656 -0.4020  0.3297
   48MOL    H5527409   1.126   6.587   5.194 -0.2737 -1.4937 -1.7361
   48MOL    H5627410   0.940   6.455   5.301  0.9906  1.4636 -3.2112
   48MOL    H5727411   1.049   6.206   5.335  1.3170  2.0112 -1.0514
   48MOL    H5827412   0.795   6.295   5.250  0.5450  4.5571  0.0590
   48MOL    H5927413   0.853   6.354   5.096  2.8580  5.5277  2.2399
   48MOL    C6027414   0.832   6.079   5.107 -0.2040  0.0093  0.0301
   48MOL    C6127415   0.761   5.999   5.218 -0.1056  0.4644  0.7064
   48MOL    O6227416   0.847   5.891   5.255  0.4469 -0.3865  0.1898
   48MOL    C6327417   0.626   5.947   5.173 -0.6812  0.1992  0.2605
   48MOL    O6427418   0.566   5.903   5.296 -0.0413 -0.5598  0.0990
   48MOL    C6527419   0.460   5.975   5.344  0.4725 -0.4060  0.1818
   48MOL    C6627420   0.437   5.940   5.494  0.2777  0.1191  0.0711
   48MOL    C6727421   0.306   5.988   5.557  0.0520 -0.1373  0.0528
   48MOL    O6827422   0.302   5.938   5.696  0.6969  0.8689 -0.5179
   48MOL    C6927423   0.210   6.001   5.778  0.6600  0.7286 -0.0236
   48MOL    O7027424   0.140   5.913   5.863 -0.0945 -0.0540 -0.7305
   48MOL    C7127425   0.285   6.112   5.854 -0.1707 -0.5717 -0.6412
   48MOL    O7227426   0.278   6.227   5.769  0.4420  0.1374  0.2311
   48MOL    H7327427   0.884   6.020   5.032  3.4594  1.4805  1.2670
   48MOL    H7427428   0.759   6.135   5.049  0.0744  1.3157  0.9000
   48MOL    H7527429   0.745   6.066   5.303  0.2940 -2.0316  2.8051
   48MOL    H7627430   0.915   5.928   5.309  0.1768 -2.2255  1.8601
   48MOL    H7727431   0.576   6.027   5.120  1.1656  0.8601 -0.5423
   48MOL    H7827432   0.643   5.870   5.098 -1.9825  0.0933  0.0661
   48MOL    H7927433   0.369   5.953   5.288  0.6768 -2.6379  0.6749
   48MOL    H8027434   0.474   6.083   5.332 -1.0024 -0.0991  1.0188
   48MOL    H8127435   0.526   5.971   5.549  0.3044 -0.2041  0.2124
   48MOL    H8227436   0.444   5.831   5.502 -1.7854 -0.0366 -0.1409
   48MOL    H8327437   0.221   5.934   5.515 -2.1570  1.5454  2.1478
   48MOL    H8427438   0.286   6.095   5.559 -0.1683 -0.1955  1.0709
   48MOL    H8527439   0.129   6.048   5.722  1.6134  0.8854 -1.2972
   48MOL    H8627440   0.184   5.911   5.946 -1.8587 -0.1632  0.2230
   48MOL    H8727441   0.236   6.118   5.951  1.2132 -1.2271  0.1132
   48MOL    H8827442   0.389   6.081   5.865 -0.1820 -1.4101 -2.6874
   48MOL    C8927443   0.345   6.341   5.825  0.2656 -0.1499  0.4688
   48MOL    C9027444   0.326   6.470   5.747 -0.9250  0.4142 -0.4346
   48MOL    O9127445   0.354   6.432   5.611  0.2840  0.9020 -0.2587
   48MOL    C9227446   0.188   6.531   5.760  0.4756  0.2457  0.0585
   48MOL    O9327447   0.191   6.664   5.702 -1.0914 -0.6566 -0.4424
   48MOL    C9427448   0.067   6.716   5.698  0.4233  0.5086 -0.0947
   48MOL    C9527449   0.098   6.852   5.629  0.7066 -0.6042 -0.0605
   48MOL    C9627450   7.669   6.941   5.616  0.8358 -0.4898 -0.8795
   48MOL    O9727451   0.002   7.044   5.522 -0.4581  0.1240  0.1011
   48MOL    C9827452   7.602   7.098   5.440  0.3314 -0.5982 -0.6823
   48MOL    O9927453   7.625   7.237   5.411  0.5167  0.0114  0.4918
   48MOL   C10027454   7.603   7.012   5.313  0.4548  0.2234  0.0855
   48MOL   O10127455   7.566   6.877   5.343 -0.7148 -0.3617 -0.0660
   48MOL   H10227456   0.452   6.320   5.821  0.3964  0.7769 -1.8363
   48MOL   H10327457   0.317   6.357   5.929 -2.5871 -0.1016 -0.2603
   48MOL   H10427458   0.405   6.543   5.764 -2.1829  1.2920  2.0475
   48MOL   H10527459   0.314   6.346   5.606  0.2248  0.8525  1.0014
   48MOL   H10627460   0.107   6.482   5.705  0.2036 -1.2153  1.7070
   48MOL   H10727461   0.163   6.550   5.865  1.0979  1.6650 -0.0410
   48MOL   H10827462   0.018   6.722   5.795  0.7857  1.8567  0.0162
   48MOL   H10927463   7.690   6.657   5.641 -0.4687 -0.7360  2.2630
   48MOL   H11027464   0.145   6.854   5.530  0.9631 -1.8024  0.0291
   48MOL   H11127465   0.171   6.893   5.698  0.6781 -0.8205  0.0970
   48MOL   H11227466   7.591   6.876   5.576  0.5235 -1.9983  2.0375
   48MOL   H11327467   7.632   6.979   5.711 -3.2657 -0.2948 -2.4433
   48MOL   H11427468   7.500   7.107   5.478  1.1197 -0.1835  1.4079
   48MOL   H11527469   0.011   7.257   5.365 -0.4879 -1.6414 -2.0738
   48MOL   H11627470   7.532   7.049   5.239  0.8596 -0.6425 -0.7549
   48MOL   H11727471   0.004   7.017   5.261 -0.1328  1.4367 -0.8852
   48MOL   C11827472   7.550   6.790   5.232  0.2338 -0.2628 -0.0666
   48MOL   C11927473   7.549   6.651   5.301 -0.1554 -0.4332  0.1499
   48MOL   O12027474   7.551   6.553   5.199 -0.5308  0.2308 -0.5749
   48MOL   C12127475   7.429   6.633   5.399 -0.3164 -0.2714 -0.4044
   48MOL   O12227476   7.446   6.510   5.467 -0.0931 -0.6874  0.2130
   48MOL   C12327477   7.419   6.507   5.604  0.0553  0.0467  0.1992
   48MOL   C12427478   7.468   6.373   5.659 -0.3363  0.2447  0.1144
   48MOL   C12527479   7.411   6.338   5.799  0.6713  0.2798  0.6962
   48MOL   O12627480   7.464   6.213   5.835  0.1988  0.0332  0.2324
   48MOL   C12727481   7.455   6.176   5.966 -0.0883  0.2746 -0.2004
   48MOL   O12827482   7.547   6.249   6.048  0.1897  0.1091 -0.1436
   48MOL   C12927483   7.485   6.029   5.983 -0.3992  0.2160 -0.0747
   48MOL   O13027484   7.374   5.946   6.004 -0.2735 -0.2489  0.5049
   48MOL   H13127485   7.456   6.816   5.183  0.2017  1.2384  0.7692
   48MOL   H13227486   7.631   6.789   5.159  0.0934  0.7854 -0.2396
   48MOL   H13327487   7.638   6.636   5.362 -0.1617 -1.1315 -0.0057
   48MOL   H13427488   7.552   6.471   5.247  0.9677  0.2212 -0.6077
   48MOL   H13527489   7.422   6.710   5.475 -0.2752 -1.4050  0.7575
   48MOL   H13627490   7.331   6.637   5.352 -0.1726 -1.4338 -0.8055
   48MOL   H13727491   7.319   6.524   5.644 -0.0265  1.2156 -0.4954
   48MOL   H13827492   7.487   6.578   5.651 -0.9760  0.7397  0.6603
   48MOL   H13927493   7.576   6.369   5.674 -0.5497 -0.2254  1.6669
   48MOL   H14027494   7.442   6.290   5.593  2.3306 -1.2847  0.8963
   48MOL   H14127495   7.446   6.412   5.870  1.0162 -0.5575  1.4119
   48MOL   H14227496   7.302   6.341   5.802  0.6465  0.3522 -0.1787
   48MOL   H14327497   7.352   6.199   5.995  0.2879  0.2236  1.2607
   48MOL   H14427498   7.494   6.300   6.107  0.5915 -0.6382  0.8664
   48MOL   H14527499   7.546   5.996   5.898  1.9077  1.8662  0.8952
   48MOL   H14627500   7.554   6.034   6.067  2.3674  2.4742 -2.3504
   48MOL   C14727501   7.417   5.815   6.036 -0.6214  0.5889  0.1587
   48MOL   C14827502   7.303   5.721   6.079 -0.3882  0.0760  0.2439
   48MOL   O14927503   7.295   5.754   6.219  0.3288  0.1384 -0.3532
   48MOL   C15027504   7.326   5.574   6.062  0.1776  0.1981  0.1814
   48MOL   O15127505   7.212   5.497   6.039 -0.5436 -0.2768 -0.0087
   48MOL   C15227506   7.132   5.456   6.149  0.3862 -0.0061  0.3329
   48MOL   C15327507   7.041   5.342   6.106  0.4912 -0.7218  0.2084
   48MOL   C15427508   6.976   5.277   6.230 -0.3700 -0.7213  0.1669
   48MOL   O15527509   6.890   5.174   6.193  0.0716 -0.0284  0.4511
   48MOL   C15627510   6.841   5.108   6.304 -0.4795  0.2917 -0.4434
   48MOL   O15727511   6.920   4.998   6.337  0.0658  0.7924 -0.4199
   48MOL   C15827512   6.699   5.076   6.282 -0.5516 -0.2885  0.0117
   48MOL   O15927513   6.627   5.191   6.259  0.0486  0.1311  0.0828
   48MOL   H16027514   7.476   5.833   6.127  0.0481 -0.2977 -0.0928
   48MOL   H16127515   7.474   5.782   5.950 -2.5381  1.3878 -1.4510
   48MOL   H16227516   7.205   5.750   6.041 -0.0283  1.1961  0.1344
   48MOL   H16327517   7.306   5.848   6.223  0.5066  0.1228 -0.4941
   48MOL   H16427518   7.384   5.545   5.974 -0.7333  0.8692 -0.6528
   48MOL   H16527519   7.378   5.536   6.150 -0.9188 -1.5497  0.0845
   48MOL   H16627520   7.077   5.544   6.183  0.8928  0.3393  0.2536
   48MOL   H16727521   7.193   5.416   6.230  1.1204 -1.4792 -0.9262
   48MOL   H16827522   7.097   5.272   6.044 -0.0570  0.2135 -1.3791
   48MOL   H16927523   6.958   5.375   6.042 -1.3805 -0.9424  2.4486
   48MOL   H17027524   7.050   5.247   6.304 -0.4992  1.4885  1.2261
   48MOL   H17127525   6.917   5.357   6.274  1.0066 -0.3222  1.2829
   48MOL   H17227526   6.853   5.172   6.392  0.4221  0.6604 -0.8295
   48MOL   H17327527   6.908   4.938   6.264  2.0954 -0.1874  0.0235
   48MOL   H17427528   6.682   4.997   6.209 -3.2122 -0.5693  0.9141
   48MOL   H17527529   6.659   5.016   6.363 -0.9773 -2.1747 -1.5468
   48MOL   C17627530   6.547   5.201   6.137  0.1172  0.7179 -0.3021
   48MOL   C17727531   6.623   5.284   6.035  0.1351  0.1910 -0.5717
   48MOL   O17827532   6.732   5.208   5.993 -0.2791 -0.2124  0.0869
   48MOL   C17927533   6.668   5.420   6.100 -0.9754 -0.1188  0.0003
   48MOL   O18027534   6.714   5.503   5.993  0.5295  0.0007  0.4204
   48MOL   C18127535   6.756   5.631   6.033  0.0201 -0.3206 -0.3403
   48MOL   C18227536   6.811   5.702   5.906 -0.3430  0.5322  0.4214
   48MOL   C18327537   6.813   5.849   5.934  0.1204 -0.0463  0.5220
   48MOL   O18427538   6.915   5.863   6.039 -0.4282  0.3288  0.3500
   48MOL   C18527539   6.912   5.989   6.090 -0.1010 -0.2365 -0.5294
   48MOL   O18627540   6.941   6.080   5.987  0.1635  0.6718 -0.5803
   48MOL   C18727541   7.027   5.998   6.189 -0.2423  0.7324  0.3813
   48MOL   O18827542   7.010   6.094   6.289 -0.5733  0.2811  0.1841
   48MOL   H18927543   6.448   5.244   6.154 -0.9671 -1.7929 -0.1083
   48MOL   H19027544   6.521   5.103   6.099  1.3805  0.2156  0.0999
   48MOL   H19127545   6.556   5.300   5.950 -1.5289  0.9639  0.8414
   48MOL   H19227546   6.792   5.203   6.066 -0.3354  0.9000  0.2061
   48MOL   H19327547   6.583   5.473   6.143  1.3089  1.5525  2.6106
   48MOL   H19427548   6.742   5.408   6.179 -2.7374 -0.2895  1.6405
   48MOL   H19527549   6.828   5.641   6.114 -1.9957  0.6582  1.3734
   48MOL   H19627550   6.669   5.688   6.066  1.4092  1.2547  0.6996
   48MOL   H19727551   6.752   5.682   5.816  0.2353  3.2131 -0.5983
   48MOL   H19827552   6.910   5.660   5.889 -1.2606 -2.1471  1.4215
   48MOL   H19927553   6.850   5.907   5.850 -1.2646 -2.0852 -1.5534
   48MOL   H20027554   6.716   5.889   5.966  0.9246  0.1579  2.7782
   48MOL   H20127555   6.827   6.026   6.146 -0.8985 -0.9398 -1.2631
   48MOL   H20227556   7.023   6.060   5.944  1.4021  2.7280  0.7423
   48MOL   H20327557   7.033   5.902   6.241  2.7244  0.9738  0.5671
   48MOL   H20427558   7.127   6.001   6.145 -0.5522  0.7048 -0.3277
   48MOL   C20527559   7.109   6.079   6.391  0.3286  0.0573 -0.3983
   48MOL   C20627560   7.062   6.163   6.512  0.5680  0.1574  0.4433
   48MOL   O20727561   6.959   6.086   6.565 -0.6620  0.3530  0.0868
   48MOL   C20827562   7.180   6.190   6.606  0.0146 -0.1947 -0.6796
   48MOL   O20927563   7.301   6.229   6.541 -0.1577  0.0394  0.3642
   48MOL   C21027564   7.417   6.250   6.623 -0.2685  0.2850  0.2576
   48MOL   C21127565   7.522   6.144   6.578  0.2783  0.3202 -0.4015
   48MOL   C21227566   7.478   6.012   6.644 -0.1401  0.5631 -0.0211
   48MOL   O21327567   7.572   5.909   6.606  0.1588 -0.5294 -0.1595
   48MOL   C21427568   7.511   5.817   6.516 -0.2819 -0.6579 -1.1608
   48MOL   O21527569   7.453   5.703   6.578 -0.5444 -0.1287  0.0249
   48MOL   C21627570   7.621   5.779   6.417  0.2361 -0.3511 -0.3019
   48MOL   O21727571   7.668   5.892   6.354 -0.5544  0.3134  0.0366
   48MOL   H21827572   7.204   6.109   6.347  0.4385  0.0077 -0.1954
   48MOL   H21927573   7.127   5.975   6.420  1.2612  0.1110 -0.7680
   48MOL   H22027574   7.030   6.261   6.477 -1.8123 -0.9534 -0.6156
   48MOL   H22127575   6.915   6.034   6.499  0.2505  1.0876 -1.1305
   48MOL   H22227576   7.159   6.258   6.689  1.8185  0.5725 -0.8221
   48MOL   H22327577   7.214   6.097   6.651 -0.6524  0.3179  0.9142
   48MOL   H22427578   7.392   6.259   6.729 -0.7000  0.1617  0.1676
   48MOL   H22527579   7.452   6.346   6.587  1.2683 -1.4220 -2.9990
   48MOL   H22627580   7.614   6.182   6.622  0.5802 -0.9202  0.0586
   48MOL   H22727581   7.538   6.125   6.472  0.5987  1.2833 -0.5274
   48MOL   H22827582   7.485   6.009   6.753  0.0406  1.5783  0.0004
   48MOL   H22927583   7.379   5.978   6.613 -0.3750  1.6210 -0.4623
   48MOL   H23027584   7.427   5.861   6.462  0.1976  0.1226 -1.2785
   48MOL   H23127585   7.527   5.646   6.586 -0.3267  0.1091 -0.2549
   48MOL   H23227586   0.002   5.725   6.475 -1.9072 -0.9096  2.0384
   48MOL   H23327587   7.585   5.707   6.343  0.4128 -1.7071  0.9186
   48MOL   C23427588   0.103   5.867   6.293 -0.1442  0.1142 -1.0441
   48MOL   C23527589   0.131   5.978   6.197 -0.4535  0.0139 -0.4236
   48MOL   O23627590   0.252   5.943   6.132 -0.5061  0.4499 -0.4216
   48MOL   C23727591   0.142   6.104   6.273  0.4066 -0.1246  0.7440
   48MOL   O23827592   0.187   6.216   6.195  0.4533  0.8282  0.4033
   48MOL   C23927593   0.156   6.338   6.255 -0.7503 -0.6579 -0.7661
   48MOL   C24027594   0.211   6.442   6.149  0.3794  0.2857  0.3235
   48MOL   C24127595   0.227   6.580   6.193  0.1312 -0.2751  0.9981
   48MOL   O24227596   0.275   6.655   6.086  0.8265 -0.2687  0.7146
   48MOL   C24327597   0.281   6.801   6.117 -0.2795 -0.0124 -0.1027
   48MOL   O24427598   0.169   6.842   6.189 -0.4138  0.1858  0.2522
   48MOL   C24527599   0.293   6.876   5.989  0.5645 -1.0187  1.1831
   48MOL   O24627600   0.429   6.880   5.944 -0.3174  0.0848  0.1049
   48MOL   H24727601   0.188   5.870   6.361 -1.1472 -1.6391  0.3275
   48MOL   H24827602   0.099   5.779   6.228  0.3699  1.1233 -2.4633
   48MOL   H24927603   0.056   5.994   6.120 -0.6547  1.1659  0.0076
   48MOL   H25027604   0.315   5.926   6.200  1.2100  1.0741 -1.8092
   48MOL   H25127605   0.049   6.126   6.327  1.3052  0.5117  2.0655
   48MOL   H25227606   0.207   6.090   6.360  0.9015 -0.2654  0.3508
   48MOL   H25327607   0.211   6.337   6.349 -1.0894  0.5197 -0.5406
   48MOL   H25427608   0.049   6.356   6.269 -0.4548  0.6570 -0.1595
   48MOL   H25527609   0.155   6.439   6.056  0.4707  0.6056  0.2604
   48MOL   H25627610   0.314   6.411   6.131  0.5016  1.3656 -0.8286
   48MOL   H25727611   0.126   6.608   6.225  0.0316  2.0283 -1.1756
   48MOL   H25827612   0.287   6.595   6.283 -1.0604 -1.4043  2.0012
   48MOL   H25927613   0.370   6.826   6.174 -0.6206 -1.2965  1.0284
   48MOL   H26027614   0.103   6.839   6.121  1.3583 -1.2854 -1.4557
   48MOL   H26127615   0.222   6.833   5.918  2.4509 -0.3289 -1.1849
   48MOL   H26227616   0.279   6.982   6.008 -1.9020 -0.6529 -2.1877
   48MOL   C26327617   0.444   6.882   5.801 -0.5764  0.0493  0.1093
   48MOL   C26427618   0.594   6.863   5.754  0.3934 -0.5313  0.5498
   48MOL   O26527619   0.634   6.721   5.746 -0.3948 -0.2144 -0.2222
   48MOL   C26627620   0.611   6.905   5.606  0.0414  0.5503  0.3984
   48MOL   O26727621   0.756   6.901   5.566 -0.3856  0.3726  0.2851
   48MOL   C26827622   0.805   7.033   5.564  0.2237 -0.3104 -0.5166
   48MOL   C26927623   0.955   7.032   5.527 -0.1016 -0.2358 -0.4881
   48MOL   C27027624   1.007   7.174   5.484 -0.1975  0.3130  0.3110
   48MOL   O27127625   1.125   7.141   5.407 -0.1034  1.1615  0.2170
   48MOL   C27227626   1.200   7.240   5.345  0.2284 -0.0438  0.4301
   48MOL   O27327627   1.293   7.296   5.433 -0.3911 -0.1720 -0.2707
   48MOL   C27427628   1.265   7.191   5.218 -0.3558  0.1801 -0.5014
   48MOL   O27527629   1.170   7.182   5.110 -0.1039 -0.8106 -0.4936
   48MOL   H27627630   0.398   6.974   5.766  0.1742 -0.2739 -1.7748
   48MOL   H27727631   0.391   6.801   5.752  0.0275  0.3057 -0.9790
   48MOL   H27827632   0.653   6.924   5.823  0.9409 -0.3317 -0.0785
   48MOL   H27927633   0.602   6.679   5.824  0.9625 -0.2385  0.3371
   48MOL   H28027634   0.551   6.841   5.541  1.5106  0.4644 -0.9075
   48MOL   H28127635   0.575   7.007   5.592  0.5538  0.7562  0.5802
   48MOL   H28227636   0.803   7.071   5.667  1.8488 -2.3357  0.3075
   48MOL   H28327637   0.751   7.094   5.492 -1.0510  0.6908  1.2631
   48MOL   H28427638   0.957   6.965   5.440 -1.5006  1.9241 -2.2436
   48MOL   H28527639   1.026   6.997   5.601  0.9317 -0.9490 -1.7992
   48MOL   H28627640   0.940   7.225   5.415  0.7165  1.1195  0.0215
   48MOL   H28727641   1.024   7.234   5.573 -1.5133 -0.2146  0.9303
   48MOL   H28827642   1.136   7.319   5.307 -0.0355 -0.0931  0.7748
   48MOL   H28927643   1.374   7.251   5.415  0.9474  1.7445  0.7611
   48MOL   H29027644   1.349   7.254   5.189  0.2899 -1.1018 -1.4540
   48MOL   H29127645   1.317   7.099   5.244 -0.9625  0.1505  0.6821
   48MOL   C29227646   1.233   7.105   5.014  0.1126 -0.2853  0.2325
   48MOL   C29327647   1.151   7.121   4.881 -0.1301  0.7163  0.3310
   48MOL   O29427648   1.034   7.040   4.906 -0.2516  0.2554  0.1141
   48MOL   C29527649   1.125   7.263   4.839 -0.2377 -0.5159  0.0091
   48MOL   O29627650   1.151   7.289   4.704 -0.3365 -0.8836 -0.2838
   48MOL   C29727651   1.148   7.425   4.664  0.2189  0.2062  0.4648
   48MOL   C29827652   1.186   7.426   4.518 -0.2596  0.4190  0.4970
   48MOL   C29927653   1.083   7.347   4.433  0.0237 -0.1354  0.2542
   48MOL   O30027654   1.132   7.349   4.302 -0.7166  0.1183  0.4222
   48MOL   C30127655   1.058   7.255   4.229  0.5103 -0.5853 -0.5520
   48MOL   O30227656   0.913   7.263   4.239 -0.3047 -0.0665  0.0050
   48MOL   C30327657   1.102   7.275   4.087  0.0968  0.1823 -0.7629
   48MOL   O30427658   1.221   7.215   4.042  0.7145 -0.3770 -0.0744
   48MOL   H30527659   1.328   7.148   4.982 -0.6324  1.1304 -0.1312
   48MOL   H30627660   1.250   6.999   5.033 -1.9249 -0.6162  0.2676
   48MOL   H30727661   1.203   7.062   4.806  0.0582 -0.5971  1.4705
   48MOL   H30827662   1.010   7.044   4.998  3.7533 -0.4663  1.2572
   48MOL   H30927663   1.019   7.286   4.849  0.0191  0.3382  0.7878
   48MOL   H31027664   1.178   7.332   4.905 -0.3874  1.6517 -2.0763
   48MOL   H31127665   1.218   7.489   4.717  1.0627  0.8589 -1.3866
   48MOL   H31227666   1.046   7.462   4.673  0.8026  2.0443 -0.2878
   48MOL   H31327667   1.286   7.385   4.509  0.4768  1.5367  3.2412
   48MOL   H31427668   1.200   7.526   4.477 -3.1797  0.1096 -1.4938
   48MOL   H31527669   1.087   7.244   4.468 -1.0562 -0.9609 -1.9699
   48MOL   H31627670   0.985   7.394   4.447 -0.1771 -0.8218  1.2322
   48MOL   H31727671   1.084   7.153   4.259 -2.2804 -0.2823  3.3782
   48MOL   H31827672   0.888   7.337   4.185  0.2037  1.0746  1.3096
   48MOL   H31927673   1.106   7.382   4.064  0.8596  0.6641  1.4794
   48MOL   H32027674   1.033   7.228   4.018 -0.9195  2.0886 -1.0889
   48MOL   C32127675   1.341   7.269   4.092 -0.2474 -0.1309 -0.6850
   48MOL   C32227676   1.454   7.202   4.020 -0.3159  0.4933  0.3975
   48MOL   O32327677   1.466   7.062   4.041  0.0218 -0.3050 -0.2846
   48MOL   C32427678   1.462   7.233   3.873  0.7216  0.3464  0.1199
   48MOL   O32527679   1.601   7.246   3.827  0.4713 -0.0226  0.1415
   48MOL   C32627680   1.605   7.263   3.688 -0.3550 -0.2090 -0.3062
   48MOL   C32727681   1.751   7.273   3.634 -0.2953 -0.3422  0.4131
   48MOL   C32827682   1.754   7.315   3.488  0.5990 -0.4866  0.0343
   48MOL   O32927683   1.889   7.347   3.453  0.0725 -0.2083  0.5052
   48MOL   C33027684   1.914   7.369   3.319  0.0130  0.0099 -0.7137
   48MOL   O33127685   1.867   7.501   3.280 -0.3950  0.4863  0.4574
   48MOL   C33227686   2.060   7.368   3.299 -0.4762 -0.4299 -0.5122
   48MOL   O33327687   2.115   7.480   3.369 -0.3850  0.0362 -0.5960
   48MOL   H33427688   1.358   7.245   4.196 -0.1457 -1.9208 -1.1048
   48MOL   H33527689   1.342   7.375   4.066 -1.1237 -0.4284 -1.9864
   48MOL   H33627690   1.547   7.234   4.067 -0.4766  0.4734  0.7317
   48MOL   H33727691   1.387   7.023   4.006  0.1284 -0.4638 -0.3526
   48MOL   H33827692   1.398   7.319   3.854  3.1031  1.5526 -2.6720
   48MOL   H33927693   1.420   7.155   3.809  0.2346  0.6141  0.1090
   48MOL   H34027694   1.573   7.363   3.660 -0.4737 -0.2349 -0.2620
   48MOL   H34127695   1.558   7.177   3.639  0.5069 -0.8783  0.0300
   48MOL   H34227696   1.805   7.353   3.684  0.3324 -0.4734 -0.0311
   48MOL   H34327697   1.814   7.187   3.657 -0.3113 -0.2779  0.6880
   48MOL   H34427698   1.709   7.235   3.429 -2.2867  1.3753 -0.3583
   48MOL   H34527699   1.690   7.399   3.461 -0.4965 -1.5148 -0.6162
   48MOL   H34627700   1.859   7.291   3.266 -0.6059 -0.4652  0.6087
   48MOL   H34727701   1.928   7.561   3.320  0.6019 -1.8177  2.5526
   48MOL   H34827702   2.107   7.275   3.330  0.9884  0.9304  1.4803
   48MOL   H34927703   2.081   7.393   3.195  1.9702  0.2296  0.1004
   48MOL   C35027704   2.252   7.502   3.365  0.3043  0.7022 -0.1399
   48MOL   C35127705   2.280   7.582   3.494  0.3563 -0.2280 -0.3616
   48MOL   O35227706   2.226   0.022   3.465  0.0593 -0.1409  0.2263
   48MOL   C35327707   2.212   7.530   3.626 -0.4227  0.3556 -0.3257
   48MOL   O35427708   2.270   7.602   3.732  0.1148 -0.3703  0.1117
   48MOL   C35527709   2.198   7.596   3.856  0.3256 -0.2479  0.2107
   48MOL   C35627710   2.211   7.458   3.910 -0.2481  0.6456 -0.1329
   48MOL   C35727711   2.138   7.450   4.045  0.0930  0.4381  0.1817
   48MOL   O35827712   2.007   7.504   4.049 -0.1753 -0.3435 -0.2815
   48MOL   C35927713   1.915   7.417   3.982  0.1111  0.1904 -0.1712
   48MOL   O36027714   1.876   7.306   4.069 -0.4387 -0.2244  0.1113
   48MOL   C36127715   1.787   7.504   3.961 -0.7510  0.3868 -0.6303
   48MOL   O36227716   1.726   7.540   4.086 -0.6117  1.0237 -0.6425
   48MOL   H36327717   2.292   7.536   3.270 -0.3961  2.1444  0.0794
   48MOL   H36427718   2.290   7.399   3.366  1.5068  1.1328 -0.8022
   48MOL   H36527719   2.389   7.583   3.494  0.3902  0.8787 -2.4263
   48MOL   H36627720   2.170   0.024   3.389  1.9965  2.1568 -1.2468
   48MOL   H36727721   2.104   7.535   3.617 -0.3915 -0.0235 -0.9120
   48MOL   H36827722   2.234   7.426   3.646 -1.3281  0.2980  0.4008
   48MOL   H36927723   2.094   7.628   3.856  0.3918 -0.0187 -0.5309
   48MOL   H37027724   2.248   7.670   3.919  0.1299 -0.0902  0.1819
   48MOL   H37127725   2.312   7.421   3.928  0.5210  2.4393 -0.6695
   48MOL   H37227726   2.181   7.386   3.833  2.7000  0.4177 -1.1309
   48MOL   H37327727   2.143   7.349   4.084  1.0854  0.2560 -0.4221
   48MOL   H37427728   2.192   7.514   4.115 -1.2141  0.3697  1.2815
   48MOL   H37527729   1.964   7.379   3.893 -0.0392 -1.3223  0.3719
   48MOL   H37627730   1.819   7.342   4.135 -0.8631 -2.3670  0.9669
   48MOL   H37727731   1.812   7.587   3.894 -1.3496 -0.7221 -2.2579
   48MOL   H37827732   1.718   7.442   3.903  2.0518 -3.2809 -0.2378
   48MOL   C37927733   1.602   7.607   4.100 -0.0238 -0.6676 -0.8078
   48MOL   C38027734   1.580   7.641   4.248 -0.9387 -0.3979  0.4410
   48MOL   O38127735   1.450   7.677   4.259  0.0615 -0.2011 -0.2136
   48MOL   C38227736   1.590   7.513   4.328 -0.6794  0.3337  1.1588
   48MOL   O38327737   1.574   7.557   4.464 -0.2342 -0.1277 -0.2330
   48MOL   C38427738   1.576   7.445   4.553 -0.1631 -0.4751  0.1574
   48MOL   C38527739   1.560   7.477   4.698  0.2512  0.2249 -0.4379
   48MOL   C38627740   1.690   7.510   4.777 -0.5526 -0.2535  0.3339
   48MOL   O38727741   1.666   7.567   4.897 -0.0730 -0.2280  0.1038
   48MOL   C38827742   1.659   7.469   5.002 -0.3564  0.1811 -0.6055
   48MOL   O38927743   1.787   7.433   5.044  0.7807 -0.7945  0.1308
   48MOL   C39027744   1.586   7.532   5.128 -0.7488  0.0874  0.2966
   48MOL   O39127745   1.450   7.558   5.093 -0.1082 -0.4031 -0.9918
   48MOL   H39227746   1.517   7.550   4.062 -0.6408  0.3117 -0.9320
   48MOL   H39327747   1.607   0.010   4.051  0.1604 -0.3578 -0.1693
   48MOL   H39427748   1.643   0.027   4.283  0.5962 -0.9698 -0.9546
   48MOL   H39527749   1.427   7.650   4.346 -1.1213  1.9764  0.1833
   48MOL   H39627750   1.509   7.443   4.307 -0.9030  1.2230 -0.9955
   48MOL   H39727751   1.684   7.458   4.320 -0.7639  0.3432  0.0766
   48MOL   H39827752   1.666   7.386   4.537  0.1899 -0.2570  1.3046
   48MOL   H39927753   1.503   7.369   4.527 -0.5094 -0.1366  0.1326
   48MOL   H40027754   1.516   7.391   4.749 -1.4615  0.4786 -1.4569
   48MOL   H40127755   1.490   7.559   4.711 -0.2723  0.1807 -2.8840
   48MOL   H40227756   1.747   7.417   4.774  0.3337  0.3332 -1.7680
   48MOL   H40327757   1.753   7.573   4.715 -0.6420 -2.1458 -1.7326
   48MOL   H40427758   1.604   7.381   4.968  1.0518 -0.8232 -0.3205
   48MOL   H40527759   1.786   7.368   5.112 -0.2153 -0.0483  0.8445
   48MOL   H40627760   1.579   7.456   5.206  0.1715  0.7435  1.0402
   48MOL   H40727761   1.649   7.616   5.158  1.4735 -0.2648 -3.0300
   48MOL   C40827762   1.396   7.659   5.172 -0.2186 -0.1787 -0.5204
   48MOL   C40927763   1.253   0.004   5.114  0.4950  0.1228  0.1769
   48MOL   O41027764   1.216   0.140   5.132 -0.7424 -0.0244 -0.2061
   48MOL   C41127765   1.148   7.615   5.188 -0.5021 -0.5289  0.2818
   48MOL   O41227766   1.039   7.624   5.101  0.0528 -0.4091  0.0600
   48MOL   C41327767   0.927   7.543   5.144 -0.1291  0.2400  0.5508
   48MOL   C41427768   0.914   7.413   5.060 -0.2578 -0.1640 -0.4516
   48MOL   C41527769   0.816   7.314   5.119  0.2470  0.2809  0.7144
   48MOL   O41627770   0.784   7.213   5.032  0.9612  0.4064  0.1363
   48MOL   C41727771   0.735   7.105   5.094  0.2086 -0.7117  0.3526
   48MOL   O41827772   0.839   7.015   5.129  0.7816 -0.3993 -0.2539
   48MOL   C41927773   0.640   7.040   5.005  0.4216  0.1860 -0.3421
   48MOL   O42027774   0.507   7.075   5.048  0.1053  0.3110  0.1830
   48MOL   H42127775   1.465   0.047   5.152 -1.3684  0.9503  0.0993
   48MOL   H42227776   1.392   7.640   5.279 -0.7737  1.0279 -0.3168
   48MOL   H42327777   1.250   7.673   5.008  1.9023  1.6754 -0.2708
   48MOL   H42427778   1.273   0.195   5.081  1.8709 -0.4863  2.0755
   48MOL   H42527779   1.201   7.520   5.192 -0.1812 -0.2929  2.1474
   48MOL   H42627780   1.142   7.653   5.290  0.5386  0.4875 -0.0280
   48MOL   H42727781   0.941   7.517   5.248 -0.1897  2.0921  1.0497
   48MOL   H42827782   0.837   7.599   5.116  0.2289 -0.1269 -1.3876
   48MOL   H42927783   1.012   7.368   5.049  0.0170  1.0186 -3.1817
   48MOL   H43027784   0.879   7.437   4.960 -2.2727 -0.3087  0.1976
   48MOL   H43127785   0.858   7.285   5.216  0.4648  0.7175  0.7526
   48MOL   H43227786   0.722   7.361   5.148  0.2070  0.3610  0.4544
   48MOL   H43327787   0.687   7.126   5.190 -2.2953 -1.1631 -0.7573
   48MOL   H43427788   0.795   6.940   5.167 -0.7402  0.0570 -1.0749
   48MOL   H43527789   0.670   7.050   4.901  0.1748 -2.4853 -0.7030
   48MOL   H43627790   0.653   6.934   5.027 -0.9244  0.0951  0.0586
   48MOL   C43727791   0.426   7.141   4.952  0.0379  0.3662 -0.1191
   48MOL   C43827792   0.364   7.043   4.846 -0.4444  0.3371  0.9188
   48MOL   O43927793   0.459   6.978   4.762 -0.0595 -0.7622 -0.3160
   48MOL   C44027794   0.263   7.127   4.759  0.2476 -0.1900 -0.3006
   48MOL   O44127795   0.320   7.244   4.718  0.3728 -0.1800  0.4162
   48MOL   C44227796   0.235   7.319   4.630  0.4410  0.0603 -0.4835
   48MOL   C44327797   0.320   7.430   4.558  0.0376  0.3940  0.0121
   48MOL   C44427798   0.245   7.486   4.436 -0.4625 -0.7407 -0.3254
   48MOL   O44527799   0.248   7.382   4.340 -0.6649  0.0735 -0.0833
   48MOL   C44627800   0.220   7.425   4.210  0.7477  0.1582  0.2338
   48MOL   O44727801   0.082   7.419   4.192  0.0877 -0.4900 -0.3642
   48MOL   C44827802   0.299   7.339   4.110 -0.2319  0.9147 -0.2916
   48MOL   O44927803   0.361   7.430   4.015  0.2524  0.0145  0.4151
   48MOL   H45027804   0.340   7.180   5.006 -0.7418 -2.7952  1.0290
   48MOL   H45127805   0.489   7.212   4.899  0.2745 -1.8701 -2.9583
   48MOL   H45227806   0.305   6.964   4.893 -1.0383 -0.3417 -0.9438
   48MOL   H45327807   0.514   7.048   4.731  0.1328  0.0744  1.8647
   48MOL   H45427808   0.227   7.066   4.676  0.7647 -2.0702  0.8425
   48MOL   H45527809   0.180   7.157   4.822  0.8933 -0.5075  0.7099
   48MOL   H45627810   0.149   7.361   4.682  1.0215  2.3929 -1.3297
   48MOL   H45727811   0.208   7.245   4.555 -1.2012  1.6327 -1.4924
   48MOL   H45827812   0.413   7.391   4.518 -1.3745 -3.2661  0.1232
   48MOL   H45927813   0.346   7.512   4.625 -0.2834  2.4611 -2.2817
   48MOL   H46027814   0.147   7.525   4.463  0.0004 -0.6563  1.3101
   48MOL   H46127815   0.308   7.565   4.395  0.6661 -2.1071 -1.2834
   48MOL   H46227816   0.242   7.530   4.192 -1.2232  0.4086 -0.8086
   48MOL   H46327817   0.046   7.493   4.240 -0.8948  0.4995 -2.5180
   48MOL   H46427818   0.383   7.311   4.174 -0.6721  1.9857  0.7855
   48MOL   H46527819   0.244   7.252   4.073 -0.0187  1.2546 -1.4113
   48MOL   C46627820   0.464   7.361   3.945  0.1410 -0.8285  0.1989
   48MOL   C46727821   0.522   7.465   3.853  0.2399  0.1454 -0.4720
   48MOL   O46827822   0.626   7.405   3.781 -0.0411  0.3364  0.0090
   48MOL   C46927823   0.420   7.520   3.753  0.4754  0.2674 -0.1745
   48MOL   O47027824   0.497   7.606   3.667  0.4049 -0.1929  0.3640
   48MOL   C47127825   0.426   7.652   3.554  0.3591  0.0381 -0.8389
   48MOL   C47227826   0.478   7.586   3.429  0.7688 -0.1158 -0.2560
   48MOL   C47327827   0.443   7.672   3.304  0.0649 -0.1137  0.3135
   48MOL   O47427828   0.297   7.688   3.314 -0.6160  0.2090 -0.0235
   48MOL   C47527829   0.238   0.044   3.199  0.4766  0.3342 -0.6800
   48MOL   O47627830   0.253   0.182   3.174 -0.5111  0.3032 -0.1725
   48MOL   C47727831   0.091   0.018   3.218 -0.1768  0.0634 -0.0931
   48MOL   O47827832   0.074   7.569   3.264  0.0388 -0.5643  0.2666
   48MOL   H47927833   0.422   7.288   3.875 -0.5052 -1.3400  1.1009
   48MOL   H48027834   0.539   7.306   4.001  0.1837  0.0527  1.0195
   48MOL   H48127835   0.561   7.549   3.911 -0.3376  0.4259 -0.4925
   48MOL   H48227836   0.660   7.468   3.719  1.8682 -0.8971 -0.2533
   48MOL   H48327837   0.380   7.439   3.692  2.1063  0.1405 -1.0892
   48MOL   H48427838   0.343   7.578   3.803  0.3576 -0.1520  0.1415
   48MOL   H48527839   0.424   0.067   3.554  0.6624  0.0704  1.3295
   48MOL   H48627840   0.319   7.631   3.557 -0.0926  2.3425  0.1322
   48MOL   H48727841   0.452   7.480   3.420  1.6870 -0.6088  2.5072
   48MOL   H48827842   0.586   7.581   3.440  0.5834 -1.6027  1.1016
   48MOL   H48927843   0.489   0.075   3.325  0.0895 -0.3978  1.5673
   48MOL   H49027844   0.470   7.625   3.209  1.1477 -1.6175  1.3518
   48MOL   H49127845   0.268   7.686   3.108  1.2436 -2.7553  1.2572
   48MOL   H49227846   0.326   0.196   3.116 -0.1946 -0.3098  0.0749
   48MOL   H49327847   0.047   0.087   3.290 -5.1083 -2.0730 -0.8583
   48MOL   H49427848   0.038   0.039   3.125  0.1310  1.2908 -0.0010
   48MOL   C49527849   7.628   7.541   3.297 -0.4300  0.1443  0.6257
   48MOL   C49627850   7.605   7.389   3.282  0.2342  0.0620 -0.4654
   48MOL   O49727851   7.598   7.332   3.416 -0.2782 -0.4638 -0.0517
   48MOL   C49827852   7.472   7.350   3.203  0.3034  0.4302 -1.0339
   48MOL   O49927853   7.496   7.219   3.155 -0.7160 -0.0265  0.3002
   48MOL   C50027854   7.399   7.164   3.074  0.0361  0.3478 -0.0490
   48MOL   C50127855   7.344   7.044   3.150  0.2335  0.4421 -0.0483
   48MOL   C50227856   7.438   6.924   3.154  0.3549  0.5848 -0.2197
   48MOL   O50327857   7.378   6.808   3.218 -0.9300  0.4908  0.2157
   48MOL   C50427858   7.444   6.687   3.209 -0.5151 -0.3246  0.1792
   48MOL   O50527859   7.414   6.635   3.083  0.2778  0.3804 -0.1557
   48MOL   C50627860   7.403   6.584   3.309  0.0994  0.1362  0.7165
   48MOL   O50727861   7.437   6.638   3.437  0.1707  0.1598 -0.6964
   48MOL   H50827862   7.559   7.602   3.238 -0.2185  1.9009  2.1491
   48MOL   H50927863   7.615   7.584   3.396  1.2864 -0.2879  1.0499
   48MOL   H51027864   7.694   7.351   3.232 -1.1900 -0.9272 -2.2753
   48MOL   H51127865   7.557   7.247   3.418 -0.1450 -0.5222  1.6051
   48MOL   H51227866   7.377   7.369   3.253 -0.4411 -1.4929 -1.6721
   48MOL   H51327867   7.472   7.418   3.118 -2.2466  1.3204 -0.3585
   48MOL   H51427868   7.441   7.125   2.982 -0.9920 -0.7267 -0.0799
   48MOL   H51527869   7.324   7.235   3.040 -1.2120 -0.6600  0.5444
   48MOL   H51627870   7.259   7.003   3.094  0.6325 -2.2359  1.2205
   48MOL   H51727871   7.320   7.074   3.252 -2.1759 -1.3010 -0.0382
   48MOL   H51827872   7.467   6.896   3.052  0.4428 -0.1271  0.0023
   48MOL   H51927873   7.531   6.939   3.208  0.0780  0.8598  0.1729
   48MOL   H52027874   7.552   6.692   3.226 -0.7544 -0.5948  1.9529
   48MOL   H52127875   7.320   6.642   3.086  0.0500 -1.9257 -1.1641
   48MOL   H52227876   7.296   6.563   3.306  0.2377 -0.5774  0.7982
   48MOL   H52327877   7.464   6.494   3.299  0.4352  0.5075 -0.7340
   48MOL   C52427878   7.378   6.564   3.549  0.3678  0.0291  0.1247
   48MOL   C52527879   7.411   6.645   3.668  1.2539  0.5074  0.0591
   48MOL   O52627880   7.553   6.645   3.685  0.3490  0.1933 -0.1242
   48MOL   C52727881   7.339   6.588   3.794 -0.9333  0.4901  0.1672
   48MOL   O52827882   7.203   6.622   3.777 -0.7719  0.1788 -0.2887
   48MOL   C52927883   7.122   6.582   3.880  0.2760  0.1548  0.4102
   48MOL   C53027884   6.979   6.586   3.833  0.2700 -0.1651 -1.0314
   48MOL   C53127885   6.893   6.542   3.952  0.7165  0.4433  0.4815
   48MOL   O53227886   6.915   6.408   3.996 -0.1237 -0.0077  0.0869
   48MOL   C53327887   6.841   6.368   4.109 -0.1707  0.5350 -0.0574
   48MOL   O53427888   6.703   6.372   4.095  0.0942  0.3324 -0.8316
   48MOL   C53527889   6.891   6.230   4.148  0.1384 -0.1260  0.2620
   48MOL   O53627890   6.837   6.134   4.055 -0.6782 -0.0349 -0.7069
   48MOL   H53727891   7.413   6.461   3.548 -1.2271 -0.5291 -0.9173
   48MOL   H53827892   7.271   6.577   3.530  0.2920  1.6750  1.5800
   48MOL   H53927893   7.379   6.747   3.648  0.4263 -0.1109 -1.9793
   48MOL   H54027894   7.571   6.620   3.596 -1.7207 -0.0455 -0.5117
   48MOL   H54127895   7.341   6.480   3.799  0.0455  0.5091  0.2663
   48MOL   H54227896   7.387   6.633   3.881 -2.0724 -0.7786  1.4776
   48MOL   H54327897   7.135   6.637   3.974 -0.1250  0.4789  0.2753
   48MOL   H54427898   7.151   6.485   3.920 -1.7911 -0.1954  1.1076
   48MOL   H54527899   6.961   6.533   3.740 -0.0546  0.8259 -1.5440
   48MOL   H54627900   6.952   6.690   3.813  1.3529 -0.3287 -3.5172
   48MOL   H54727901   6.920   6.603   4.038 -2.3434 -0.3713  2.1015
   48MOL   H54827902   6.785   6.556   3.948  0.5032 -1.0168  0.9370
   48MOL   H54927903   6.865   6.433   4.193  0.9300 -1.0592  0.8850
   48MOL   H55027904   6.674   6.306   4.034  3.4410 -1.2315 -0.8500
   48MOL   H55127905   7.000   6.226   4.141  0.3327  2.1835  1.3430
   48MOL   H55227906   6.860   6.214   4.251 -1.3038  0.4135 -0.0811
   48MOL   C55327907   6.844   5.997   4.099 -0.6236  1.1496 -0.3615
   48MOL   C55427908   6.766   5.915   4.006  0.5191  0.2462  0.6121
   48MOL   O55527909   6.631   5.943   4.034  0.3849 -0.3253  0.2490
   48MOL   C55627910   6.804   5.765   4.032  0.4316 -0.4515  1.2506
   48MOL   O55727911   6.714   5.691   3.947 -0.0017  0.0124 -0.3201
   48MOL   C55827912   6.761   5.555   3.950 -0.0844 -0.1717 -0.2446
   48MOL   C55927913   6.741   5.471   4.078  0.8617 -0.4692 -0.1935
   48MOL   C56027914   6.613   5.484   4.146  0.2808  0.3930  0.4843
   48MOL   O56127915   6.632   5.440   4.274  0.2120  0.2416  0.4367
   48MOL   C56227916   6.521   5.438   4.352  0.2965 -0.5915 -0.6110
   48MOL   O56327917   6.431   5.333   4.323 -0.4020 -0.2608 -0.1299
   48MOL   C56427918   6.565   5.430   4.501  0.5410  0.2253  0.5133
   48MOL   O56527919   6.581   5.290   4.532  0.3953 -0.0165  0.7562
   48MOL   H56627920   6.808   5.988   4.201 -2.8426  0.7423 -1.1590
   48MOL   H56727921   6.952   5.979   4.091 -0.8747 -1.7258  1.9380
   48MOL   H56827922   6.778   5.938   3.900 -2.6157  1.4917  0.4915
   48MOL   H56927923   6.589   5.886   3.972  0.9160 -1.3350  0.8056
   48MOL   H57027924   6.906   5.745   4.001 -0.1169  1.5181 -2.0768
   48MOL   H57127925   6.785   5.750   4.138 -0.9656 -0.2503  1.0431
   48MOL   H57227926   6.695   5.512   3.875 -0.3291 -1.5970  0.7606
   48MOL   H57327927   6.865   5.548   3.918  0.2143  1.0831  0.4107
   48MOL   H57427928   6.811   5.513   4.150 -0.0423  1.7791 -0.5934
   48MOL   H57527929   6.773   5.369   4.056  1.7072 -0.6615  1.7793
   48MOL   H57627930   6.592   5.591   4.147  0.4612  0.4291  0.4087
   48MOL   H57727931   6.527   5.438   4.096 -1.2540  2.0723  1.5150
   48MOL   H57827932   6.475   5.537   4.345  3.5121  1.0511  0.6924
   48MOL   H57927933   6.447   5.265   4.386  2.2832 -0.1832 -0.6530
   48MOL   H58027934   6.654   5.489   4.524 -0.7758  2.3290  0.3216
   48MOL   H58127935   6.484   5.473   4.559 -0.6140 -1.2290  0.0042
   48MOL   H58227936   6.644   5.255   4.471 -0.8789 -0.9599 -0.0506
   49MOL     C127937   3.027   2.753   1.961  0.2787 -0.1600 -0.0467
   49MOL     C227938   2.874   2.763   1.969  0.4637 -0.1755  0.4796
   49MOL     O327939   2.845   2.684   2.080 -0.1489 -0.1256  0.4166
   49MOL     C427940   2.810   2.903   1.978 -0.1380  0.2909 -0.2793
   49MOL     O527941   2.836   2.989   1.875  0.1445  0.5295  0.0568
   49MOL     C627942   2.767   3.112   1.875  0.4477 -0.0893  0.8164
   49MOL     C727943   2.849   3.208   1.792  0.9909 -0.6235  0.0031
   49MOL     C827944   2.790   3.346   1.741 -0.1667  0.0461  0.4370
   49MOL     O927945   2.887   3.423   1.672  0.1795 -0.5063  0.4067
   49MOL    C1027946   2.848   3.549   1.616 -0.1632 -0.3482 -0.6322
   49MOL    O1127947   2.727   3.534   1.536 -0.3340 -0.1719  0.2885
   49MOL    C1227948   2.958   3.606   1.523 -0.3785 -0.2534 -0.2434
   49MOL    O1327949   3.065   3.649   1.607 -0.1599 -0.3605 -0.1192
   49MOL    H1427950   3.063   2.785   1.863 -1.2083  0.7536 -0.3003
   49MOL    H1527951   3.067   2.653   1.976  1.2527  0.1570 -0.4570
   49MOL    H1627952   2.826   2.724   1.879 -0.2991  2.7184 -0.4116
   49MOL    H1727953   2.880   2.596   2.075  1.4631  0.5543 -0.2869
   49MOL    H1827954   2.703   2.889   1.990  0.0330 -0.7165  0.0941
   49MOL    H1927955   2.844   2.946   2.072 -2.8215  1.2326  0.3001
   49MOL    H2027956   2.772   3.154   1.976 -0.5186 -2.0428  1.7165
   49MOL    H2127957   2.664   3.092   1.847 -0.3185 -0.9301  3.9368
   49MOL    H2227958   2.872   3.156   1.698  0.3717 -0.4835 -0.2324
   49MOL    H2327959   2.946   3.224   1.838 -0.0774 -2.0959  2.8643
   49MOL    H2427960   2.700   3.332   1.681  1.6064  1.2448 -2.5725
   49MOL    H2527961   2.757   3.409   1.824 -3.3492  0.7583 -1.2911
   49MOL    H2627962   2.818   3.622   1.691 -1.6885 -0.7044 -0.8750
   49MOL    H2727963   2.700   3.620   1.510 -0.5851 -0.8532 -1.7957
   49MOL    H2827964   2.992   3.538   1.444  2.5401  0.1308  0.6068
   49MOL    H2927965   2.913   3.678   1.455 -0.9202  0.3997  0.8062
   49MOL    H3027966   3.061   2.828   2.032  0.2127  1.1134 -1.3433
   49MOL    C3127967   3.151   3.544   1.650  0.3055 -0.0812 -0.2002
   49MOL    C3227968   3.290   3.550   1.581  0.2069 -0.4312 -0.2584
   49MOL    O3327969   3.262   3.550   1.440 -0.2637 -0.2438 -0.4499
   49MOL    C3427970   3.378   3.424   1.628  0.2449  0.6438 -0.1656
   49MOL    O3527971   3.516   3.424   1.576  0.3311  0.0081 -0.0077
   49MOL    C3627972   3.606   3.527   1.618 -1.0642 -0.6755 -0.1262
   49MOL    C3727973   3.752   3.479   1.632 -0.3474  0.9445 -0.2459
   49MOL    C3827974   3.848   3.566   1.713  0.2131  0.2240 -0.3439
   49MOL    O3927975   3.824   3.567   1.861 -0.1720 -0.2831 -0.0996
   49MOL    C4027976   3.907   3.635   1.949  0.2384 -0.4411  0.6778
   49MOL    O4127977   3.881   3.774   1.967 -0.3176 -0.1234 -0.0828
   49MOL    C4227978   4.054   3.609   1.928 -0.0410  0.2382 -0.0641
   49MOL    O4327979   4.095   3.480   1.982 -0.0250 -0.2451 -0.2797
   49MOL    H4427980   3.155   3.563   1.757 -1.0103  2.2503 -0.5207
   49MOL    H4527981   3.111   3.443   1.642 -1.4063  0.4026  1.9500
   49MOL    H4627982   3.330   3.649   1.603 -0.9518 -0.4781  2.1401
   49MOL    H4727983   3.212   3.470   1.432 -0.0955 -0.2985 -0.9869
   49MOL    H4827984   3.391   3.420   1.736 -3.0682  1.1145  0.2984
   49MOL    H4927985   3.319   3.338   1.595 -2.6454  1.6905  2.0452
   49MOL    H5027986   3.584   3.569   1.717 -1.3282  2.5162 -1.4587
   49MOL    H5127987   3.599   3.611   1.548  0.8598  0.9981  1.6106
   49MOL    H5227988   3.788   3.474   1.529  0.9593  0.9349  0.2036
   49MOL    H5327989   3.747   3.384   1.685 -0.9425  1.6139  0.9200
   49MOL    H5427990   3.952   3.537   1.694  0.7329 -0.3787  3.1306
   49MOL    H5527991   3.834   3.670   1.682  0.1950 -0.1749 -1.6857
   49MOL    H5627992   3.881   3.595   2.047  2.9333  0.1856  1.6691
   49MOL    H5727993   3.916   3.793   2.053 -2.0063  2.5610  0.0628
   49MOL    H5827994   4.096   3.630   1.830 -0.9326 -0.6369 -0.6369
   49MOL    H5927995   4.116   3.682   1.981  1.4804 -1.0972  0.0441
   49MOL    C6027996   4.056   3.359   1.919  0.0824 -0.7259 -0.6554
   49MOL    C6127997   4.113   3.245   2.014 -0.0583  0.3378 -0.1271
   49MOL    O6227998   4.245   3.212   1.975 -0.5014 -0.5193  0.3542
   49MOL    C6327999   4.025   3.117   2.001  0.0002  0.1350  0.0172
   49MOL    O6428000   3.989   3.104   1.868  0.1259 -0.3395  0.0980
   49MOL    C6528001   3.860   3.050   1.845  0.0921  0.1674  0.3193
   49MOL    C6628002   3.827   3.035   1.696  0.4063 -1.4746 -0.1706
   49MOL    C6728003   3.679   2.989   1.677  0.2198 -0.9127  0.7872
   49MOL    O6828004   3.634   2.997   1.541  0.1727  0.4069  0.2193
   49MOL    C6928005   3.565   3.116   1.509  0.0990  0.0926 -1.0984
   49MOL    O7028006   3.652   3.202   1.439 -0.4920 -0.0882 -0.0171
   49MOL    C7128007   3.443   3.091   1.411  0.3758 -0.3538  0.1659
   49MOL    O7228008   3.331   3.048   1.486 -0.2109  0.0135  0.2431
   49MOL    H7328009   4.094   3.368   1.817  3.0648 -2.2089  0.2826
   49MOL    H7428010   3.949   3.338   1.914  0.0579 -0.5640 -0.8650
   49MOL    H7528011   4.103   3.273   2.119 -0.2059  0.5762 -0.2030
   49MOL    H7628012   4.240   3.182   1.886  0.3774 -1.7418  0.7000
   49MOL    H7728013   4.076   3.024   2.027  0.9411  0.5150 -0.4066
   49MOL    H7828014   3.937   3.127   2.064 -0.2820  0.7081 -0.4631
   49MOL    H7928015   3.794   3.120   1.895  0.0668  0.8420 -0.6379
   49MOL    H8028016   3.865   2.949   1.887  0.9478 -1.1471 -2.7745
   49MOL    H8128017   3.892   2.960   1.652 -0.3443 -2.0106 -0.3579
   49MOL    H8228018   3.844   3.137   1.660 -1.0863 -0.8984  0.7012
   49MOL    H8328019   3.615   3.049   1.743  0.7126 -1.7997  2.0938
   49MOL    H8428020   3.672   2.885   1.711 -0.1841 -1.3573 -0.6056
   49MOL    H8528021   3.527   3.171   1.595 -1.6823 -0.7504 -1.3248
   49MOL    H8628022   3.638   3.287   1.479 -2.5893 -0.8973  1.0373
   49MOL    H8728023   3.418   3.184   1.360 -1.8618 -1.6812 -1.2389
   49MOL    H8828024   3.474   3.018   1.337 -2.0238 -1.9790  0.7151
   49MOL    C8928025   3.215   3.040   1.409 -0.3343 -0.8038  0.5738
   49MOL    C9028026   3.119   3.153   1.458 -0.3171  0.3770  0.0620
   49MOL    O9128027   3.150   3.279   1.409 -0.4504 -0.6412  0.5223
   49MOL    C9228028   2.974   3.118   1.425  0.7044 -0.2836 -0.0749
   49MOL    O9328029   2.963   3.069   1.296 -0.0476  0.2530  0.3399
   49MOL    C9428030   2.836   3.002   1.277 -0.8816  0.0690  0.3323
   49MOL    C9528031   2.859   2.856   1.323 -0.2163  0.3544  0.0828
   49MOL    C9628032   2.747   2.761   1.277  0.9052  0.3100  0.2097
   49MOL    O9728033   2.622   2.808   1.317  0.3955  0.0303 -0.3547
   49MOL    C9828034   2.521   2.721   1.279  0.5403  0.1517 -0.3402
   49MOL    O9928035   2.529   2.593   1.334  0.0972  0.0035  0.2264
   49MOL   C10028036   2.390   2.776   1.333 -0.0957  0.8113  0.1481
   49MOL   O10128037   2.354   2.902   1.277 -0.6990 -0.0758 -0.4190
   49MOL   H10228038   3.167   2.943   1.411 -1.2479 -0.3708  0.1013
   49MOL   H10328039   3.231   3.058   1.303 -2.6772  2.2241  0.6505
   49MOL   H10428040   3.126   3.154   1.567  2.0732 -0.2660 -0.0507
   49MOL   H10528041   3.128   3.270   1.318 -0.3509  1.7404  0.2330
   49MOL   H10628042   2.943   3.036   1.490  0.4565 -1.2167 -1.3647
   49MOL   H10728043   2.900   3.197   1.438 -0.6166 -1.8021  1.8733
   49MOL   H10828044   2.822   2.996   1.169  0.6668  4.7953 -0.2450
   49MOL   H10928045   2.749   3.048   1.324  0.0171 -0.7470  2.9171
   49MOL   H11028046   2.859   2.852   1.432 -1.7849 -1.5977  0.0351
   49MOL   H11128047   2.956   2.819   1.291 -0.4883  0.3051 -0.6954
   49MOL   H11228048   2.742   2.759   1.168  1.1509  0.7195  0.1900
   49MOL   H11328049   2.775   2.665   1.321  0.2796  0.6064  1.2773
   49MOL   H11428050   2.517   2.718   1.170  3.9379  1.8042 -0.5745
   49MOL   H11528051   2.587   2.547   1.276  0.0610  1.0803 -0.6831
   49MOL   H11628052   2.321   2.694   1.312  1.7911 -0.9342  0.4999
   49MOL   H11728053   2.401   2.786   1.441 -1.3673 -1.1480  0.4807
   49MOL   C11828054   2.423   3.016   1.317 -0.6301  0.2337  0.0573
   49MOL   C11928055   2.328   3.135   1.289 -0.7325 -0.0567  0.7213
   49MOL   O12028056   2.307   3.144   1.148 -0.1161 -0.0748 -0.1685
   49MOL   C12128057   2.362   3.272   1.346  0.1668  1.1075 -0.1322
   49MOL   O12228058   2.358   3.240   1.483  0.0103  0.2267  0.5743
   49MOL   C12328059   2.379   3.343   1.574  0.1411 -0.2420 -0.0556
   49MOL   C12428060   2.383   3.293   1.717 -0.6599 -0.0263  0.4964
   49MOL   C12528061   2.452   3.411   1.796  0.1459 -0.0243  0.2953
   49MOL   O12628062   2.509   3.363   1.926  0.0322  0.1617  0.0220
   49MOL   C12728063   2.520   3.471   2.015 -0.1571  0.0573 -0.4007
   49MOL   O12828064   2.595   3.580   1.980 -0.1842 -0.5034  0.5864
   49MOL   C12928065   2.573   3.410   2.142  0.4511  0.1020  0.0800
   49MOL   O13028066   2.717   3.389   2.119  0.5434 -0.5208 -0.3248
   49MOL   H13128067   2.448   3.009   1.423 -1.0562 -1.7955  0.0564
   49MOL   H13228068   2.514   3.026   1.259  0.5324 -3.0920  1.1788
   49MOL   H13328069   2.233   3.116   1.340  0.2558  0.4903  2.8170
   49MOL   H13428070   2.259   3.065   1.132  0.0413  0.3385 -2.8666
   49MOL   H13528071   2.469   3.291   1.333  0.1959  0.8125 -0.3418
   49MOL   H13628072   2.311   3.366   1.324  1.3051  1.6458 -0.5538
   49MOL   H13728073   2.297   3.415   1.570  0.7588  0.4052 -1.8914
   49MOL   H13828074   2.474   3.390   1.549  0.1288  1.0170  2.1431
   49MOL   H13928075   2.435   3.198   1.718 -2.1381 -0.8609 -0.3418
   49MOL   H14028076   2.278   3.272   1.738 -1.2771 -0.1559 -2.5027
   49MOL   H14128077   2.538   3.451   1.741  0.7425  0.0070  1.2434
   49MOL   H14228078   2.382   3.494   1.799 -1.1707 -1.1380  0.9614
   49MOL   H14328079   2.415   3.499   2.027 -0.3932 -1.6850  1.9878
   49MOL   H14428080   2.682   3.558   2.007 -0.0351 -0.1168  0.4261
   49MOL   H14528081   2.560   3.489   2.215 -0.8807  0.3426 -0.3986
   49MOL   H14628082   2.513   3.324   2.173 -0.3009  1.6534  3.1426
   49MOL   C14728083   2.781   3.332   2.229 -0.6917 -0.2787  0.6717
   49MOL   C14828084   2.918   3.400   2.244  0.9608  0.1047 -0.5164
   49MOL   O14928085   2.893   3.525   2.298 -0.0140  0.4864  0.1019
   49MOL   C15028086   3.013   3.401   2.128 -0.5290 -0.5457 -1.0093
   49MOL   O15128087   3.059   3.268   2.125  0.8802  0.5065 -0.4986
   49MOL   C15228088   3.165   3.253   2.027 -0.5128 -0.8685  0.3507
   49MOL   C15328089   3.180   3.102   2.007  0.5049  0.5235  0.4105
   49MOL   C15428090   3.275   3.067   1.888  0.0258 -0.7603 -0.4444
   49MOL   O15528091   3.308   2.925   1.869 -0.2168  0.3631 -0.4579
   49MOL   C15628092   3.395   2.877   1.968  0.1452  0.2710  0.1780
   49MOL   O15728093   3.522   2.939   1.951 -0.5439  0.2820 -0.0160
   49MOL   C15828094   3.404   2.723   1.948 -0.0132 -0.3435  0.2278
   49MOL   O15928095   3.328   2.659   2.048  0.1128 -0.5965 -0.1192
   49MOL   H16028096   2.804   3.228   2.206  1.3379  0.6322 -1.5829
   49MOL   H16128097   2.732   3.327   2.326  2.9811 -2.3857  2.5042
   49MOL   H16228098   2.962   3.351   2.331  1.4128 -0.5099 -1.0984
   49MOL   H16328099   2.833   3.563   2.236 -0.8116 -2.1579 -0.7941
   49MOL   H16428100   2.968   3.417   2.031 -0.7035  0.7243 -0.7266
   49MOL   H16528101   3.094   3.472   2.140 -1.0741  0.2538 -2.0914
   49MOL   H16628102   3.258   3.295   2.065  0.4036 -0.9945 -1.6887
   49MOL   H16728103   3.151   3.291   1.925  0.6500  0.3091  0.6210
   49MOL   H16828104   3.081   3.066   1.979  1.6735 -2.1968 -0.4124
   49MOL   H16928105   3.205   3.048   2.099  0.9262  0.5342  0.3044
   49MOL   H17028106   3.230   3.108   1.798  4.4473  0.6278 -2.1676
   49MOL   H17128107   3.368   3.123   1.901 -0.0174 -0.4172 -1.5461
   49MOL   H17228108   3.367   2.907   2.069  0.6189  0.3717  0.2778
   49MOL   H17328109   3.560   2.944   2.037 -2.6822  0.1137  0.9767
   49MOL   H17428110   3.389   2.688   1.846  1.6651 -0.3097 -0.0489
   49MOL   H17528111   3.503   2.693   1.983  0.5192  1.5998  0.4484
   49MOL   C17628112   3.325   2.517   2.027 -0.3897 -0.2646  0.0889
   49MOL   C17728113   3.254   2.467   2.157 -0.2704  0.2088  0.0674
   49MOL   O17828114   3.344   2.484   2.264  0.4625 -0.1968  0.3761
   49MOL   C17928115   3.242   2.316   2.157 -0.5085  0.2194 -0.4622
   49MOL   O18028116   3.160   2.284   2.270  0.4329 -0.3102 -0.5783
   49MOL   C18128117   3.129   2.150   2.262 -0.7791 -0.2698  0.0092
   49MOL   C18228118   3.043   2.109   2.378  0.3487  0.2899  0.5718
   49MOL   C18328119   3.005   1.962   2.376 -0.4841 -0.4858  0.2859
   49MOL   O18428120   3.117   1.882   2.373  0.1563  0.4849  0.5989
   49MOL   C18528121   3.084   1.749   2.385  0.2587  0.3243  0.4515
   49MOL   O18628122   3.031   1.722   2.512 -0.1963  0.1406  0.3647
   49MOL   C18728123   3.207   1.665   2.379  0.2687  0.0440 -0.2376
   49MOL   O18828124   3.163   1.522   2.383 -0.1394  0.3624  0.7828
   49MOL   H18928125   3.414   2.463   1.995 -0.0135  0.5980 -0.3448
   49MOL   H19028126   3.252   2.503   1.946 -1.2313 -0.9162  0.9547
   49MOL   H19128127   3.157   2.509   2.183 -0.0388  1.7110 -1.3645
   49MOL   H19228128   3.291   2.465   2.340 -1.2021  2.8958  0.0752
   49MOL   H19328129   3.184   2.295   2.067  0.5468  0.2363 -1.1475
   49MOL   H19428130   3.343   2.275   2.154  0.2078  1.6920  2.0400
   49MOL   H19528131   3.214   2.082   2.255  0.0988  0.8937 -0.6501
   49MOL   H19628132   3.074   2.130   2.170  0.4535  1.9822 -1.2580
   49MOL   H19728133   2.955   2.173   2.373 -0.6286 -0.9950  1.0097
   49MOL   H19828134   3.091   2.135   2.472  1.3699  0.0132  0.1309
   49MOL   H19928135   2.944   1.927   2.459 -1.4811 -1.0104 -0.6616
   49MOL   H20028136   2.940   1.955   2.289  0.4116  2.3189 -0.6742
   49MOL   H20128137   3.003   1.719   2.317  1.5944 -1.6402 -0.3224
   49MOL   H20228138   2.951   1.673   2.505 -0.3449  0.4714 -0.2651
   49MOL   H20328139   3.260   1.687   2.286 -3.8002  1.1973 -2.3854
   49MOL   H20428140   3.262   1.692   2.469 -1.3364  2.3573  0.1078
   49MOL   C20528141   3.212   1.443   2.276  0.2149  0.1154 -0.2678
   49MOL   C20628142   3.365   1.427   2.293 -0.1133  0.8025 -0.2324
   49MOL   O20728143   3.376   1.337   2.400 -0.3469 -0.4633 -0.5273
   49MOL   C20828144   3.424   1.349   2.169  0.4430 -0.0482 -0.3544
   49MOL   O20928145   3.565   1.372   2.143  0.3786 -0.1697  0.0796
   49MOL   C21028146   3.606   1.287   2.040  0.2835  0.1836 -0.5510
   49MOL   C21128147   3.754   1.314   2.018 -0.6192 -0.2715 -0.9315
   49MOL   C21228148   3.829   1.209   1.943 -1.3839 -0.9519  0.1264
   49MOL   O21328149   3.948   1.283   1.910 -0.2087 -0.1024 -0.0861
   49MOL   C21428150   4.057   1.209   1.864  0.4422  0.1954  0.8124
   49MOL   O21528151   4.183   1.268   1.878 -0.0243 -0.2841 -0.6647
   49MOL   C21628152   4.032   1.170   1.715 -0.2130 -0.0154  0.4474
   49MOL   O21728153   3.983   1.275   1.641 -0.6500  0.2326 -0.8001
   49MOL   H21828154   3.188   1.499   2.185 -2.5875  0.1147  0.4264
   49MOL   H21928155   3.164   1.346   2.269  0.4791  0.0639 -1.5153
   49MOL   H22028156   3.417   1.520   2.318 -1.4859  0.9958  2.1275
   49MOL   H22128157   3.322   1.375   2.468 -1.1685 -0.0280 -1.4154
   49MOL   H22228158   3.412   1.246   2.200 -4.5333  0.2625 -0.7583
   49MOL   H22328159   3.370   1.352   2.074 -0.9058 -0.1884  0.4040
   49MOL   H22428160   3.554   1.295   1.945 -2.2423 -1.7468  0.5941
   49MOL   H22528161   3.590   1.182   2.063  0.6360  0.2299 -0.0687
   49MOL   H22628162   3.810   1.332   2.110  1.1599 -0.9730 -1.8514
   49MOL   H22728163   3.766   1.410   1.968  1.2591 -0.0443 -0.0843
   49MOL   H22828164   3.851   1.118   1.998 -0.1938 -1.3762 -1.0040
   49MOL   H22928165   3.779   1.175   1.852  0.3538  0.7542 -1.5255
   49MOL   H23028166   4.065   1.116   1.920  1.5779 -0.3162 -0.1819
   49MOL   H23128167   4.197   1.339   1.817 -2.6989  0.1355 -0.8494
   49MOL   H23228168   4.116   1.121   1.666 -1.8403 -0.3476 -2.0308
   49MOL   H23328169   3.950   1.099   1.714 -0.5196  0.3496 -1.1865
   49MOL   C23428170   3.958   1.230   1.510 -0.0920  0.7844  0.6731
   49MOL   C23528171   3.879   1.343   1.439 -0.2785 -0.2510  0.0667
   49MOL   O23628172   3.759   1.365   1.510  0.2942 -0.7041 -0.4916
   49MOL   C23728173   3.845   1.308   1.292 -0.0070  0.6104 -0.5122
   49MOL   O23828174   3.960   1.265   1.220 -0.5952 -0.5597 -0.7424
   49MOL   C23928175   3.944   1.257   1.077 -0.0239  0.6660  0.1739
   49MOL   C24028176   4.076   1.230   1.005  0.0627  0.1701 -0.1287
   49MOL   C24128177   4.055   1.252   0.852 -0.1485  0.5187  0.3950
   49MOL   O24228178   4.173   1.210   0.780 -0.0397 -0.0912  0.3852
   49MOL   C24328179   4.276   1.308   0.752  0.0399  0.5723 -0.5305
   49MOL   O24428180   4.250   1.364   0.627  0.0270 -0.3969 -0.8902
   49MOL   C24528181   4.413   1.234   0.739 -0.4314  0.4128 -0.1753
   49MOL   O24628182   4.463   1.209   0.874 -0.2933  0.3632 -0.3058
   49MOL   H24728183   4.052   1.209   1.458  0.0403  3.3680 -0.1853
   49MOL   H24828184   3.897   1.139   1.509 -3.5336  3.0279  1.0624
   49MOL   H24928185   3.943   1.431   1.445  1.4824 -1.4793 -0.3938
   49MOL   H25028186   3.766   1.325   1.596 -0.9563  3.6640  1.7920
   49MOL   H25128187   3.767   1.233   1.277 -0.3784  0.9112 -0.0919
   49MOL   H25228188   3.798   1.392   1.242 -0.6807  0.2518 -0.4944
   49MOL   H25328189   3.900   1.353   1.050 -0.2333  0.4183 -0.3667
   49MOL   H25428190   3.878   1.174   1.050  1.4513 -0.2127 -0.8431
   49MOL   H25528191   4.118   1.132   1.025  2.0491  0.7799 -1.1723
   49MOL   H25628192   4.145   1.309   1.034 -0.1199  0.5937 -0.8286
   49MOL   H25728193   3.978   1.184   0.815  2.0034 -1.9536  0.2817
   49MOL   H25828194   4.024   1.354   0.828  3.0090  1.1784 -1.1138
   49MOL   H25928195   4.270   1.380   0.834 -1.2798 -1.6059  1.3500
   49MOL   H26028196   4.193   1.438   0.642  0.2391 -0.5924  0.9147
   49MOL   H26128197   4.414   1.143   0.679 -1.4842 -0.3954  0.9979
   49MOL   H26228198   4.483   1.302   0.691  2.1421 -1.5472  0.6431
   49MOL   C26328199   4.589   1.136   0.868  0.1526 -0.9552  0.5296
   49MOL   C26428200   4.639   1.088   1.006 -0.3264  0.3463  0.8610
   49MOL   O26528201   4.686   1.208   1.069  0.1604 -0.2384 -0.0586
   49MOL   C26628202   4.525   1.021   1.084 -0.0026  0.0447 -0.3405
   49MOL   O26728203   4.494   0.893   1.029 -0.3519  0.1393 -0.3317
   49MOL   C26828204   4.353   0.865   1.011 -0.1545 -0.0148 -0.1117
   49MOL   C26928205   4.322   0.725   0.963  0.0756  0.4973 -0.0290
   49MOL   C27028206   4.367   0.708   0.820 -0.4615  0.1887 -0.4729
   49MOL   O27128207   4.401   0.565   0.804 -0.5790  0.1320 -0.6822
   49MOL   C27228208   4.452   0.532   0.682  0.5477  0.0613  0.4098
   49MOL   O27328209   4.572   0.600   0.653 -0.3494 -0.2777 -0.1577
   49MOL   C27428210   4.472   0.379   0.685  0.3124 -0.3034 -0.3351
   49MOL   O27528211   4.407   0.314   0.573  0.0664  0.9298  0.3495
   49MOL   H27628212   4.665   1.205   0.833 -0.6497 -1.3434 -2.0667
   49MOL   H27728213   4.573   1.051   0.801  0.1422 -0.8042  0.3421
   49MOL   H27828214   4.730   1.029   0.990 -2.5943 -2.8917 -0.6723
   49MOL   H27928215   4.623   1.279   1.064  0.5627  0.0168 -2.4048
   49MOL   H28028216   4.571   0.997   1.180  0.5597 -0.5855 -0.7639
   49MOL   H28128217   4.441   1.090   1.092  0.0130  0.2738 -2.0075
   49MOL   H28228218   4.308   0.943   0.949 -0.2175 -0.0074 -0.0563
   49MOL   H28328219   4.299   0.890   1.102 -4.2514 -0.7681 -2.2259
   49MOL   H28428220   4.216   0.701   0.972 -0.0342  0.4987 -1.2616
   49MOL   H28528221   4.372   0.661   1.036 -1.1917 -0.5517 -0.0711
   49MOL   H28628222   4.305   0.743   0.737  0.6690  1.6177 -0.7451
   49MOL   H28728223   4.453   0.774   0.808 -0.2995  0.1124  0.2536
   49MOL   H28828224   4.376   0.562   0.610 -0.9175 -0.7553  1.5868
   49MOL   H28928225   4.589   0.591   0.561 -0.1807  0.6764 -0.2284
   49MOL   H29028226   4.579   0.365   0.670  0.2138 -0.6618 -0.7061
   49MOL   H29128227   4.426   0.344   0.777 -0.5147 -1.1223 -1.0472
   49MOL   C29228228   4.267   0.282   0.587 -0.9765 -0.2137 -0.3949
   49MOL   C29328229   4.219   0.214   0.465 -0.1259  0.9120 -0.1926
   49MOL   O29428230   4.280   0.083   0.482 -0.2239 -0.0239 -0.1102
   49MOL   C29528231   4.070   0.180   0.474 -0.6756  0.0630 -0.1961
   49MOL   O29628232   4.040   0.094   0.368  0.4640 -0.2625  1.2042
   49MOL   C29728233   4.013   0.163   0.247 -0.2322  0.9478  0.3658
   49MOL   C29828234   4.025   0.063   0.132 -1.2764 -0.1411  0.3815
   49MOL   C29928235   3.991   0.121   7.687 -0.4950  0.2510  0.3637
   49MOL   O30028236   4.087   0.224   7.668  0.8160  0.4464  0.4129
   49MOL   C30128237   4.066   0.302   7.559 -0.7865  0.2338  0.4111
   49MOL   O30228238   3.964   0.391   7.575 -0.1214 -0.5321  0.1566
   49MOL   C30328239   4.200   0.382   7.524 -0.8375 -0.2530 -0.4217
   49MOL   O30428240   4.247   0.435   7.646  0.0626 -0.2799 -0.0765
   49MOL   H30528241   4.258   0.222   0.677 -0.3156 -1.4268 -1.1280
   49MOL   H30628242   4.216   0.378   0.597  0.3998  0.6799 -1.6912
   49MOL   H30728243   4.240   0.272   0.375 -2.2999  2.1952  0.0826
   49MOL   H30828244   4.361   0.099   0.527  0.7835  0.2716 -1.9893
   49MOL   H30928245   4.032   0.146   0.571  0.5040  2.4405  1.1663
   49MOL   H31028246   4.010   0.272   0.471 -0.3923  0.2494 -0.1284
   49MOL   H31128247   4.091   0.238   0.232  0.9229 -0.6366 -1.8133
   49MOL   H31228248   3.915   0.209   0.248 -0.6697  0.0155  2.0212
   49MOL   H31328249   3.958   7.673   0.149 -0.9260 -0.1885  1.5278
   49MOL   H31428250   4.127   0.024   0.139 -0.4243  1.7736 -0.8642
   49MOL   H31528251   3.988   0.053   7.602 -0.0306 -1.2199  1.5023
   49MOL   H31628252   3.897   0.175   0.002  0.0141  1.5043 -1.4176
   49MOL   H31728253   4.039   0.248   7.468 -0.6288  1.3276 -0.2855
   49MOL   H31828254   4.004   0.449   7.638  0.1799 -3.2467  2.5956
   49MOL   H31928255   4.172   0.451   7.444 -1.4425  0.6636  0.5626
   49MOL   H32028256   4.269   0.304   7.493  0.5600  0.4059  0.9213
   49MOL   C32128257   4.365   0.507   7.626  0.6770 -0.7053  0.6387
   49MOL   C32228258   4.389   0.569   0.073 -0.3328 -0.0054  0.1175
   49MOL   O32328259   4.443   0.472   0.161 -0.1287 -0.1579  0.1473
   49MOL   C32428260   4.490   0.688   0.073  0.6675  0.1581  0.5381
   49MOL   O32528261   4.462   0.789   7.676  0.7359 -0.1751  0.0622
   49MOL   C32628262   4.342   0.861   0.016  0.3043  0.8984  0.3910
   49MOL   C32728263   4.314   0.972   7.608  0.3549 -0.3726 -0.4584
   49MOL   C32828264   4.194   1.055   7.653  0.2324  0.4763  0.3190
   49MOL   O32928265   4.063   0.994   7.646 -0.1865  0.2129 -0.7383
   49MOL   C33028266   3.968   1.061   0.026 -0.3745 -0.2165  0.0098
   49MOL   O33128267   3.840   1.064   7.654 -0.0264  0.2758 -0.3815
   49MOL   C33228268   3.963   0.983   0.157  0.1460  0.8826  0.4608
   49MOL   O33328269   3.948   0.839   0.129 -0.2045  0.0502  0.0625
   49MOL   H33428270   4.361   0.569   7.537 -1.0245 -0.6018  0.7729
   49MOL   H33528271   4.446   0.438   7.602  2.0663  1.7954 -2.1570
   49MOL   H33628272   4.289   0.597   0.107 -0.1730  1.4303 -0.5455
   49MOL   H33728273   4.384   0.399   0.147 -0.5917  0.7700 -3.2233
   49MOL   H33828274   4.582   0.647   0.032  0.0998 -0.1810 -0.4248
   49MOL   H33928275   4.513   0.731   0.171  0.3574 -0.7278  1.0110
   49MOL   H34028276   4.358   0.892   0.119  0.4940 -1.5939  1.1481
   49MOL   H34128277   4.254   0.797   0.028  0.3611  0.9375  1.0155
   49MOL   H34228278   4.404   1.032   7.591  2.0538 -3.2302 -1.8643
   49MOL   H34328279   4.294   0.933   7.508  0.8800  0.3330 -0.8505
   49MOL   H34428280   4.214   1.096   0.057 -0.5813  0.3066  0.5644
   49MOL   H34528281   4.187   1.142   7.588 -0.1599 -0.2604 -0.6419
   49MOL   H34628282   4.001   1.162   0.049 -1.2545  0.6262 -2.3161
   49MOL   H34728283   3.824   0.974   7.630  0.4531  0.6184 -2.0602
   49MOL   H34828284   4.045   0.999   0.226 -0.4141  2.1345  0.8524
   49MOL   H34928285   3.879   1.031   0.207  0.4397  0.7678  1.0682
   49MOL   C35028286   3.942   0.763   0.251  1.0674  0.4955  0.4129
   49MOL   C35128287   3.894   0.619   0.214  0.0309 -0.3450  0.4298
   49MOL   O35228288   3.990   0.572   0.115 -0.3114  0.5122 -0.2300
   49MOL   C35328289   3.898   0.512   0.328  0.3420  0.1343  0.1181
   49MOL   O35428290   3.806   0.551   0.426 -0.5766 -0.6512 -0.2130
   49MOL   C35528291   3.808   0.480   0.552  0.2233 -0.0882  0.1044
   49MOL   C35628292   3.918   0.538   0.633  0.0136  0.6673 -0.9332
   49MOL   C35728293   3.915   0.486   0.778  0.2889  0.2373 -0.8217
   49MOL   O35828294   3.953   0.351   0.794 -0.1840  1.0783  0.2888
   49MOL   C35928295   3.980   0.319   0.932 -0.2625  0.1543 -0.8045
   49MOL   O36028296   3.864   0.311   1.010  0.0570  0.3660 -0.2159
   49MOL   C36128297   4.054   0.188   0.936 -0.1722  0.0893  0.0770
   49MOL   O36228298   3.969   0.084   0.906 -0.2832 -0.1322 -0.0176
   49MOL   H36328299   3.885   0.803   0.335 -0.1880 -0.7646  0.1930
   49MOL   H36428300   4.046   0.756   0.281  1.3851 -0.4024 -0.8544
   49MOL   H36528301   3.803   0.615   0.155 -0.7907  1.6685  1.5128
   49MOL   H36628302   4.023   0.640   0.058 -1.6089  1.4418  0.0978
   49MOL   H36728303   3.862   0.416   0.292 -3.1339  1.7968 -1.1400
   49MOL   H36828304   3.999   0.500   0.368 -0.2134 -1.2873  1.1140
   49MOL   H36928305   3.814   0.372   0.542 -1.1529 -0.0256 -1.8756
   49MOL   H37028306   3.716   0.501   0.607  1.3307  2.9674  0.8679
   49MOL   H37128307   3.899   0.645   0.646 -2.1595  0.0350  1.4559
   49MOL   H37228308   4.016   0.522   0.587 -0.7506 -0.7010 -2.1111
   49MOL   H37328309   3.975   0.550   0.842 -1.4909  0.7142  0.4188
   49MOL   H37428310   3.816   0.505   0.820  0.8366  2.8619 -0.6014
   49MOL   H37528311   4.036   0.403   0.973 -3.3255  0.1907  3.6648
   49MOL   H37628312   3.841   0.220   1.018  2.2471 -0.1960 -0.1244
   49MOL   H37728313   4.140   0.196   0.870  1.0618  0.2588  1.6644
   49MOL   H37828314   4.101   0.182   1.034  0.1661  0.5057 -0.0581
   49MOL   C37928315   4.034   7.652   0.884  0.0569  0.0016 -0.8586
   49MOL   C38028316   3.930   7.549   0.834 -0.2815 -0.2826 -0.2547
   49MOL   O38128317   3.859   7.491   0.943 -0.2754  0.0205  0.0683
   49MOL   C38228318   3.818   7.612   0.747 -0.6260  0.3662  0.5146
   49MOL   O38328319   3.771   7.518   0.649 -0.1765 -0.1327  0.9283
   49MOL   C38428320   3.767   7.563   0.515  1.1611  0.3173  0.0676
   49MOL   C38528321   3.708   7.448   0.431 -0.2759 -0.3248 -0.4929
   49MOL   C38628322   3.724   7.474   0.281 -0.2381  0.4436  0.0094
   49MOL   O38728323   3.640   7.579   0.251  0.4688  0.1973 -0.5295
   49MOL   C38828324   3.630   7.602   0.113 -0.0646 -0.3388  0.3193
   49MOL   O38928325   3.545   7.507   0.054 -0.0983 -0.1804  0.3557
   49MOL   C39028326   3.572   0.051   0.093 -0.1598  0.2828 -0.3315
   49MOL   O39128327   3.606   0.083   7.655 -0.5230 -0.6218  0.1517
   49MOL   H39228328   4.090   7.613   0.969 -0.9047  1.5792  0.5301
   49MOL   H39328329   4.103   7.668   0.801 -0.2088  1.7451 -0.7564
   49MOL   H39428330   3.986   7.476   0.776  1.4532  2.1578 -1.7073
   49MOL   H39528331   3.826   7.408   0.914 -0.0641  0.0551 -0.2758
   49MOL   H39628332   3.731   7.652   0.800  0.5558 -0.0681  2.7982
   49MOL   H39728333   3.856   0.007   0.697 -0.3253  0.1506  0.3600
   49MOL   H39828334   3.862   7.600   0.475  0.5620 -0.4022 -2.0717
   49MOL   H39928335   3.696   7.645   0.506 -0.4233 -0.9957  0.3306
   49MOL   H40028336   3.603   7.438   0.459  0.3649  0.1889  2.2910
   49MOL   H40128337   3.768   7.360   0.452  0.3752 -0.3166 -2.2673
   49MOL   H40228338   3.824   7.492   0.240 -1.3628 -1.2317 -3.6730
   49MOL   H40328339   3.697   7.380   0.232  1.0079 -0.3844  0.8736
   49MOL   H40428340   3.725   7.590   0.061  0.4103 -1.4673  1.4216
   49MOL   H40528341   3.502   7.542   7.672  2.7358  0.4213 -1.0439
   49MOL   H40628342   3.468   0.057   0.125 -0.9164 -0.8005 -2.4722
   49MOL   H40728343   3.625   0.120   0.159 -0.6858 -0.3799  0.8131
   49MOL   C40828344   3.592   0.220   7.614  0.3594  0.4359  0.2720
   49MOL   C40928345   3.618   0.215   7.463  0.4303 -0.2545 -0.4327
   49MOL   O41028346   3.760   0.207   7.438  0.2108 -0.6571 -0.7225
   49MOL   C41128347   3.563   0.333   7.389 -0.1633 -0.3679  0.3505
   49MOL   O41228348   3.428   0.343   7.419 -0.5020 -0.2978  0.0706
   49MOL   C41328349   3.364   0.465   7.381 -0.2522  0.0454 -0.7099
   49MOL   C41428350   3.387   0.585   7.481  0.6310 -0.9744 -0.2810
   49MOL   C41528351   3.317   0.718   7.439 -0.5621 -0.8200  0.6879
   49MOL   O41628352   3.304   0.801   7.552 -0.0768 -0.1058 -0.1696
   49MOL   C41728353   3.230   0.914   7.540  0.8902 -0.2100  0.4665
   49MOL   O41828354   3.099   0.896   7.495  0.7722 -0.4145 -0.0424
   49MOL   C41928355   3.310   1.018   7.451  0.6743 -0.2193  0.3622
   49MOL   O42028356   3.267   1.146   7.489 -0.2640  0.2456 -0.0296
   49MOL   H42128357   3.663   0.282   7.669  1.9550 -1.1196  0.0071
   49MOL   H42228358   3.491   0.252   7.640 -0.3352 -1.2270 -0.2942
   49MOL   H42328359   3.574   0.121   7.431  0.4242 -0.2913 -0.3152
   49MOL   H42428360   3.805   0.267   7.495  0.3228 -1.6511  0.2725
   49MOL   H42528361   3.619   0.425   7.408 -0.6682 -0.1978  1.0290
   49MOL   H42628362   3.574   0.306   7.284 -0.0986  1.2885 -0.0791
   49MOL   H42728363   3.390   0.487   7.277 -0.1100  0.9575 -0.4894
   49MOL   H42828364   3.257   0.444   7.380 -0.2054 -0.2014 -0.4740
   49MOL   H42928365   3.492   0.607   7.501 -0.3023  1.5650  2.1834
   49MOL   H43028366   3.352   0.558   7.581 -2.2198  0.7671 -0.7552
   49MOL   H43128367   3.377   0.769   7.363 -0.9821  1.4287  1.8125
   49MOL   H43228368   3.226   0.703   7.382 -0.1004 -1.3029  0.0767
   49MOL   H43328369   3.221   0.958   7.639  0.9229  0.2264  0.2763
   49MOL   H43428370   3.041   0.944   7.553 -0.2024 -1.8034  0.1713
   49MOL   H43528371   3.418   1.021   7.466  0.6209  1.6121  0.5952
   49MOL   H43628372   3.290   0.995   7.347  1.6942  2.0623 -0.3667
   49MOL   C43728373   3.305   1.258   7.410  0.1457  0.2876  0.4039
   49MOL   C43828374   3.220   1.381   7.428 -0.2444 -0.4905 -0.5340
   49MOL   O43928375   3.233   1.432   7.564 -0.7505 -0.1234  0.0460
   49MOL   C44028376   3.066   1.370   7.401 -0.7850 -0.4320  0.1413
   49MOL   O44128377   3.017   1.489   7.343 -0.3416 -0.7819  0.4777
   49MOL   C44228378   2.878   1.483   7.313  0.0428  0.1067 -0.1236
   49MOL   C44328379   2.843   1.569   7.187  0.8867 -0.0936  0.3612
   49MOL   C44428380   2.703   1.588   7.148 -0.0539 -0.1065  0.6059
   49MOL   O44528381   2.666   1.684   7.252 -0.1554 -0.3666  0.2460
   49MOL   C44628382   2.527   1.694   7.276  0.1541 -0.7221  0.1877
   49MOL   O44728383   2.464   1.569   7.297 -0.6287  0.3673 -0.0826
   49MOL   C44828384   2.458   1.769   7.158  0.2248 -0.1144  0.1925
   49MOL   O44928385   2.537   1.870   7.104 -0.1455 -0.5443 -0.3983
   49MOL   H45028386   3.408   1.286   7.429  0.2131  0.1728  0.2090
   49MOL   H45128387   3.289   1.224   7.308  2.0207  1.4615 -0.2991
   49MOL   H45228388   3.261   1.458   7.362 -1.2116 -0.2677 -0.8823
   49MOL   H45328389   3.202   1.364   7.621 -1.0307 -0.1370 -0.1225
   49MOL   H45428390   3.065   1.300   7.317 -2.9459 -2.5175  1.8215
   49MOL   H45528391   3.005   1.338   7.486 -4.1401  1.2464 -1.5625
   49MOL   H45628392   2.819   1.512   7.399  2.6164 -2.8729  2.7789
   49MOL   H45728393   2.840   1.383   7.292  0.1796  0.0399 -0.0505
   49MOL   H45828394   2.882   1.519   7.098 -1.0412  0.0308 -0.5804
   49MOL   H45928395   2.902   1.661   7.186  0.4492  0.1973  0.9992
   49MOL   H46028396   2.716   1.640   7.054 -0.2521 -0.7714  0.2099
   49MOL   H46128397   2.643   1.497   7.144  0.9811 -0.6998 -2.5059
   49MOL   H46228398   2.506   1.759   7.361 -1.0131 -0.3058 -0.4090
   49MOL   H46328399   2.429   1.568   7.385 -0.6837 -4.9257 -0.0498
   49MOL   H46428400   2.452   1.703   7.071  0.7926  1.9489 -1.4396
   49MOL   H46528401   2.356   1.794   7.188  0.3403  0.1161  0.3870
   49MOL   C46628402   2.512   1.995   7.180 -0.2404  0.4038  0.2728
   49MOL   C46728403   2.619   2.090   7.120  0.3681 -0.5433 -0.1702
   49MOL   O46828404   2.600   2.213   7.188  0.0410 -0.6701 -0.5358
   49MOL   C46928405   2.769   2.044   7.153 -0.4599 -0.0922 -0.0826
   49MOL   O47028406   2.849   2.104   7.050 -0.1812  0.3341  0.1692
   49MOL   C47128407   2.973   2.049   7.038 -0.8533  0.3415  0.3852
   49MOL   C47228408   3.049   2.142   6.946  0.0405  0.1465  0.0533
   49MOL   C47328409   3.204   2.133   6.960 -0.2675 -0.5098 -0.8907
   49MOL   O47428410   3.267   2.034   6.880  0.3157 -0.6723  0.2437
   49MOL   C47528411   3.394   1.988   6.905  0.2994  0.1939  0.4485
   49MOL   O47628412   3.488   2.093   6.896  1.1105 -0.1380 -0.5766
   49MOL   C47728413   3.421   1.873   6.807  0.6717  0.5972  0.0632
   49MOL   O47828414   3.556   1.831   6.809 -0.1472 -0.2765  0.2881
   49MOL   H47928415   2.525   1.989   7.288 -1.5788  0.8823  0.4709
   49MOL   H48028416   2.412   2.029   7.153 -0.2637  2.9665  3.2448
   49MOL   H48128417   2.600   2.094   7.013 -2.0940 -1.9462  0.1824
   49MOL   H48228418   2.677   2.268   7.190 -0.9824  0.7636  2.3769
   49MOL   H48328419   2.802   2.080   7.250  0.5662 -1.6902  0.1778
   49MOL   H48428420   2.783   1.936   7.149 -1.0962 -0.1774 -0.0628
   49MOL   H48528421   2.972   1.949   6.994 -1.1341  0.8627 -0.7857
   49MOL   H48628422   3.028   2.040   7.132  0.4388  1.1925 -0.2910
   49MOL   H48728423   3.034   2.247   6.969  0.3553  0.6680 -2.0142
   49MOL   H48828424   3.023   2.131   6.841 -0.0203 -2.3612  0.3082
   49MOL   H48928425   3.254   2.230   6.960  0.6594 -0.9922 -0.8557
   49MOL   H49028426   3.230   2.101   7.061  1.4117 -0.2492 -1.2350
   49MOL   H49128427   3.401   1.942   7.004  0.7429 -2.9660 -0.9765
   49MOL   H49228428   3.573   2.054   6.911  1.0015  0.1297  0.7654
   49MOL   H49328429   3.363   1.783   6.830 -0.2234  0.4529 -2.6072
   49MOL   H49428430   3.389   1.917   6.712  2.0621  0.3161 -0.5421
   49MOL   C49528431   3.570   1.733   6.707 -0.4167  0.0353  0.5202
   49MOL   C49628432   3.719   1.691   6.706  0.3067 -0.2731  0.1572
   49MOL   O49728433   3.732   1.596   6.807  0.1944 -0.2534 -0.4599
   49MOL   C49828434   3.758   1.625   6.579 -0.3127  0.3723  0.7784
   49MOL   O49928435   3.898   1.651   6.549  0.0933 -0.1379  0.4759
   49MOL   C50028436   3.996   1.555   6.573 -0.2446  0.0336  0.6106
   49MOL   C50128437   4.141   1.595   6.535  0.3325  0.0906 -0.2738
   49MOL   C50228438   4.156   1.615   6.385 -0.1376 -1.1494  0.7366
   49MOL   O50328439   4.287   1.661   6.358 -0.5487  0.2236 -0.3569
   49MOL   C50428440   4.314   1.697   6.227  0.4638 -0.6812 -0.2885
   49MOL   O50528441   4.321   1.581   6.142 -0.4695 -0.5184 -0.1251
   49MOL   C50628442   4.453   1.761   6.230 -0.6058  0.9299  0.5440
   49MOL   O50728443   4.448   1.888   6.297 -0.2766 -0.4999 -0.6705
   49MOL   H50828444   3.543   1.773   6.609  1.8811  0.9740  0.2254
   49MOL   H50928445   3.510   1.645   6.728 -0.7244  0.2018  0.3368
   49MOL   H51028446   3.779   1.780   6.726 -0.9667  0.0675  2.5751
   49MOL   H51128447   3.732   1.638   6.892 -0.4086  1.6004 -1.3387
   49MOL   H51228448   3.736   1.518   6.573  1.7436 -0.1767  2.2760
   49MOL   H51328449   3.721   1.678   6.492  0.9075 -3.6032 -2.3116
   49MOL   H51428450   3.969   1.465   6.518 -1.2476  0.2961  0.6580
   49MOL   H51528451   3.989   1.535   6.680  1.1725 -2.4633  0.2638
   49MOL   H51628452   4.203   1.512   6.569  0.3690  1.0128  2.0493
   49MOL   H51728453   4.161   1.680   6.600 -1.0762 -0.0632  0.3791
   49MOL   H51828454   4.117   1.529   6.331  1.2029 -0.2021 -1.7838
   49MOL   H51928455   4.090   1.695   6.353 -0.8344 -1.7303  0.7111
   49MOL   H52028456   4.229   1.759   6.200  0.1361 -0.8698  0.3159
   49MOL   H52128457   4.408   1.547   6.157  0.5148  2.0918  0.4385
   49MOL   H52228458   4.519   1.691   6.282 -1.6673 -1.1271 -0.8111
   49MOL   H52328459   4.482   1.782   6.127 -3.0403 -2.9981 -1.0659
   49MOL   C52428460   4.410   1.992   6.218  1.1412 -0.1447  0.0217
   49MOL   C52528461   4.427   2.121   6.298  0.1062 -0.1077  0.1463
   49MOL   O52628462   4.313   2.164   6.358  0.1801  0.1877  0.0725
   49MOL   C52728463   4.469   2.243   6.215  0.2162 -0.0755  0.6120
   49MOL   O52828464   4.551   2.330   6.286  0.2405  0.0875 -0.6316
   49MOL   C52928465   4.493   2.446   6.354 -0.2052  0.1651  0.7633
   49MOL   C53028466   4.455   2.550   6.247 -1.2858  0.1792  0.5357
   49MOL   C53128467   4.388   2.667   6.312  0.7476  0.3963 -0.2197
   49MOL   O53228468   4.492   2.748   6.373 -0.0197  0.2151  0.1653
   49MOL   C53328469   4.452   2.861   6.436 -0.2337 -0.0562  0.0805
   49MOL   O53428470   4.415   2.845   6.573  0.1737 -0.4469 -0.0681
   49MOL   C53528471   4.558   2.971   6.424 -0.1963 -0.2206 -0.4876
   49MOL   O53628472   4.662   2.951   6.517  0.3694 -0.4358 -0.3707
   49MOL   H53728473   4.307   1.974   6.186  0.9865 -0.2949  0.6065
   49MOL   H53828474   4.472   1.987   6.128 -0.1152 -3.1404 -0.7218
   49MOL   H53928475   4.496   2.114   6.382  1.5369  1.2698 -0.8780
   49MOL   H54028476   4.330   2.228   6.425  1.3510  2.6978 -2.5238
   49MOL   H54128477   4.540   2.202   6.143 -0.5711  1.8676 -1.3424
   49MOL   H54228478   4.382   2.285   6.164 -0.7745 -0.9246  1.5697
   49MOL   H54328479   4.571   2.485   6.419 -0.3819  0.9050  0.5376
   49MOL   H54428480   4.406   2.414   6.412  0.4948 -1.3809  0.9850
   49MOL   H54528481   4.384   2.510   6.176 -1.1613  0.4014  0.2860
   49MOL   H54628482   4.537   2.583   6.183 -0.8038  1.9560  2.0182
   49MOL   H54728483   4.334   2.721   6.234  1.2289 -0.0956 -0.8972
   49MOL   H54828484   4.310   2.639   6.383 -0.7356  1.5137 -1.3755
   49MOL   H54928485   4.366   2.903   6.383 -0.7610 -1.0444  0.1356
   49MOL   H55028486   4.489   2.863   6.629  0.5979  1.1772 -1.0922
   49MOL   H55128487   4.603   2.945   6.328 -0.9263 -1.8095 -0.4203
   49MOL   H55228488   4.501   3.064   6.427 -0.5967 -0.4930  0.5002
   49MOL   C55328489   4.781   3.026   6.491  0.2824 -0.3451  0.7980
   49MOL   C55428490   4.867   3.029   6.620  0.8025  0.4859  0.0899
   49MOL   O55528491   4.994   3.085   6.594 -0.0673 -0.7076 -0.1852
   49MOL   C55628492   4.906   2.890   6.670 -0.1754  0.0379 -1.0234
   49MOL   O55728493   4.963   2.899   6.801  0.3598  0.0570  0.4622
   49MOL   C55828494   5.026   2.780   6.837  0.2230  0.2165 -0.2097
   49MOL   C55928495   5.064   2.779   6.990  0.1307 -0.0396  0.3358
   49MOL   C56028496   5.086   2.632   7.042  0.0815  0.2262 -0.0683
   49MOL   O56128497   5.062   2.629   7.184 -0.4036  0.5803  0.0016
   49MOL   C56228498   5.032   2.502   7.232 -0.1328  0.4254  0.5399
   49MOL   O56328499   5.140   2.417   7.228 -0.1817  0.3112  0.6324
   49MOL   C56428500   4.985   2.526   7.381  0.3444 -0.3627  0.1306
   49MOL   O56528501   4.870   2.600   7.381 -0.5333  0.2738  0.4302
   49MOL   H56628502   4.763   3.130   6.464 -0.8691 -0.6904  0.2358
   49MOL   H56728503   4.828   2.993   6.398 -1.5251  2.1188 -1.0398
   49MOL   H56828504   4.817   3.093   6.692  1.2410  2.5207 -1.3657
   49MOL   H56928505   5.051   3.054   6.662  0.5706  0.1173 -0.3386
   49MOL   H57028506   4.816   2.828   6.676 -0.1348 -0.0801 -1.6722
   49MOL   H57128507   4.969   2.838   6.599  2.7472 -2.6239  3.2694
   49MOL   H57228508   4.957   2.698   6.822  1.4261 -0.7824 -0.3842
   49MOL   H57328509   5.114   2.758   6.777 -0.2630  2.1874 -1.6871
   49MOL   H57428510   4.979   2.825   7.041 -0.4487  0.4300 -1.0267
   49MOL   H57528511   5.154   2.839   6.992  1.1814 -1.5827  0.6871
   49MOL   H57628512   5.001   2.584   6.994  0.8104  1.1396 -2.3303
   49MOL   H57728513   5.179   2.577   7.030  0.7543  1.6710 -1.8775
   49MOL   H57828514   4.953   2.459   7.171  0.7639  0.8724 -0.9586
   49MOL   H57928515   5.138   2.372   7.312 -0.0440  1.4565  1.2605
   49MOL   H58028516   4.969   2.430   7.429 -0.2940 -0.5781 -0.4959
   49MOL   H58128517   5.066   2.580   7.430  0.0781  1.1887 -1.0906
   49MOL   H58228518   4.877   2.670   7.317  1.0209  0.6348  0.9916
   50MOL     C128519   2.926   6.071   0.181 -0.2718  0.7250 -0.5487
   50MOL     C228520   3.067   6.108   0.137 -0.0083  0.5220  0.1821
   50MOL     O328521   3.085   6.084   0.002 -0.0730  0.2656  0.2104
   50MOL     C428522   3.099   6.261   0.161  0.2324  0.5963  0.4066
   50MOL     O528523   3.113   6.277   0.298 -0.1481  0.2990  0.1429
   50MOL     C628524   3.128   6.413   0.325 -0.0462 -1.3841 -0.1573
   50MOL     C728525   3.116   6.436   0.473 -0.6556  0.4177 -0.9898
   50MOL     C828526   3.174   6.565   0.523 -0.2027 -0.1951 -0.2719
   50MOL     O928527   3.118   6.670   0.441  0.3745  0.0174  0.5760
   50MOL    C1028528   3.200   6.781   0.418  0.1098  0.2116 -0.3724
   50MOL    O1128529   3.247   6.839   0.537 -0.5955 -0.0813 -0.1361
   50MOL    C1228530   3.131   6.890   0.338 -0.2116 -0.2069 -0.1074
   50MOL    O1328531   3.124   6.838   0.206  0.1978  0.4196 -0.1809
   50MOL    H1428532   2.911   6.106   0.283 -0.9926 -0.7295 -0.1317
   50MOL    H1528533   2.899   5.966   0.172  0.4201  0.1150  3.4954
   50MOL    H1628534   3.149   6.056   0.185 -0.7593 -0.1870  0.7209
   50MOL    H1728535   3.173   6.050   7.691 -0.0561 -0.5524  4.2452
   50MOL    H1828536   3.194   6.290   0.116 -0.2997 -0.0011 -1.1226
   50MOL    H1928537   3.023   6.327   0.120 -0.5048 -0.8692 -0.6088
   50MOL    H2028538   3.074   6.489   0.269 -0.9582 -0.0570  2.4428
   50MOL    H2128539   3.236   6.425   0.313 -0.0460 -0.0038  1.1267
   50MOL    H2228540   3.166   6.361   0.534 -1.5239  2.3026  2.1469
   50MOL    H2328541   3.012   6.425   0.505  0.0309  0.3793  1.3223
   50MOL    H2428542   3.151   6.584   0.628  0.3294  1.9668 -0.5295
   50MOL    H2528543   3.283   6.574   0.523 -0.2057 -0.0885  0.7481
   50MOL    H2628544   3.280   6.734   0.360  0.9451  2.1028 -0.7998
   50MOL    H2728545   3.184   6.903   0.567  0.3205  0.5579  0.4609
   50MOL    H2828546   3.043   6.940   0.377 -0.6027 -2.2658  1.7334
   50MOL    H2928547   3.204   6.970   0.329  0.3433 -0.8189 -1.1940
   50MOL    H3028548   2.853   6.134   0.131  0.5060  0.2750 -2.2600
   50MOL    C3128549   3.009   6.884   0.138 -0.4654  0.4081 -0.3666
   50MOL    C3228550   3.017   6.834   7.685 -0.6115 -0.3483  0.2948
   50MOL    O3328551   2.898   6.870   7.619  0.3333 -0.5641  0.0725
   50MOL    C3428552   3.017   6.682   7.679  0.6649 -0.3731  0.7721
   50MOL    O3528553   3.013   6.644   7.540 -0.0962 -0.2770  0.5798
   50MOL    C3628554   2.990   6.503   7.504 -0.0374  0.1611 -0.1300
   50MOL    C3728555   2.838   6.457   7.505  0.1351  0.2611 -0.8835
   50MOL    C3828556   2.831   6.307   7.484 -0.0158 -0.3535 -0.2842
   50MOL    O3928557   2.707   6.251   7.535 -0.4724  0.1579  0.3078
   50MOL    C4028558   2.693   6.111   7.541  0.4381 -0.0568  0.4117
   50MOL    O4128559   2.671   6.061   7.414 -0.2860 -0.3796  0.1072
   50MOL    C4228560   2.572   6.072   7.633 -0.0078 -0.3754 -0.3642
   50MOL    O4328561   2.619   6.082   0.070  0.0398  0.5129  0.0145
   50MOL    H4428562   2.919   6.863   0.196 -0.8805 -0.4121 -1.2960
   50MOL    H4528563   3.006   6.993   0.129  1.7582  0.7178  2.1665
   50MOL    H4628564   3.106   6.869   7.633 -1.3518 -1.3118 -1.6713
   50MOL    H4728565   2.892   6.796   7.560  3.6843 -1.2076  0.4236
   50MOL    H4828566   3.106   6.647   0.037 -0.2321 -0.4824  2.2542
   50MOL    H4928567   2.925   6.640   0.027  1.0174 -1.6296  0.3341
   50MOL    H5028568   3.059   6.446   7.566 -0.4685  1.0231  1.1482
   50MOL    H5128569   3.023   6.494   7.400  0.3519 -1.3185  0.1157
   50MOL    H5228570   2.762   6.506   7.444 -1.2464 -1.1377 -0.3171
   50MOL    H5328571   2.789   6.484   7.598 -0.4035 -1.8386 -0.5306
   50MOL    H5428572   2.848   6.278   7.380  4.1372 -0.9308  0.5031
   50MOL    H5528573   2.917   6.270   7.539 -0.0439  1.1467  0.7872
   50MOL    H5628574   2.786   6.068   7.580 -0.6583 -2.1167  0.8479
   50MOL    H5728575   2.754   6.047   7.371 -0.8008 -1.8006 -0.4341
   50MOL    H5828576   2.498   6.150   7.615  1.1918  0.4599 -1.8254
   50MOL    H5928577   2.528   5.973   7.620  1.7322 -1.1486 -0.4835
   50MOL    C6028578   2.529   6.085   0.175  0.4401  0.1470 -0.3742
   50MOL    C6128579   2.464   5.950   0.200  0.9460 -0.5277  0.1062
   50MOL    O6228580   2.355   5.978   0.285  0.2846 -0.1795 -0.2472
   50MOL    C6328581   2.548   5.843   0.270 -0.4142  0.6841  0.0137
   50MOL    O6428582   2.475   5.723   0.262 -0.4036  0.7883  0.4895
   50MOL    C6528583   2.552   5.604   0.242  0.0027 -0.1714 -0.0023
   50MOL    C6628584   2.598   5.597   0.095  0.0918 -0.4228 -1.1489
   50MOL    C6728585   2.656   5.464   0.053 -0.3350  0.1902 -0.3783
   50MOL    O6828586   2.741   5.494   7.634  0.4855  0.2680  0.0745
   50MOL    C6928587   2.809   5.383   7.583 -0.0014  0.1168 -0.8554
   50MOL    O7028588   2.717   5.288   7.532 -0.7468  0.6584  0.1012
   50MOL    C7128589   2.906   5.425   7.469  0.2571 -0.0873  0.1165
   50MOL    O7228590   2.835   5.495   7.365 -0.5726  0.3798 -0.3787
   50MOL    H7328591   2.465   6.167   0.143 -1.4741 -0.7788  1.0172
   50MOL    H7428592   2.573   6.118   0.269 -0.2487 -1.6070  0.5872
   50MOL    H7528593   2.424   5.905   0.110 -2.5793  0.4529  1.0970
   50MOL    H7628594   2.354   5.908   0.349 -0.9331  0.0005 -0.0589
   50MOL    H7728595   2.640   5.832   0.212 -1.3154 -0.1577 -1.2853
   50MOL    H7828596   2.566   5.860   0.376  0.2245  1.8099 -0.2714
   50MOL    H7928597   2.482   5.523   0.262  1.5509 -1.4998  0.1693
   50MOL    H8028598   2.627   5.594   0.320  0.7452  0.0264 -0.6926
   50MOL    H8128599   2.672   5.675   0.080 -1.3043  0.9993 -0.8097
   50MOL    H8228600   2.517   5.627   0.028 -0.1090 -1.8546 -1.5697
   50MOL    H8328601   2.575   5.392   0.038  0.6115 -1.0067  0.1919
   50MOL    H8428602   2.715   5.424   0.135  1.6764 -0.5819 -2.1719
   50MOL    H8528603   2.859   5.334   7.667 -1.8334 -1.2993 -0.5799
   50MOL    H8628604   2.688   5.333   7.454  0.5623  1.8534  0.2787
   50MOL    H8728605   2.985   5.483   7.515  2.0539 -1.3499 -1.2974
   50MOL    H8828606   2.950   5.337   7.421 -0.5314 -0.2575 -0.3123
   50MOL    C8928607   2.921   5.600   7.312  0.1059 -0.2262 -0.3425
   50MOL    C9028608   2.848   5.652   7.185  0.9357 -0.1155 -0.3731
   50MOL    O9128609   2.722   5.710   7.223  0.4107 -0.3416  0.2251
   50MOL    C9228610   2.926   5.750   7.096  0.2817 -0.0770 -0.6702
   50MOL    O9328611   3.012   5.838   7.163  0.1880 -0.1977  0.6703
   50MOL    C9428612   2.951   5.946   7.233  0.0897 -0.2955  0.0721
   50MOL    C9528613   3.058   6.041   7.284 -0.3684 -0.2395 -0.5848
   50MOL    C9628614   3.093   6.148   7.179 -0.3634  0.8931 -0.7880
   50MOL    O9728615   2.977   6.233   7.160  0.1647  0.1410  0.5792
   50MOL    C9828616   2.984   6.331   7.064 -0.7018  0.2726  0.0004
   50MOL    O9928617   2.985   6.277   6.932  0.1374  0.2994 -0.1829
   50MOL   C10028618   2.862   6.424   7.093 -0.0341 -0.0938 -0.4514
   50MOL   O10128619   2.730   6.366   7.063 -0.3369  0.3901 -0.1272
   50MOL   H10228620   3.016   5.571   7.268  0.6491  0.3510  0.4328
   50MOL   H10328621   2.937   5.684   7.380 -1.3224 -2.1397  2.4446
   50MOL   H10428622   2.822   5.573   7.115 -1.2414  0.9051 -0.7385
   50MOL   H10528623   2.677   5.638   7.265 -0.3475 -0.3928 -0.6458
   50MOL   H10628624   2.984   5.686   7.030 -0.4474 -0.9398 -0.4964
   50MOL   H10728625   2.856   5.801   7.030  1.8466  0.3316 -2.0537
   50MOL   H10828626   2.911   5.893   7.319 -1.7320 -0.0476 -0.5932
   50MOL   H10928627   2.878   6.003   7.175  1.6472  1.1672 -0.4986
   50MOL   H11028628   3.149   5.984   7.303 -0.2051 -0.3534 -1.6606
   50MOL   H11128629   3.038   6.095   7.376  1.5918  2.3877 -1.6438
   50MOL   H11228630   3.177   6.210   7.210 -0.3220  1.3010 -1.6918
   50MOL   H11328631   3.111   6.094   7.086  0.9521 -2.2681  1.2182
   50MOL   H11428632   3.077   6.387   7.060 -0.0075 -0.9511 -1.5510
   50MOL   H11528633   2.899   6.241   6.918 -0.2845  1.1712  0.1758
   50MOL   H11628634   2.874   6.462   7.194 -1.2825 -0.6328 -0.0885
   50MOL   H11728635   2.875   6.517   7.037 -4.3291  0.9939  0.1867
   50MOL   C11828636   2.653   6.329   7.171  0.0958  0.5455 -1.2273
   50MOL   C11928637   2.507   6.333   7.142 -0.0822 -0.0865 -0.0517
   50MOL   O12028638   2.461   6.467   7.162  0.1765  0.5950  0.5260
   50MOL   C12128639   2.425   6.254   7.245 -0.1061 -0.6339 -0.4146
   50MOL   O12228640   2.293   6.272   7.198  0.2365  0.4437 -0.3374
   50MOL   C12328641   2.246   6.172   7.112 -0.7396 -0.2558 -0.2936
   50MOL   C12428642   2.108   6.224   7.075 -0.2457  0.6364 -0.0077
   50MOL   C12528643   2.107   6.354   6.992  0.0460 -1.2684  0.8963
   50MOL   O12628644   1.972   6.405   7.000 -0.3918  0.8349 -0.0345
   50MOL   C12728645   1.960   6.539   6.958  0.2187 -0.8666  0.3506
   50MOL   O12828646   2.013   6.556   6.829 -0.1584  0.0292  0.4000
   50MOL   C12928647   2.020   6.629   7.067 -0.1104  0.4606  0.4087
   50MOL   O13028648   1.960   6.756   7.068 -0.0092  0.0770  0.1182
   50MOL   H13128649   2.678   6.225   7.195  0.6404 -0.2802 -5.0890
   50MOL   H13228650   2.685   6.380   7.262 -1.1958 -0.7506 -0.0370
   50MOL   H13328651   2.483   6.304   7.040 -0.4352  0.7736 -0.2146
   50MOL   H13428652   2.508   6.525   7.105  0.3157 -0.3044 -0.2927
   50MOL   H13528653   2.447   6.148   7.258  1.1455 -0.2495  0.7922
   50MOL   H13628654   2.442   6.291   7.347  1.6757 -1.2404 -0.4845
   50MOL   H13728655   2.245   6.079   7.168  0.6403 -0.2132 -0.1595
   50MOL   H13828656   2.297   6.168   7.015  0.5275  2.4072  0.1907
   50MOL   H13928657   2.050   6.240   7.166 -1.3340 -0.9399 -0.4130
   50MOL   H14028658   2.057   6.145   7.020  0.5039  0.3210 -0.2546
   50MOL   H14128659   2.187   6.420   7.023 -0.8117 -0.5588  1.6276
   50MOL   H14228660   2.137   6.333   6.890  0.8082  1.7602  0.4542
   50MOL   H14328661   1.855   6.569   6.952  0.7687  1.0616 -0.3067
   50MOL   H14428662   1.939   6.565   6.772  1.0585  0.6354 -1.1300
   50MOL   H14528663   2.031   6.581   7.164 -1.2591 -1.2458 -0.2824
   50MOL   H14628664   2.122   6.650   7.033 -0.2940  0.2515 -0.2774
   50MOL   C14728665   2.030   6.851   7.151 -0.1102  0.9631 -0.7196
   50MOL   C14828666   1.961   6.991   7.133  0.5735  1.3143  0.6025
   50MOL   O14928667   1.984   7.029   6.996  0.6167  0.2506  0.4264
   50MOL   C15028668   2.014   7.112   7.212 -0.0354  0.2215 -0.0147
   50MOL   O15128669   1.914   7.213   7.209 -0.0924 -0.1060  0.0035
   50MOL   C15228670   1.974   7.344   7.214 -0.0758  0.4099  0.3388
   50MOL   C15328671   2.045   7.381   7.082  0.5543 -0.2138 -0.3270
   50MOL   C15428672   2.093   7.524   7.073  0.0957 -0.0199  0.3196
   50MOL   O15528673   2.116   7.551   6.931 -0.4092  0.6133  0.0016
   50MOL   C15628674   2.160   7.680   6.910 -0.4313 -0.2826  0.4954
   50MOL   O15728675   2.048   0.074   6.894 -0.3340  0.1269  0.0182
   50MOL   C15828676   2.245   7.683   6.783 -0.5370 -0.4877 -1.0985
   50MOL   O15928677   2.349   0.083   6.799  0.2061  0.2019  0.0477
   50MOL   H16028678   2.135   6.859   7.125 -0.0209  3.5163  0.2533
   50MOL   H16128679   2.018   6.826   7.257  0.0071 -0.3883 -1.0173
   50MOL   H16228680   1.855   6.974   7.150  0.5064 -1.2892 -1.9974
   50MOL   H16328681   2.050   7.096   6.998  1.2014 -0.2828 -0.9069
   50MOL   H16428682   2.021   7.090   7.319  0.2769  0.5235  0.0275
   50MOL   H16528683   2.119   7.134   7.195  0.0629 -0.7310 -0.6852
   50MOL   H16628684   2.033   7.339   7.305  0.9026  0.7013 -0.2652
   50MOL   H16728685   1.901   7.421   7.240 -1.0679 -0.6433  0.6668
   50MOL   H16828686   1.961   7.375   7.013 -0.9442 -0.7531  1.5092
   50MOL   H16928687   2.121   7.312   7.047  0.6029 -0.3346  0.0206
   50MOL   H17028688   2.030   7.599   7.120  0.2340 -0.0112  0.4917
   50MOL   H17128689   2.195   7.524   7.112  0.2989  0.0493 -0.2210
   50MOL   H17228690   2.219   0.021   6.994 -0.6274  1.1379  0.0684
   50MOL   H17328691   1.976   0.019   6.868 -0.4135  1.1745 -2.1077
   50MOL   H17428692   2.290   7.585   6.764 -0.1834 -0.6185  0.3642
   50MOL   H17528693   2.179   0.007   6.698 -2.1268 -1.8097 -0.1595
   50MOL   C17628694   2.316   0.215   6.757  0.3780 -0.0808  0.2460
   50MOL   C17728695   2.399   0.317   6.823 -0.3883 -0.6154  0.6884
   50MOL   O17828696   2.531   0.282   6.760  0.1254 -0.3079  0.6696
   50MOL   C17928697   2.393   0.308   6.977  0.2298 -0.0635 -0.2435
   50MOL   O18028698   2.462   0.418   7.037 -0.2225 -0.6406 -0.2408
   50MOL   C18128699   2.438   0.420   7.177 -0.2498 -0.1558 -0.2705
   50MOL   C18228700   2.543   0.519   7.252 -0.5913  0.0848  0.1878
   50MOL   C18328701   2.520   0.516   7.398 -0.0307 -0.2431 -0.3043
   50MOL   O18428702   2.535   0.384   7.450  0.6564  0.2392  0.6758
   50MOL   C18528703   2.492   0.371   7.585 -0.2565  0.6022  0.7195
   50MOL   O18628704   2.606   0.386   7.667 -0.1931 -0.2545  0.9416
   50MOL   C18728705   2.437   0.230   7.609 -0.7505  0.1474  0.1073
   50MOL   O18828706   2.333   0.187   7.518 -0.2291 -0.3024  0.3868
   50MOL   H18928707   2.210   0.234   6.774  0.5699 -0.1226  1.5065
   50MOL   H19028708   2.335   0.219   6.650  0.6981 -0.0735  0.3028
   50MOL   H19128709   2.374   0.418   6.791  1.2543 -0.5921 -0.6284
   50MOL   H19228710   2.562   0.206   6.807  2.7817  0.7293  0.7170
   50MOL   H19328711   2.289   0.303   7.009  0.7697 -3.0394  1.3052
   50MOL   H19428712   2.443   0.218   7.014 -0.5368 -0.2005  0.4646
   50MOL   H19528713   2.468   0.321   7.211  0.6818  0.2274  0.0316
   50MOL   H19628714   2.335   0.444   7.205 -0.0609 -0.9977  1.1554
   50MOL   H19728715   2.539   0.623   7.220 -1.3924  0.2047  0.6592
   50MOL   H19828716   2.641   0.483   7.221 -0.4756  0.4311  0.1555
   50MOL   H19928717   2.592   0.575   7.455  0.0113 -0.9718  0.4077
   50MOL   H20028718   2.422   0.556   7.420 -0.0524 -0.2785 -0.3366
   50MOL   H20128719   2.420   0.451   7.601 -0.8400 -0.2491  2.3762
   50MOL   H20228720   2.602   0.322   0.042  2.7783 -0.0574  1.3411
   50MOL   H20328721   2.515   0.154   7.615 -0.3148  0.4630 -1.2547
   50MOL   H20428722   2.399   0.232   0.016  1.7654 -1.5138  1.1187
   50MOL   C20528723   2.292   0.056   7.535 -0.7802 -0.0891  0.2037
   50MOL   C20628724   2.193   0.010   7.423  0.8747  0.2383 -0.3922
   50MOL   O20728725   2.147   7.574   7.441 -0.0348  1.0946  0.0147
   50MOL   C20828726   2.074   0.104   7.409 -0.5688  0.2401 -0.0987
   50MOL   O20928727   2.002   0.082   7.291  0.0888  0.7238 -0.1146
   50MOL   C21028728   1.883   0.156   7.270 -0.0751  0.1554  0.5316
   50MOL   C21128729   1.913   0.305   7.255  0.3995 -0.3778  0.4134
   50MOL   C21228730   1.790   0.384   7.211 -0.8219  0.1955 -0.1099
   50MOL   O21328731   1.829   0.526   7.217  0.3757  0.0211  1.0275
   50MOL   C21428732   1.736   0.615   7.164  0.0447  0.8168  0.4881
   50MOL   O21528733   1.757   0.630   7.025 -0.0205  0.1153  0.3852
   50MOL   C21628734   1.743   0.758   7.228 -0.4060  0.3772 -0.3231
   50MOL   O21728735   1.612   0.816   7.235  0.2105  0.3569 -0.1616
   50MOL   H21828736   2.240   0.053   7.631  0.3674  2.7201  0.9710
   50MOL   H21928737   2.383   7.691   7.539  0.3031  1.4888 -0.3350
   50MOL   H22028738   2.256   0.012   7.334  0.5167  0.5361 -0.6402
   50MOL   H22128739   2.069   7.571   7.388 -0.3105  1.1448  0.4128
   50MOL   H22228740   2.010   0.102   7.497  1.0503  0.1762  1.1105
   50MOL   H22328741   2.114   0.206   7.409  0.3664 -0.1145  1.1867
   50MOL   H22428742   1.814   0.136   7.352 -1.1007  2.0300  0.1521
   50MOL   H22528743   1.836   0.122   7.178  0.8587  0.8141 -0.2108
   50MOL   H22628744   1.993   0.305   7.180  0.5768  1.0217  0.5776
   50MOL   H22728745   1.937   0.345   7.354 -1.1867  1.5492  0.0522
   50MOL   H22828746   1.741   0.350   7.120 -1.2456 -0.7475  0.4648
   50MOL   H22928747   1.708   0.359   7.278  0.6409 -2.3496  0.8188
   50MOL   H23028748   1.634   0.580   7.180  0.2378  0.1981  0.3541
   50MOL   H23128749   1.827   0.690   7.002 -2.0183  3.0247  1.6245
   50MOL   H23228750   1.766   0.732   7.331 -2.0819 -0.2942 -0.1061
   50MOL   H23328751   1.814   0.827   7.183  0.1798 -0.3255 -0.4977
   50MOL   C23428752   1.618   0.933   7.318  0.2804 -0.0796  0.0192
   50MOL   C23528753   1.494   1.011   7.321 -0.4402  0.1334  0.0067
   50MOL   O23628754   1.388   0.944   7.378  0.4803 -0.5640  0.5142
   50MOL   C23728755   1.446   1.072   7.179  0.6526  0.1250  0.2316
   50MOL   O23828756   1.545   1.178   7.150 -0.1831  0.4074 -0.5599
   50MOL   C23928757   1.503   1.286   7.079 -0.0204 -0.1341 -0.1407
   50MOL   C24028758   1.592   1.402   7.137  0.7261  0.3679 -0.5578
   50MOL   C24128759   1.568   1.434   7.287 -0.0658  0.9427  0.3334
   50MOL   O24228760   1.624   1.560   7.316 -0.6935  0.7873 -0.5223
   50MOL   C24328761   1.620   1.589   7.454 -0.5808 -0.0172 -0.1010
   50MOL   O24428762   1.494   1.600   7.507  0.0909 -0.7808 -0.7296
   50MOL   C24528763   1.689   1.732   7.473  0.1772 -0.0659  0.2129
   50MOL   O24628764   1.611   1.842   7.421 -0.3747  0.1639 -0.0731
   50MOL   H24728765   1.636   0.906   7.423 -0.3481  1.1409  0.4488
   50MOL   H24828766   1.699   1.000   7.290  0.5667 -0.9292 -1.2394
   50MOL   H24928767   1.509   1.081   7.404  1.2972 -1.7188  1.2847
   50MOL   H25028768   1.352   0.886   7.314 -2.3297  2.4840 -0.8191
   50MOL   H25128769   1.456   0.997   7.101 -1.5212  0.5771 -0.4969
   50MOL   H25228770   1.344   1.110   7.181  0.6146 -0.0460  1.8006
   50MOL   H25328771   1.399   1.313   7.096  0.3346  1.5395 -0.5301
   50MOL   H25428772   1.514   1.255   6.975 -1.3894 -0.3629 -0.2161
   50MOL   H25528773   1.561   1.482   7.070 -1.8751  0.5578  0.8144
   50MOL   H25628774   1.694   1.377   7.107  1.3560  1.6583  0.4389
   50MOL   H25728775   1.459   1.435   7.290 -0.0682 -0.2630  1.3239
   50MOL   H25828776   1.597   1.351   7.351  0.4038 -0.1573 -1.2966
   50MOL   H25928777   1.676   1.507   7.499 -0.1059  1.3424  1.8633
   50MOL   H26028778   1.455   1.681   7.478 -0.8916  0.0045  2.6191
   50MOL   H26128779   1.710   1.749   7.579 -2.4328 -0.9796  0.9334
   50MOL   H26228780   1.781   1.731   7.415 -0.3806  0.5952 -0.6983
   50MOL   C26328781   1.675   1.962   7.434 -0.2291  0.4671 -0.0958
   50MOL   C26428782   1.581   2.079   7.460  0.3472 -0.5966  0.0588
   50MOL   O26528783   1.531   2.063   7.594 -0.3517 -0.0624  0.0933
   50MOL   C26628784   1.659   2.212   7.460 -0.3107  0.3169  0.2720
   50MOL   O26728785   1.580   2.323   7.419 -0.4988  0.2924 -0.5923
   50MOL   C26828786   1.604   2.444   7.494 -0.1874 -0.2117  0.5348
   50MOL   C26928787   1.473   2.510   7.535  0.1892  0.1016  0.4272
   50MOL   C27028788   1.409   2.428   7.646  0.4322 -0.5096  0.1369
   50MOL   O27128789   1.316   2.502   0.025  0.5525  0.0833  0.2698
   50MOL   C27228790   1.357   2.532   0.155 -0.1814 -0.1982 -0.0790
   50MOL   O27328791   1.469   2.608   0.171  0.6936  0.4123 -0.7867
   50MOL   C27428792   1.247   2.611   0.222 -0.3026 -0.1270 -0.3757
   50MOL   O27528793   1.193   2.532   0.325  0.1956 -0.0242  0.2215
   50MOL   H27628794   1.717   1.986   7.336  1.5432  0.8228  0.7229
   50MOL   H27728795   1.758   1.953   7.504  0.2939 -2.5625 -0.9988
   50MOL   H27828796   1.506   2.078   7.381 -0.9972 -0.0796  1.3180
   50MOL   H27928797   1.444   2.026   7.588  0.0987 -1.1329  0.0405
   50MOL   H28028798   1.713   2.228   7.553  0.4505 -0.6816  0.0063
   50MOL   H28128799   1.730   2.211   7.377 -0.8613  2.8883 -0.2919
   50MOL   H28228800   1.639   2.525   7.430 -2.1300 -0.5051 -0.9702
   50MOL   H28328801   1.681   2.435   7.570 -1.2784  0.7639  1.7909
   50MOL   H28428802   1.412   2.528   7.446 -0.2012  1.6176  0.9759
   50MOL   H28528803   1.476   2.616   7.562 -0.0296  0.3872 -0.6441
   50MOL   H28628804   1.357   2.353   7.586  1.0233  1.2478 -2.6657
   50MOL   H28728805   1.485   2.390   0.020 -0.0150  1.0344  1.5168
   50MOL   H28828806   1.385   2.443   0.211  0.8305 -0.3750 -0.8486
   50MOL   H28928807   1.461   2.666   0.097 -2.7666  1.7202  0.5344
   50MOL   H29028808   1.273   2.708   0.262 -0.9821 -0.0242 -0.1871
   50MOL   H29128809   1.168   2.620   0.147  0.1520 -0.0291 -0.8526
   50MOL   C29228810   1.068   2.573   0.372  0.1529  0.0432  0.4048
   50MOL   C29328811   1.013   2.474   0.472  0.3931 -0.0886  0.6373
   50MOL   O29428812   1.066   2.523   0.593  0.5983  0.2023  0.1677
   50MOL   C29528813   0.866   2.477   0.497 -0.0826 -0.0443  0.5602
   50MOL   O29628814   0.822   2.368   0.580  0.2446 -0.5545 -0.4475
   50MOL   C29728815   0.686   2.383   0.611 -0.1868 -0.1045  0.3354
   50MOL   C29828816   0.630   2.245   0.663  0.1632 -0.4462  0.5677
   50MOL   C29928817   0.603   2.142   0.551  0.2301  0.1045 -0.1340
   50MOL   O30028818   0.575   2.008   0.595  0.0418  0.2340  0.0732
   50MOL   C30128819   0.563   1.913   0.502 -0.4914  0.4222  0.3199
   50MOL   O30228820   0.683   1.877   0.444 -0.2187  1.2775 -0.1225
   50MOL   C30328821   0.497   1.785   0.556 -0.4266 -0.2837  0.6814
   50MOL   O30428822   0.584   1.720   0.655  0.0129 -0.6952  0.5413
   50MOL   H30528823   1.067   2.672   0.417 -3.1312  1.0078 -1.6750
   50MOL   H30628824   1.001   2.575   0.287  1.0386 -0.1746 -0.3169
   50MOL   H30728825   1.052   2.373   0.456  2.4488  0.6470  0.8580
   50MOL   H30828826   1.016   2.468   0.652  1.3479  0.7125  1.3167
   50MOL   H30928827   0.825   2.569   0.541 -2.2040 -0.6815  0.0001
   50MOL   H31028828   0.829   2.466   0.395  0.2004 -0.3795  0.4928
   50MOL   H31128829   0.632   2.423   0.526  0.6687  0.5733  0.1037
   50MOL   H31228830   0.680   2.447   0.699 -0.6260  0.3501 -0.0260
   50MOL   H31328831   0.531   2.253   0.707 -1.1522 -2.3665 -1.9268
   50MOL   H31428832   0.689   2.197   0.741 -0.8933 -0.9093  1.0979
   50MOL   H31528833   0.519   2.180   0.492  0.9193  1.2723 -0.3629
   50MOL   H31628834   0.686   2.136   0.481  1.5582 -0.4373  1.4624
   50MOL   H31728835   0.493   1.956   0.430 -0.9384 -1.6502 -0.5296
   50MOL   H31828836   0.711   1.804   0.496 -0.2147  1.6613  0.4246
   50MOL   H31928837   0.475   1.716   0.474  0.0437  0.7294 -0.3068
   50MOL   H32028838   0.400   1.812   0.598 -2.0189 -3.4944 -0.7368
   50MOL   C32128839   0.537   1.598   0.715 -0.4119  0.0893  0.6260
   50MOL   C32228840   0.405   1.633   0.797  0.3255  0.4250 -0.3052
   50MOL   O32328841   0.289   1.604   0.716  0.4278 -0.3475  0.5285
   50MOL   C32428842   0.391   1.549   0.929  0.4431  0.3596  1.1831
   50MOL   O32528843   0.421   1.415   0.888 -0.5637  0.3606 -0.2390
   50MOL   C32628844   0.407   1.309   0.977 -0.3459  0.9223 -0.3400
   50MOL   C32728845   0.427   1.169   0.914  0.0385 -0.0366 -0.3017
   50MOL   C32828846   0.317   1.135   0.825  0.1369  0.3349  0.4062
   50MOL   O32928847   0.318   0.995   0.794  0.1592  0.2412 -0.6382
   50MOL   C33028848   0.189   0.939   0.786 -0.1599 -0.0262 -0.3117
   50MOL   O33128849   0.107   0.984   0.680  0.2185 -0.4116 -0.1757
   50MOL   C33228850   0.190   0.791   0.773 -0.0317 -0.0778  0.0236
   50MOL   O33328851   0.270   0.765   0.656  0.2819 -0.3623 -0.1086
   50MOL   H33428852   0.617   1.551   0.773 -0.6217  2.2400  2.7379
   50MOL   H33528853   0.510   1.530   0.634 -2.2578  0.2825  1.0659
   50MOL   H33628854   0.418   1.737   0.826 -0.2920  0.3661  0.1944
   50MOL   H33728855   0.259   1.519   0.742 -1.9377  0.3978  0.2961
   50MOL   H33828856   0.288   1.547   0.962  0.3928  1.2467  1.0736
   50MOL   H33928857   0.456   1.594   1.004 -0.4906  2.4355  0.7650
   50MOL   H34028858   0.309   1.317   1.023  0.5369  0.5488  1.6262
   50MOL   H34128859   0.466   1.327   1.066  0.8891  0.2102 -0.9949
   50MOL   H34228860   0.523   1.161   0.863  1.5768  2.0966  2.1671
   50MOL   H34328861   0.437   1.103   1.001 -2.7095 -0.0305  0.0788
   50MOL   H34428862   0.225   1.151   0.882  0.1322  1.1388  0.1720
   50MOL   H34528863   0.319   1.195   0.734  1.8112  0.9895  0.8654
   50MOL   H34628864   0.141   0.962   0.881  1.3479  1.4152  0.1270
   50MOL   H34728865   0.156   0.970   0.600 -0.2656 -0.0625 -0.5389
   50MOL   H34828866   0.232   0.734   0.856 -1.7078 -0.3135  0.7385
   50MOL   H34928867   0.092   0.747   0.755 -0.8172  1.2068  1.0718
   50MOL   C35028868   0.285   0.632   0.620 -0.4349 -0.0305  0.2396
   50MOL   C35128869   0.401   0.645   0.517  0.2282 -0.7090  0.4676
   50MOL   O35228870   0.510   0.680   0.600  0.2630 -0.8851  0.0519
   50MOL   C35328871   0.434   0.514   0.454  0.1640 -0.6160  0.2959
   50MOL   O35428872   0.520   0.549   0.347 -0.1415  0.0820  0.5311
   50MOL   C35528873   0.584   0.439   0.290  0.1071 -0.4824 -0.1217
   50MOL   C35628874   0.682   0.490   0.191 -0.6420  0.5103 -0.7508
   50MOL   C35728875   0.797   0.573   0.249  0.7786  0.1933 -0.4296
   50MOL   O35828876   0.891   0.584   0.151 -0.2022  0.5736 -0.3281
   50MOL   C35928877   1.011   0.650   0.187 -0.2964 -0.2259  0.5462
   50MOL   O36028878   1.097   0.557   0.252 -0.4923 -0.5116  0.2894
   50MOL   C36128879   1.072   0.706   0.054 -0.3470  0.4934  0.4521
   50MOL   O36228880   1.086   0.847   0.065  0.0841 -0.2400 -0.1310
   50MOL   H36328881   0.200   0.587   0.568  0.8494 -1.1435 -0.9299
   50MOL   H36428882   0.308   0.563   0.701  0.2647 -0.0509  0.0246
   50MOL   H36528883   0.388   0.728   0.448 -2.7047  0.0085  1.7945
   50MOL   H36628884   0.478   0.753   0.651  0.4071 -1.0709  0.4135
   50MOL   H36728885   0.475   0.441   0.524 -0.5262 -1.1540  0.1439
   50MOL   H36828886   0.344   0.463   0.419  0.1119 -0.6191  0.4341
   50MOL   H36928887   0.515   0.365   0.249 -1.4840  1.9743 -2.0838
   50MOL   H37028888   0.646   0.384   0.360  1.5332  0.4826 -0.5981
   50MOL   H37128889   0.631   0.554   0.118 -0.9008  1.7141  0.4535
   50MOL   H37228890   0.717   0.406   0.132 -0.2247  0.9191 -1.0819
   50MOL   H37328891   0.769   0.666   0.299  0.1247 -0.6893  0.8797
   50MOL   H37428892   0.838   0.509   0.327  0.7551 -0.5836 -1.0539
   50MOL   H37528893   0.993   0.731   0.257 -0.5080  0.0441  0.1843
   50MOL   H37628894   1.042   0.520   0.319 -2.6338 -0.9730 -1.6739
   50MOL   H37728895   1.167   0.659   0.028 -0.2248  1.0933 -0.2078
   50MOL   H37828896   1.000   0.690   7.668  0.1197 -0.6152  0.2461
   50MOL   C37928897   1.153   0.903   7.651  0.2884  0.5185  0.0286
   50MOL   C38028898   1.154   1.052   7.669 -0.1739  0.0412  0.3299
   50MOL   O38128899   1.249   1.070   0.083  0.3475 -0.3385  0.4122
   50MOL   C38228900   1.192   1.124   7.541  0.4002  0.0684 -0.2930
   50MOL   O38328901   1.147   1.257   7.535  0.2806  0.1992 -0.0498
   50MOL   C38428902   1.195   1.330   7.420  0.1372  0.1729 -0.2984
   50MOL   C38528903   1.121   1.458   7.410  0.2114  0.1579  0.2374
   50MOL   C38628904   1.145   1.545   7.288  0.2334  0.3737  0.2221
   50MOL   O38728905   1.262   1.631   7.312 -0.4977  0.7136 -0.2361
   50MOL   C38828906   1.273   1.730   7.211 -0.0666 -0.0636 -0.0217
   50MOL   O38928907   1.183   1.827   7.231 -0.0799 -0.3192 -0.6175
   50MOL   C39028908   1.405   1.803   7.209  0.2936 -0.0810 -0.1563
   50MOL   O39128909   1.420   1.881   7.089  0.2824  0.7650  0.3198
   50MOL   H39228910   1.105   0.872   7.558 -0.5683  0.6758  0.4144
   50MOL   H39328911   1.256   0.869   7.640 -0.5941 -1.8617 -1.2781
   50MOL   H39428912   1.055   1.092   7.690 -0.6483 -0.8826 -0.0814
   50MOL   H39528913   1.260   0.987   0.125 -0.3417 -1.0711 -0.8195
   50MOL   H39628914   1.301   1.120   7.533  0.6167  0.5458  2.0645
   50MOL   H39728915   1.133   1.073   7.464 -0.8058  2.2971 -0.8779
   50MOL   H39828916   1.173   1.275   7.329 -0.0855 -2.8413  1.4897
   50MOL   H39928917   1.304   1.342   7.424  0.5494 -2.6088 -1.7452
   50MOL   H40028918   1.136   1.521   7.498  0.9081 -1.1642  1.0944
   50MOL   H40128919   1.016   1.430   7.414 -0.5565  2.6653 -1.4135
   50MOL   H40228920   1.162   1.470   7.211  0.1055 -1.0298  1.5492
   50MOL   H40328921   1.069   1.621   7.270 -0.0731 -0.0502 -0.2854
   50MOL   H40428922   1.251   1.685   7.114 -0.2824  0.0136 -0.0109
   50MOL   H40528923   1.209   1.892   7.167 -2.1005 -0.6728 -1.8377
   50MOL   H40628924   1.412   1.859   7.302  0.2346  2.7637 -1.7898
   50MOL   H40728925   1.481   1.725   7.208 -1.1707 -1.5410 -0.2956
   50MOL   C40828926   1.546   1.947   7.089 -0.0821 -0.3128 -0.2972
   50MOL   C40928927   1.669   1.869   7.028  1.0255 -0.3005 -0.3277
   50MOL   O41028928   1.782   1.957   7.019 -0.0206 -0.6377  0.1847
   50MOL   C41128929   1.649   1.828   6.881 -0.1936 -0.1828 -0.7036
   50MOL   O41228930   1.771   1.759   6.832  0.1022  0.2610  0.5339
   50MOL   C41328931   1.782   1.758   6.693  0.4255  0.6724 -0.9993
   50MOL   C41428932   1.921   1.700   6.653 -0.3635 -0.5865  0.0236
   50MOL   C41528933   2.027   1.809   6.650 -0.3882 -0.2956  0.6173
   50MOL   O41628934   2.149   1.745   6.603 -0.4403  0.0633  0.5766
   50MOL   C41728935   2.243   1.835   6.556  0.5565  0.0792 -0.0214
   50MOL   O41828936   2.199   1.906   6.440 -0.5708  0.5149  0.5518
   50MOL   C41928937   2.372   1.751   6.522  0.2094 -0.7758  0.4943
   50MOL   O42028938   2.439   1.717   6.641  0.2952  0.0319 -0.0050
   50MOL   H42128939   1.575   1.985   7.187 -0.6539  0.3722 -0.3963
   50MOL   H42228940   1.527   2.040   7.035  0.2975 -0.5522 -0.8480
   50MOL   H42328941   1.691   1.788   7.098  0.3814 -1.6981 -1.6802
   50MOL   H42428942   1.838   1.904   6.964  0.4488 -1.9205  1.8348
   50MOL   H42528943   1.563   1.761   6.887 -0.7744  0.5855 -0.3599
   50MOL   H42628944   1.609   1.913   6.826 -2.0995 -0.8386 -0.3771
   50MOL   H42728945   1.700   1.698   6.656  0.1818  0.2876  0.1327
   50MOL   H42828946   1.780   1.856   6.646 -0.0591  1.1299 -0.0477
   50MOL   H42928947   1.904   1.660   6.553 -0.8486  0.3100 -0.2627
   50MOL   H43028948   1.956   1.619   6.716  0.5196  0.0415  0.3521
   50MOL   H43128949   1.983   1.873   6.572 -2.2803 -1.4485  0.7161
   50MOL   H43228950   2.035   1.865   6.743  0.7564 -0.3406  0.5438
   50MOL   H43328951   2.272   1.903   6.637 -0.0873  0.8339 -0.4210
   50MOL   H43428952   2.262   1.882   6.374 -1.8000  1.2472 -0.9345
   50MOL   H43528953   2.339   1.675   6.450 -0.0565 -0.2745  0.0866
   50MOL   H43628954   2.429   1.830   6.474 -0.2783 -0.9628 -0.4037
   50MOL   C43728955   2.553   1.645   6.619  0.3017 -0.5775 -0.3272
   50MOL   C43828956   2.642   1.650   6.745  0.0723 -0.0558 -0.7775
   50MOL   O43928957   2.570   1.585   6.847 -0.1063  0.9389  0.4000
   50MOL   C44028958   2.675   1.792   6.784  0.2119  0.8339 -0.2607
   50MOL   O44128959   2.730   1.867   6.678  0.0208 -0.1012  0.3021
   50MOL   C44228960   2.772   1.999   6.702 -0.3303  0.6564 -0.7284
   50MOL   C44328961   2.652   2.097   6.688  0.0212 -0.0552  0.2318
   50MOL   C44428962   2.615   2.099   6.539  0.3444  0.1047 -0.3629
   50MOL   O44528963   2.499   2.193   6.533 -0.5998 -0.0096 -0.1197
   50MOL   C44628964   2.427   2.199   6.412 -0.2082 -0.1130 -0.1826
   50MOL   O44728965   2.512   2.219   6.300 -0.4797  0.0463 -0.3168
   50MOL   C44828966   2.305   2.296   6.423 -0.1096 -0.3602 -0.8834
   50MOL   O44928967   2.352   2.416   6.480 -0.0310  0.4213  0.3259
   50MOL   H45028968   2.520   1.544   6.593 -0.4555  0.4366 -3.5187
   50MOL   H45128969   2.608   1.683   6.533 -0.5391  2.1561  0.3126
   50MOL   H45228970   2.740   1.607   6.729  1.1457  1.6847  0.8648
   50MOL   H45328971   2.483   1.622   6.840 -1.6454 -2.4828  0.3348
   50MOL   H45428972   2.591   1.845   6.828 -0.6858  0.4985 -1.5759
   50MOL   H45528973   2.739   1.796   6.873 -0.2037  1.7624  0.0058
   50MOL   H45628974   2.866   2.027   6.657  1.0236 -0.6009  1.2369
   50MOL   H45728975   2.802   1.998   6.807 -2.2468 -1.5969 -0.1602
   50MOL   H45828976   2.686   2.196   6.718  0.9160 -0.7067  1.4248
   50MOL   H45928977   2.578   2.065   6.762  1.5750 -0.1406  1.7810
   50MOL   H46028978   2.694   2.138   6.475  0.1017  0.3302 -0.5190
   50MOL   H46128979   2.586   2.001   6.500 -2.4034  0.8791 -0.3428
   50MOL   H46228980   2.391   2.097   6.406  1.0148 -0.5021 -0.9815
   50MOL   H46328981   2.556   2.302   6.307  0.5843 -0.3388 -2.2725
   50MOL   H46428982   2.259   2.314   6.325  1.4177  1.9006 -1.2411
   50MOL   H46528983   2.227   2.254   6.485  0.1368  0.7834  0.2219
   50MOL   C46628984   2.401   2.510   6.388  0.3133  0.3677 -0.8996
   50MOL   C46728985   2.486   2.606   6.478  0.1388 -0.1934 -0.6088
   50MOL   O46828986   2.593   2.539   6.533  0.0569  0.5557  0.1702
   50MOL   C46928987   2.540   2.734   6.397 -0.3899 -0.5373  0.6139
   50MOL   O47028988   2.590   2.685   6.278  0.1895 -0.0472  0.3770
   50MOL   C47128989   2.573   2.774   6.167 -0.1491  0.1645 -0.0955
   50MOL   C47228990   2.661   2.903   6.176  1.1165 -0.1724 -0.3641
   50MOL   C47328991   2.641   2.979   6.043  0.1805  0.3403 -0.2286
   50MOL   O47428992   2.712   3.099   6.041 -0.5597  0.0681 -0.9864
   50MOL   C47528993   2.810   3.115   5.936  0.3832 -0.6805  0.2097
   50MOL   O47628994   2.750   3.101   5.807  0.6448  0.2510 -0.0703
   50MOL   C47728995   2.926   3.015   5.951 -0.4103  0.3906 -0.1926
   50MOL   O47828996   3.002   3.047   6.056 -0.2630  0.7234  0.1953
   50MOL   H47928997   2.321   2.575   6.352 -2.0468 -1.3118  1.2046
   50MOL   H48028998   2.452   2.466   6.303  0.4141  0.9953 -1.1714
   50MOL   H48128999   2.430   2.638   6.565  0.1477 -2.9517  0.4488
   50MOL   H48229000   2.553   2.457   6.557 -2.8501  1.6418 -0.7488
   50MOL   H48329001   2.448   2.787   6.373 -0.3858 -1.7051 -2.2107
   50MOL   H48429002   2.615   2.799   6.441 -0.7185  1.7211 -2.0452
   50MOL   H48529003   2.468   2.783   6.139 -0.1408 -1.2312 -0.6259
   50MOL   H48629004   2.608   2.715   6.083  1.9227  1.4714 -0.1828
   50MOL   H48729005   2.768   2.882   6.185  0.6714 -2.1336  0.6272
   50MOL   H48829006   2.631   2.967   6.259  4.3887  1.8865 -0.6940
   50MOL   H48929007   2.649   2.912   5.957 -2.0784  2.6935 -2.3430
   50MOL   H49029008   2.536   3.009   6.044 -0.6092 -2.1321 -2.3048
   50MOL   H49129009   2.846   3.217   5.933 -0.2499 -0.4267  1.0116
   50MOL   H49229010   2.713   3.015   5.796 -0.4297  0.7805 -0.6383
   50MOL   H49329011   2.888   2.913   5.962 -0.7534  0.5008 -0.3652
   50MOL   H49429012   2.994   3.021   5.865  2.2162 -0.8816  1.7161
   50MOL   C49529013   3.123   2.963   6.059 -0.0365 -0.2765 -0.0764
   50MOL   C49629014   3.210   2.997   6.180  0.5172  0.4936 -0.1514
   50MOL   O49729015   3.326   2.915   6.199 -0.5871 -0.2614 -0.5247
   50MOL   C49829016   3.266   3.143   6.161 -0.3661 -0.3381 -0.5538
   50MOL   O49929017   3.326   3.199   6.276 -0.4116 -0.0470  0.1037
   50MOL   C50029018   3.398   3.317   6.236  0.0910  0.3617 -0.1269
   50MOL   C50129019   3.406   3.414   6.359  0.8948  0.4058 -0.1676
   50MOL   C50229020   3.273   3.424   6.430 -0.3295 -0.1752  0.0946
   50MOL   O50329021   3.283   3.534   6.523 -0.4072  0.5057  0.4112
   50MOL   C50429022   3.174   3.555   6.601 -0.2128  0.4331  0.4332
   50MOL   O50529023   3.054   3.578   6.524 -0.4214  0.5368 -0.1462
   50MOL   C50629024   3.205   3.680   6.687 -0.1191  0.5606  0.0832
   50MOL   O50729025   3.297   3.654   6.795  0.1135  0.3514  1.2930
   50MOL   H50829026   3.183   2.976   5.969  0.0888 -2.4595 -0.3430
   50MOL   H50929027   3.107   2.855   6.063 -1.9115 -0.0065  0.0892
   50MOL   H51029028   3.147   2.997   6.269 -0.3281 -0.6961 -0.7353
   50MOL   H51129029   3.374   2.947   6.274 -0.0424 -0.9055 -0.5972
   50MOL   H51229030   3.334   3.149   6.075 -0.8887  2.9430 -0.7760
   50MOL   H51329031   3.182   3.210   6.144 -0.2925  0.6047  2.5224
   50MOL   H51429032   3.349   3.372   6.156 -0.1158 -2.3474 -1.9323
   50MOL   H51529033   3.495   3.285   6.198 -0.8061 -1.7472 -0.7596
   50MOL   H51629034   3.426   3.512   6.316 -1.3058  0.8156 -0.3208
   50MOL   H51729035   3.483   3.370   6.422 -0.0958  0.2419  0.9462
   50MOL   H51829036   3.193   3.443   6.359 -0.7358 -1.9988  0.0554
   50MOL   H51929037   3.256   3.335   6.491  0.7338  0.1469  0.8782
   50MOL   H52029038   3.150   3.471   6.667 -0.7549  1.2743  1.3133
   50MOL   H52129039   3.074   3.658   6.478  3.8681 -0.9135 -1.1193
   50MOL   H52229040   3.250   3.747   6.614 -0.5186 -0.5039 -1.1718
   50MOL   H52329041   3.120   3.732   6.728 -0.4835  0.1418 -0.1341
   50MOL   C52429042   3.354   3.782   6.837 -0.3093 -0.3240 -0.1609
   50MOL   C52529043   3.420   3.764   6.985  0.2456  0.0722 -0.0560
   50MOL   O52629044   3.316   3.800   7.075  0.3462 -0.0466  0.0761
   50MOL   C52729045   3.525   3.877   7.018 -0.7505  0.4395  0.5007
   50MOL   O52829046   3.608   3.857   7.123 -0.6435  0.0740 -0.1796
   50MOL   C52929047   3.730   3.790   7.101  0.2293 -0.5671 -0.3299
   50MOL   C53029048   3.808   3.778   7.232 -0.0320  0.0098 -0.1987
   50MOL   C53129049   3.804   3.903   7.321  0.7406  0.5818 -0.2386
   50MOL   O53229050   3.872   3.877   7.440  0.2793  0.1837 -0.1002
   50MOL   C53329051   3.888   3.979   7.534 -0.2972  0.1656  1.0197
   50MOL   O53429052   3.761   4.031   7.569  0.2464 -0.3138  0.5354
   50MOL   C53529053   3.957   3.929   7.653  0.2916  0.4479  0.0178
   50MOL   O53629054   3.931   3.790   7.675 -0.1572 -0.0330 -0.1786
   50MOL   H53729055   3.281   3.861   6.817 -0.0413 -0.5740 -2.2278
   50MOL   H53829056   3.439   3.811   6.776 -0.8961  1.4215 -0.1639
   50MOL   H53929057   3.456   3.662   6.994  1.6623  0.6009  0.4563
   50MOL   H54029058   3.354   3.799   7.162 -0.8273  0.2750  0.5998
   50MOL   H54129059   3.587   3.892   6.929 -0.9114 -0.2979  0.2630
   50MOL   H54229060   3.476   3.974   7.025 -3.8759 -1.0964  0.8055
   50MOL   H54329061   3.784   3.852   7.030  2.5522  0.0431  1.9361
   50MOL   H54429062   3.711   3.700   7.042  2.5560 -0.6560 -0.9946
   50MOL   H54529063   3.912   3.749   7.216 -0.4820 -0.8821 -1.5749
   50MOL   H54629064   3.768   3.693   7.288  1.2795  0.2442  1.1314
   50MOL   H54729065   3.846   3.983   7.259 -0.9055 -0.5429 -2.8630
   50MOL   H54829066   3.702   3.936   7.343  0.0790 -0.2220 -2.0339
   50MOL   H54929067   3.939   4.065   7.491  0.7317 -1.3903 -0.9655
   50MOL   H55029068   3.706   3.968   7.611 -0.8014 -0.0516 -0.4300
   50MOL   H55129069   4.064   3.925   7.631  0.6684 -1.3789  2.0886
   50MOL   H55229070   3.940   3.982   0.052  1.1714  0.5169  0.1476
   50MOL   C55329071   3.809   3.768   0.051 -0.9285 -0.1714 -0.3243
   50MOL   C55429072   3.745   3.657   7.665  0.2608  0.7514  0.5101
   50MOL   O55529073   3.695   3.714   7.543  0.3598  0.2018  0.1923
   50MOL   C55629074   3.629   3.592   0.045  0.3710 -0.4544 -0.3321
   50MOL   O55729075   3.568   3.698   0.115 -0.1424 -0.1620 -0.5049
   50MOL   C55829076   3.444   3.665   0.177 -0.7629  0.0961  0.1504
   50MOL   C55929077   3.396   3.779   0.263  0.0158 -0.2925 -0.3501
   50MOL   C56029078   3.272   3.759   0.352  1.0222 -0.8844  0.1071
   50MOL   O56129079   3.230   3.888   0.388 -0.3902 -0.2324  0.1495
   50MOL   C56229080   3.132   3.947   0.301  0.8884  0.4531  0.7574
   50MOL   O56329081   3.007   3.885   0.331  0.2015 -0.4752  0.0144
   50MOL   C56429082   3.124   4.097   0.334 -0.1636  0.1309  0.2062
   50MOL   O56529083   3.018   4.161   0.256 -0.4941  0.1285 -0.3796
   50MOL   H56629084   3.740   3.852   0.067  0.5393  0.5969  2.0391
   50MOL   H56729085   3.823   3.735   0.153 -0.1019 -0.8446 -0.6577
   50MOL   H56829086   3.810   3.573   7.639  0.1185  0.7082  0.2911
   50MOL   H56929087   3.761   3.765   7.500 -0.5356  0.5270 -0.8156
   50MOL   H57029088   3.561   3.536   7.675 -0.4469  0.2440 -0.0831
   50MOL   H57129089   3.689   3.525   0.106 -2.3402 -3.5036 -0.8910
   50MOL   H57229090   3.366   3.650   0.102 -2.5952  1.4060  1.7401
   50MOL   H57329091   3.468   3.578   0.237 -2.1784  1.3748  2.6332
   50MOL   H57429092   3.371   3.855   0.189 -1.6567  0.1446  0.6463
   50MOL   H57529093   3.478   3.809   0.329 -1.1202 -0.2428  1.0527
   50MOL   H57629094   3.207   3.694   0.293 -0.6603  1.7618 -1.0484
   50MOL   H57729095   3.306   3.704   0.440 -0.8137 -0.6929  0.9511
   50MOL   H57829096   3.156   3.931   0.196 -0.4821 -0.9430  0.6335
   50MOL   H57929097   2.954   3.898   0.255 -3.1954 -1.0792  2.1884
   50MOL   H58029098   3.085   4.112   0.435  1.2873 -1.4134  1.0138
   50MOL   H58129099   3.218   4.145   0.308  1.1632 -2.4412  0.0605
   50MOL   H58229100   3.036   4.142   0.165  0.8679  0.9822 -0.3033
   51MOL     C129101   4.296   1.055   2.242 -0.8293 -0.0781 -0.3639
   51MOL     C229102   4.409   1.117   2.155  0.5231 -0.4018 -0.2751
   51MOL     O329103   4.393   1.097   2.016 -0.2135  0.5557 -0.3226
   51MOL     C429104   4.419   1.269   2.166  0.1377  0.8804 -0.7818
   51MOL     O529105   4.408   1.302   2.305  0.1723 -0.4028  0.1748
   51MOL     C629106   4.442   1.433   2.339 -0.2400  0.1354 -0.0766
   51MOL     C729107   4.588   1.438   2.394  0.2684 -0.4265  0.8477
   51MOL     C829108   4.628   1.585   2.409 -0.0658  0.1936 -0.5370
   51MOL     O929109   4.774   1.598   2.416 -0.3451  0.1361 -0.0629
   51MOL    C1029110   4.824   1.576   2.544  0.3154  0.4296  0.0835
   51MOL    O1129111   4.793   1.665   2.637  0.3045  0.6331 -0.7884
   51MOL    C1229112   4.984   1.576   2.535  0.3349 -0.3196  0.9154
   51MOL    O1329113   5.022   1.707   2.493 -0.0388 -0.3445 -0.1148
   51MOL    H1429114   4.286   0.949   2.219  1.1525 -0.0996 -1.2059
   51MOL    H1529115   4.201   1.103   2.217 -1.2357 -0.6464  0.0648
   51MOL    H1629116   4.506   1.076   2.185 -0.0101 -0.5384  1.2843
   51MOL    H1729117   4.332   1.161   1.981 -1.1802 -0.1205  0.1189
   51MOL    H1829118   4.518   1.308   2.141 -0.0251  1.7662 -0.0625
   51MOL    H1929119   4.337   1.314   2.109 -1.3598 -3.1015 -1.9590
   51MOL    H2029120   4.373   1.466   2.416  1.4379  0.6715  1.2422
   51MOL    H2129121   4.438   1.498   2.252 -0.8139 -0.1478 -0.2630
   51MOL    H2229122   4.651   1.391   2.318  0.1297  1.0026 -0.1898
   51MOL    H2329123   4.588   1.376   2.483 -3.8004  0.2980  1.4488
   51MOL    H2429124   4.616   1.628   2.310  1.1916  3.7552  0.8040
   51MOL    H2529125   4.571   1.636   2.487 -0.5723 -0.4481 -0.4777
   51MOL    H2629126   4.790   1.474   2.564 -0.1120  0.2311 -1.5622
   51MOL    H2729127   4.838   1.746   2.621  1.2727  0.3055  0.2170
   51MOL    H2829128   5.031   1.562   2.633  0.1890 -4.3099  0.4854
   51MOL    H2929129   5.008   1.496   2.465 -1.2915 -1.0893  1.2180
   51MOL    H3029130   4.310   1.072   2.348  0.4815 -0.8820 -0.4025
   51MOL    C3129131   5.045   1.715   2.351 -0.7324 -0.0316 -0.8970
   51MOL    C3229132   5.077   1.855   2.303 -0.4475 -0.2222 -0.5920
   51MOL    O3329133   5.188   1.897   2.386  0.5492 -0.0513  0.0770
   51MOL    C3429134   4.953   1.944   2.325  0.8531 -0.5678 -0.0807
   51MOL    O3529135   4.961   2.042   2.217  0.3712 -0.2378 -0.6432
   51MOL    C3629136   4.892   2.003   2.099  0.1028 -0.3966  0.2135
   51MOL    C3729137   4.933   2.096   1.983 -0.2536 -0.4822 -0.5444
   51MOL    C3829138   4.899   2.245   1.996 -0.0972 -0.5427 -0.0751
   51MOL    O3929139   4.980   2.324   1.903 -0.1953 -0.0861  0.0553
   51MOL    C4029140   4.954   2.465   1.906  0.2815 -0.5685  0.0607
   51MOL    O4129141   4.822   2.494   1.866  0.5541  0.3191 -0.6375
   51MOL    C4229142   5.051   2.530   1.810 -0.2420  0.0091  0.4581
   51MOL    O4329143   5.178   2.521   1.860 -0.1272 -0.4362  0.0472
   51MOL    H4429144   5.135   1.661   2.321 -0.2091  0.1296  0.3205
   51MOL    H4529145   4.963   1.671   2.295 -0.7549 -1.1144 -0.0280
   51MOL    H4629146   5.103   1.836   2.199 -2.0231  1.1783 -1.2521
   51MOL    H4729147   5.189   1.836   2.458 -2.2602 -0.2653 -0.0085
   51MOL    H4829148   4.856   1.896   2.316  1.0558 -0.9985 -0.0094
   51MOL    H4929149   4.967   1.993   2.421 -0.9420 -2.5074  1.1896
   51MOL    H5029150   4.786   2.026   2.109 -0.3088 -1.2006 -1.8922
   51MOL    H5129151   4.920   1.901   2.069  0.7003 -0.4903  1.0659
   51MOL    H5229152   4.880   2.057   1.897  1.2182 -1.5028 -1.0111
   51MOL    H5329153   5.040   2.085   1.963  0.3902  1.6887  1.3924
   51MOL    H5429154   4.795   2.258   1.963 -0.1661  0.5793  0.5439
   51MOL    H5529155   4.912   2.274   2.100 -2.4031 -0.2403  0.1614
   51MOL    H5629156   4.971   2.506   2.005 -2.1290 -1.3979  0.8574
   51MOL    H5729157   4.823   2.511   1.773 -0.5159  1.2370 -0.4913
   51MOL    H5829158   5.039   2.479   1.715  0.4290 -1.6933  1.2688
   51MOL    H5929159   5.031   2.637   1.796  1.3789  0.4916  1.6903
   51MOL    C6029160   5.282   2.570   1.774  0.4591  0.5608  0.2990
   51MOL    C6129161   5.407   2.575   1.863 -0.9377  0.2512  0.4595
   51MOL    O6229162   5.445   2.450   1.915 -0.2956 -0.5244 -0.2106
   51MOL    C6329163   5.388   2.677   1.975 -0.1042  0.6953 -0.5908
   51MOL    O6429164   5.499   2.766   1.976  0.0748 -0.6681  0.0926
   51MOL    C6529165   5.475   2.867   1.874  0.1602 -0.1188 -0.2366
   51MOL    C6629166   5.569   2.982   1.902 -0.0892 -0.0378 -0.1590
   51MOL    C6729167   5.589   3.067   1.783 -0.7825  0.0965  0.2363
   51MOL    O6829168   5.678   3.176   1.811 -0.2020  0.8379 -0.2014
   51MOL    C6929169   5.692   3.272   1.705  0.0079  0.4201  0.0032
   51MOL    O7029170   5.584   3.362   1.685  0.3831  0.8865 -0.8015
   51MOL    C7129171   5.819   3.361   1.729  0.2119  0.6779 -0.2497
   51MOL    O7229172   5.928   3.306   1.662  0.0732  0.2715 -0.1976
   51MOL    H7329173   5.272   2.672   1.737  1.4775 -0.5776 -3.2901
   51MOL    H7429174   5.281   2.498   1.692  3.0474 -1.5479  2.0279
   51MOL    H7529175   5.487   2.612   1.799 -1.2041 -0.3491 -0.2308
   51MOL    H7629176   5.373   2.422   1.971 -0.1693 -0.2803  0.0746
   51MOL    H7729177   5.294   2.730   1.963 -0.0249  1.0555  0.3633
   51MOL    H7829178   5.386   2.620   2.067 -3.9966 -1.4906 -1.9362
   51MOL    H7929179   5.374   2.907   1.876  0.0182 -0.4587 -0.5639
   51MOL    H8029180   5.502   2.827   1.776 -2.8661 -0.8630 -0.8280
   51MOL    H8129181   5.663   2.946   1.943  1.0654  0.8066 -2.0175
   51MOL    H8229182   5.521   3.035   1.985  0.2885  0.0151  0.0247
   51MOL    H8329183   5.492   3.102   1.747  0.0018  0.9855 -1.0975
   51MOL    H8429184   5.624   3.000   1.705 -1.6607 -1.4120  1.1149
   51MOL    H8529185   5.702   3.219   1.611 -0.8337 -1.4159  0.9186
   51MOL    H8629186   5.597   3.430   1.749 -0.4410 -0.4952  0.8661
   51MOL    H8729187   5.800   3.456   1.679  0.9068  0.7463 -0.3847
   51MOL    H8829188   5.825   3.387   1.835  0.2138 -0.6035  0.0739
   51MOL    C8929189   6.053   3.378   1.668 -0.3340  0.2649  0.2154
   51MOL    C9029190   6.181   3.292   1.617  0.0207 -0.4873 -0.5524
   51MOL    O9129191   6.253   3.245   1.735 -0.2680 -0.0131  0.8009
   51MOL    C9229192   6.123   3.176   1.541  0.0516  0.8601  0.0306
   51MOL    O9329193   6.240   3.097   1.495 -0.6358 -0.6083  0.1046
   51MOL    C9429194   6.207   2.979   1.421  0.7859  0.1570  0.1610
   51MOL    C9529195   6.115   2.880   1.478 -0.2888 -0.0421 -0.4588
   51MOL    C9629196   6.118   2.750   1.405  0.6945  0.7289  0.2150
   51MOL    O9729197   6.039   2.643   1.467 -0.2652 -0.4834 -0.3156
   51MOL    C9829198   5.970   2.563   1.382  0.3281 -0.1992  0.1178
   51MOL    O9929199   6.062   2.504   1.284 -0.0180  0.3070 -0.4892
   51MOL   C10029200   5.899   2.448   1.464  0.6549 -0.1808  0.6681
   51MOL   O10129201   5.782   2.397   1.396 -0.0637  0.8963  0.0793
   51MOL   H10229202   6.063   3.405   1.773 -0.1205 -0.8137  0.4842
   51MOL   H10329203   6.057   3.463   1.600 -0.0196  1.4071  1.6518
   51MOL   H10429204   6.249   3.353   1.557  1.1764  0.0672  1.2839
   51MOL   H10529205   6.213   3.184   1.796  0.8945 -1.3585  0.2405
   51MOL   H10629206   6.054   3.119   1.603 -0.0551 -0.4138 -1.2284
   51MOL   H10729207   6.065   3.213   1.457  0.1308  0.6196 -0.1311
   51MOL   H10829208   6.305   2.943   1.390  0.6006  0.2235 -0.4946
   51MOL   H10929209   6.159   3.019   1.332  2.1518  0.5463 -0.4199
   51MOL   H11029210   6.011   2.911   1.488 -0.7381 -1.8364  0.8551
   51MOL   H11129211   6.145   2.860   1.582 -0.7056 -0.6451 -0.4498
   51MOL   H11229212   6.080   2.768   1.304  0.5349 -1.2134 -0.0756
   51MOL   H11329213   6.220   2.719   1.386  0.4740  0.9033 -1.2938
   51MOL   H11429214   5.894   2.621   1.330 -1.0044 -0.8963  1.2233
   51MOL   H11529215   6.012   2.443   1.231  1.3649 -2.5848  1.4194
   51MOL   H11629216   5.975   2.376   1.493  1.4699  0.1458 -0.6225
   51MOL   H11729217   5.873   2.491   1.560  2.4915  1.1580  0.6008
   51MOL   C11829218   5.658   2.452   1.448 -0.4970  0.1746 -0.1581
   51MOL   C11929219   5.639   2.606   1.466 -0.3606 -0.2899  0.2928
   51MOL   O12029220   5.678   2.655   1.597 -0.2665  0.2471 -0.2585
   51MOL   C12129221   5.497   2.651   1.446 -0.3596  0.2250 -0.2919
   51MOL   O12229222   5.492   2.778   1.382  0.9052  0.1061  0.0721
   51MOL   C12329223   5.388   2.858   1.432 -0.5834  0.3198  0.5709
   51MOL   C12429224   5.398   2.995   1.367 -0.1203 -0.2374 -0.5198
   51MOL   C12529225   5.293   3.094   1.424 -0.0310  0.2805 -0.0785
   51MOL   O12629226   5.345   3.159   1.538  0.0829  0.0018  0.0401
   51MOL   C12729227   5.264   3.262   1.584 -0.3055 -0.0181 -0.1232
   51MOL   O12829228   5.330   3.383   1.552 -0.3932 -0.3439 -0.4783
   51MOL   C12929229   5.239   3.247   1.738 -0.2021  0.0767  0.0388
   51MOL   O13029230   5.195   3.115   1.763  0.3843 -0.3814 -0.4284
   51MOL   H13129231   5.576   2.405   1.392  0.2056 -0.3788 -0.7247
   51MOL   H13229232   5.654   2.403   1.545 -3.5292  2.9451  1.2340
   51MOL   H13329233   5.696   2.662   1.392 -2.7880  2.8272  0.6495
   51MOL   H13429234   5.697   2.588   1.660  0.8123  0.4929 -0.3006
   51MOL   H13529235   5.432   2.577   1.399 -0.5410 -0.0511  0.3909
   51MOL   H13629236   5.450   2.663   1.544  1.3212  0.2161  0.5289
   51MOL   H13729237   5.387   2.854   1.541 -0.5083  1.5714  0.6264
   51MOL   H13829238   5.295   2.818   1.391  0.4735  0.1775 -1.7652
   51MOL   H13929239   5.397   2.979   1.259  0.6059  2.3901 -0.9345
   51MOL   H14029240   5.499   3.031   1.387 -0.0390 -1.5314  1.5838
   51MOL   H14129241   5.291   3.178   1.354  0.9485 -0.9430 -1.5919
   51MOL   H14229242   5.196   3.048   1.441  0.0159  0.0124 -0.5372
   51MOL   H14329243   5.166   3.252   1.537 -0.5517 -1.6015  0.6860
   51MOL   H14429244   5.420   3.376   1.582  0.1996  3.5250 -1.0617
   51MOL   H14529245   5.339   3.262   1.780  0.5531 -1.8719 -0.9439
   51MOL   H14629246   5.162   3.314   1.774  1.0932  2.6367 -1.8411
   51MOL   C14729247   5.153   3.107   1.905 -0.8136 -0.1188  0.7325
   51MOL   C14829248   5.099   2.972   1.940  0.1813  0.7389 -0.2765
   51MOL   O14929249   4.960   2.958   1.931 -0.9192  0.6779  0.3142
   51MOL   C15029250   5.130   2.966   2.099  0.1909 -0.3461  0.2650
   51MOL   O15129251   5.118   2.829   2.141  0.6160 -0.0848  0.1471
   51MOL   C15229252   5.119   2.826   2.287 -0.1259  0.5622 -0.0274
   51MOL   C15329253   5.094   2.681   2.338  0.4085 -0.4012 -0.5113
   51MOL   C15429254   5.183   2.579   2.274  0.0755 -0.0620 -0.3899
   51MOL   O15529255   5.139   2.454   2.314 -0.3191 -0.1816 -0.2299
   51MOL   C15629256   5.234   2.350   2.306  0.4739 -0.3513  0.1751
   51MOL   O15729257   5.234   2.302   2.175 -0.3176 -0.4825  0.3777
   51MOL   C15829258   5.201   2.236   2.406 -0.8541 -0.0171 -0.7257
   51MOL   O15929259   5.248   2.267   2.535 -0.0494  0.5006  0.1143
   51MOL   H16029260   5.083   3.188   1.919 -1.4459 -0.1265 -2.0776
   51MOL   H16129261   5.247   3.130   1.956  2.1162 -1.0362 -3.9346
   51MOL   H16229262   5.145   2.896   1.877  2.5553  0.8160  1.3252
   51MOL   H16329263   4.930   2.879   1.972 -2.1485  0.5918 -0.7252
   51MOL   H16429264   5.226   3.011   2.122 -0.1068  0.3637  0.1642
   51MOL   H16529265   5.060   3.040   2.139  0.0910 -1.1082  1.5126
   51MOL   H16629266   5.030   2.885   2.309 -0.2470  1.1355 -2.0255
   51MOL   H16729267   5.205   2.877   2.331  1.9419 -1.6342 -1.3784
   51MOL   H16829268   4.992   2.645   2.324  0.2871 -0.8374  1.4179
   51MOL   H16929269   5.110   2.679   2.445 -0.5174 -0.3670 -0.3695
   51MOL   H17029270   5.181   2.586   2.166 -1.9414 -1.4475 -0.4736
   51MOL   H17129271   5.280   2.596   2.319  1.1834 -1.8056 -2.0706
   51MOL   H17229272   5.328   2.401   2.327  0.7492 -1.5360  1.9798
   51MOL   H17329273   5.161   2.243   2.161  0.1761 -1.1258  0.4439
   51MOL   H17429274   5.099   2.201   2.401 -1.1024  0.5883 -0.0967
   51MOL   H17529275   5.260   2.151   2.372 -1.1042 -0.3249 -0.3997
   51MOL   C17629276   5.150   2.327   2.614  0.2102  0.0800 -0.8724
   51MOL   C17729277   5.191   2.337   2.756 -0.5779  0.0108 -0.9989
   51MOL   O17829278   5.087   2.408   2.812 -0.2383 -0.1567 -0.1031
   51MOL   C17929279   5.312   2.422   2.810  0.4972 -0.1218 -0.2639
   51MOL   O18029280   5.300   2.546   2.742  0.1493 -0.8132  0.6081
   51MOL   C18129281   5.405   2.628   2.786 -0.4580 -0.0018 -0.2375
   51MOL   C18229282   5.474   2.714   2.677  0.0417 -0.3468 -0.4086
   51MOL   C18329283   5.561   2.621   2.587 -0.4246  0.4195  0.6400
   51MOL   O18429284   5.640   2.693   2.489 -0.0022 -0.3213  0.7761
   51MOL   C18529285   5.573   2.735   2.368 -1.0648 -0.0811 -0.2517
   51MOL   O18629286   5.581   2.637   2.275 -0.5262 -0.0833  0.0014
   51MOL   C18729287   5.644   2.864   2.324 -0.4261 -0.2747  0.5489
   51MOL   O18829288   5.789   2.858   2.338 -0.0058  0.3471  0.2311
   51MOL   H18929289   5.055   2.273   2.609  0.4744 -0.5963  1.2020
   51MOL   H19029290   5.127   2.426   2.572 -1.5619 -1.3188 -3.3317
   51MOL   H19129291   5.195   2.238   2.802  0.6747  0.7049  0.4543
   51MOL   H19229292   5.108   2.500   2.821  0.2821 -0.1367 -1.4775
   51MOL   H19329293   5.325   2.436   2.917  0.2672 -0.5582 -0.1788
   51MOL   H19429294   5.409   2.381   2.780  0.4277 -1.1542  0.8856
   51MOL   H19529295   5.486   2.583   2.845  0.0304  1.2876  0.0876
   51MOL   H19629296   5.347   2.698   2.847 -0.0637  1.5808 -1.6556
   51MOL   H19729297   5.530   2.794   2.725 -0.2641 -1.4887  1.9282
   51MOL   H19829298   5.397   2.765   2.619  0.0116 -0.1566 -0.2033
   51MOL   H19929299   5.631   2.565   2.650 -1.2133 -0.4766  0.7368
   51MOL   H20029300   5.498   2.544   2.541 -0.7595  1.3456 -0.4532
   51MOL   H20129301   5.467   2.756   2.382 -1.3469 -1.4141 -0.3647
   51MOL   H20229302   5.649   2.664   2.215 -0.1955 -1.0130 -0.0603
   51MOL   H20329303   5.605   2.882   2.225  0.7540  2.1300  0.4895
   51MOL   H20429304   5.611   2.935   2.400 -0.0447  0.3978  0.0917
   51MOL   C20529305   5.850   2.954   2.427  0.3374  0.3795 -0.0168
   51MOL   C20629306   6.001   2.957   2.411 -0.8113 -0.4315 -0.0467
   51MOL   O20729307   6.050   3.031   2.522  0.3193 -0.1085 -0.1327
   51MOL   C20829308   6.068   2.814   2.428 -0.0761  0.3770 -0.4169
   51MOL   O20929309   6.207   2.811   2.398 -0.2645  0.0543 -0.1719
   51MOL   C21029310   6.268   2.694   2.436 -0.5881 -0.1754  0.1062
   51MOL   C21129311   6.414   2.698   2.388 -0.4130  0.0963 -0.6715
   51MOL   C21229312   6.493   2.572   2.430  0.9279 -0.2003 -0.2807
   51MOL   O21329313   6.448   2.476   2.328  0.3743  0.1742  0.7268
   51MOL   C21429314   6.522   2.374   2.282  0.5258  0.5065 -0.5090
   51MOL   O21529315   6.647   2.418   2.224  0.2182 -0.5453 -0.5229
   51MOL   C21629316   6.437   2.304   2.172 -0.1691 -0.7092  0.2085
   51MOL   O21729317   6.319   2.249   2.236  0.4813 -0.2006 -0.0925
   51MOL   H21829318   5.816   2.930   2.528 -0.2426 -1.7388 -0.6818
   51MOL   H21929319   5.819   3.054   2.398  0.9008  0.2671 -1.0409
   51MOL   H22029320   6.029   3.003   2.316 -0.1002  1.4721  1.0569
   51MOL   H22129321   6.011   3.006   2.605 -0.6417 -0.8349 -0.7983
   51MOL   H22229322   6.050   2.777   2.529 -0.0042 -1.2413 -0.9879
   51MOL   H22329323   6.015   2.739   2.369 -0.8321  0.6575 -0.0967
   51MOL   H22429324   6.231   2.608   2.381  0.9252 -1.3903  0.9640
   51MOL   H22529325   6.253   2.682   2.543 -0.9576  2.7270  0.4405
   51MOL   H22629326   6.472   2.778   2.431 -0.5843  0.1047 -0.4528
   51MOL   H22729327   6.423   2.710   2.280  1.3324 -1.2704 -0.6984
   51MOL   H22829328   6.599   2.591   2.411  0.6729  2.0235  0.3642
   51MOL   H22929329   6.469   2.531   2.528 -0.9369  2.4523  0.4259
   51MOL   H23029330   6.551   2.304   2.360 -1.5843 -2.6488 -2.4215
   51MOL   H23129331   6.620   2.470   2.151 -0.5081  1.0995  0.8793
   51MOL   H23229332   6.405   2.380   2.101 -1.3665 -1.1857  0.2213
   51MOL   H23329333   6.505   2.233   2.125  1.7923  0.5243  1.1136
   51MOL   C23429334   6.211   2.218   2.142  0.4270  0.6276 -0.0421
   51MOL   C23529335   6.076   2.221   2.213 -0.0910 -0.2339  0.0811
   51MOL   O23629336   5.971   2.201   2.119  0.5467  0.1432 -0.2292
   51MOL   C23729337   6.043   2.361   2.279 -0.1311  0.5496  0.0246
   51MOL   O23829338   5.913   2.358   2.333 -0.2233  0.1419  0.0507
   51MOL   C23929339   5.885   2.470   2.403  0.1963 -0.0488 -0.5551
   51MOL   C24029340   5.943   2.468   2.544 -0.2996  0.1589  0.1302
   51MOL   C24129341   5.865   2.357   2.622 -0.2967  0.4784 -0.8502
   51MOL   O24229342   5.906   2.323   2.755  0.2399  0.2364 -0.0724
   51MOL   C24329343   5.816   2.248   2.829 -0.0894 -0.4525  0.1737
   51MOL   O24429344   5.690   2.311   2.861  0.0477  0.2757  0.1794
   51MOL   C24529345   5.889   2.211   2.962  0.1284  0.4666 -0.3441
   51MOL   O24629346   5.910   2.326   3.053 -0.0595 -0.1401  0.1497
   51MOL   H24729347   6.211   2.291   2.060  2.0070  1.0524  0.3195
   51MOL   H24829348   6.218   2.119   2.097 -3.0209  0.1111  0.4670
   51MOL   H24929349   6.061   2.144   2.288  0.4677 -1.0817 -0.6600
   51MOL   H25029350   5.894   2.240   2.159  1.4320  1.7505 -0.0442
   51MOL   H25129351   6.115   2.378   2.360 -1.1744  2.2487  0.6176
   51MOL   H25229352   6.050   2.438   2.203  0.0711 -0.1397 -0.6582
   51MOL   H25329353   5.778   2.493   2.411  0.1948  0.4628 -2.0185
   51MOL   H25429354   5.909   2.557   2.342  3.1138 -0.5157 -0.1319
   51MOL   H25529355   5.928   2.569   2.581 -1.3875  0.9034 -2.2298
   51MOL   H25629356   6.049   2.445   2.550 -0.3795 -0.8127 -1.6487
   51MOL   H25729357   5.761   2.387   2.638 -0.2672 -0.7752  2.2163
   51MOL   H25829358   5.862   2.266   2.562 -1.3110 -0.1718  0.1539
   51MOL   H25929359   5.799   2.159   2.769  2.1509 -1.5459  1.0575
   51MOL   H26029360   5.623   2.244   2.859 -0.0256  0.3700 -0.4696
   51MOL   H26129361   5.836   2.132   3.015  1.0503  1.4823  2.1549
   51MOL   H26229362   5.978   2.162   2.922  1.1297  1.7170  0.3008
   51MOL   C26329363   5.903   2.296   3.189 -0.0487  0.1534 -0.0710
   51MOL   C26429364   5.930   2.416   3.282 -0.5211  0.0593 -0.1694
   51MOL   O26529365   5.933   2.373   3.421 -0.6515 -0.0284  0.1365
   51MOL   C26629366   6.064   2.471   3.252 -0.1924 -0.5956 -0.0060
   51MOL   O26729367   6.075   2.614   3.291 -0.2201 -0.2139  0.3199
   51MOL   C26829368   6.195   2.672   3.255  0.7456  0.2304 -0.0209
   51MOL   C26929369   6.173   2.823   3.264 -0.4370  0.5472 -0.0857
   51MOL   C27029370   6.309   2.888   3.246 -0.3842 -0.2730  0.4323
   51MOL   O27129371   6.304   3.029   3.281  0.1684  0.1465 -0.2046
   51MOL   C27229372   6.415   3.103   3.256 -1.0613  0.2375 -0.1162
   51MOL   O27329373   6.521   3.072   3.347 -0.2108  0.0785 -0.8234
   51MOL   C27429374   6.462   3.098   3.108  0.6021 -0.5470 -0.1299
   51MOL   O27529375   6.527   3.229   3.078  0.4985  0.2491 -0.0304
   51MOL   H27629376   5.987   2.231   3.212 -1.5587 -1.2929  1.4410
   51MOL   H27729377   5.813   2.240   3.215 -0.5508  0.9648 -0.0227
   51MOL   H27829378   5.861   2.500   3.270 -1.5604 -0.8328 -0.5108
   51MOL   H27929379   5.956   2.451   3.469 -1.5360  0.5449 -0.3634
   51MOL   H28029380   6.136   2.410   3.306 -0.0805 -3.8424 -3.6039
   51MOL   H28129381   6.084   2.463   3.145 -1.3549  0.5271 -0.3228
   51MOL   H28229382   6.226   2.645   3.154  0.8000  0.1317  0.0215
   51MOL   H28329383   6.274   2.646   3.326  0.3299  0.9664  0.7283
   51MOL   H28429384   6.137   2.842   3.365 -0.7288  3.2235 -0.6463
   51MOL   H28529385   6.095   2.869   3.204 -0.9907 -0.3238 -0.0377
   51MOL   H28629386   6.387   2.833   3.298 -0.9280 -0.2982  1.2170
   51MOL   H28729387   6.337   2.869   3.142  1.6985  1.6061  0.6069
   51MOL   H28829388   6.369   3.201   3.268 -1.3560  0.1035 -0.1561
   51MOL   H28929389   6.561   3.154   3.372  0.7443 -0.8072  0.6032
   51MOL   H29029390   6.523   3.008   3.100  2.1729  0.2033  2.7081
   51MOL   H29129391   6.382   3.087   3.035  0.8236 -1.1777 -0.2806
   51MOL   C29229392   6.623   3.217   2.980  0.3131  0.3281 -0.4557
   51MOL   C29329393   6.671   3.358   2.946  0.4834  0.1547 -0.4325
   51MOL   O29429394   6.790   3.369   3.021 -0.3703  0.1123 -0.0623
   51MOL   C29529395   6.698   3.380   2.798  0.7417 -0.2211 -0.3711
   51MOL   O29629396   6.653   3.517   2.770 -0.5570 -0.0389 -0.2934
   51MOL   C29729397   6.696   3.554   2.637  1.0006  0.5194 -0.7727
   51MOL   C29829398   6.615   3.485   2.525 -0.5650 -0.4026 -0.8940
   51MOL   C29929399   6.700   3.460   2.396  0.1948 -0.3148 -0.1933
   51MOL   O30029400   6.730   3.589   2.347  0.2767 -0.1594  0.3064
   51MOL   C30129401   6.824   3.588   2.252 -0.1792  0.2688 -0.5503
   51MOL   O30229402   6.788   3.533   2.127 -0.0921 -0.0419 -0.5131
   51MOL   C30329403   6.864   3.737   2.228  1.1468  0.4092 -0.3125
   51MOL   O30429404   6.908   3.795   2.347  0.8498 -0.4016 -0.5475
   51MOL   H30529405   6.706   3.153   3.011 -0.8415 -0.7054  0.5528
   51MOL   H30629406   6.571   3.170   2.897 -0.3461 -2.1773  1.2928
   51MOL   H30729407   6.591   3.425   2.978  0.0382  0.2867 -1.7847
   51MOL   H30829408   6.763   3.338   3.106 -0.8119  4.3594  1.4604
   51MOL   H30929409   6.800   3.350   2.776  1.1486  0.8292  0.0401
   51MOL   H31029410   6.626   3.311   2.754  0.4212  0.7564 -1.4106
   51MOL   H31129411   6.801   3.523   2.637  1.1716  0.8519  2.5504
   51MOL   H31229412   6.686   3.661   2.620 -0.7274  0.4093 -0.5300
   51MOL   H31329413   6.531   3.551   2.504 -0.2493  0.3029  0.0247
   51MOL   H31429414   6.577   3.385   2.546  0.1827 -0.4875  0.1034
   51MOL   H31529415   6.784   3.398   2.427 -1.3251 -2.2205  0.2623
   51MOL   H31629416   6.639   3.410   2.321 -0.2759 -0.3815  0.2272
   51MOL   H31729417   6.915   3.539   2.286 -1.5609 -0.3270  2.4514
   51MOL   H31829418   6.765   3.607   2.073 -0.5011 -0.2587 -0.6361
   51MOL   H31929419   6.770   3.778   2.190  0.9103 -1.5464 -1.8978
   51MOL   H32029420   6.940   3.738   2.150  1.2499  0.0618 -0.2135
   51MOL   C32129421   6.930   3.933   2.340  0.1786  0.0590 -0.4084
   51MOL   C32229422   6.987   3.983   2.473 -0.6962  0.2336 -0.5036
   51MOL   O32329423   7.129   3.957   2.469  0.1001 -0.0606  0.1013
   51MOL   C32429424   6.953   4.123   2.510 -0.0025  0.4601  0.8636
   51MOL   O32529425   6.818   4.159   2.527  0.2842 -0.5049 -0.0911
   51MOL   C32629426   6.783   4.154   2.668 -0.4148  0.3587 -0.6714
   51MOL   C32729427   6.628   4.181   2.687 -0.6778  0.0403  0.1988
   51MOL   C32829428   6.578   4.170   2.833 -0.0624  0.5023  0.2522
   51MOL   O32929429   6.583   4.035   2.875 -0.4104 -0.4021  0.0146
   51MOL   C33029430   6.555   4.017   3.006 -0.4743  0.3208  0.1339
   51MOL   O33129431   6.423   4.040   3.030  0.0012 -0.0917  1.4398
   51MOL   C33229432   6.590   3.872   3.036  0.0927 -0.5157 -0.1573
   51MOL   O33329433   6.734   3.852   3.047  0.2765  0.4867 -0.1645
   51MOL   H33429434   6.838   3.985   2.316  0.4240  1.9314  2.4776
   51MOL   H33529435   6.997   3.969   2.262 -0.3064  1.1225 -0.3395
   51MOL   H33629436   6.944   3.914   2.546  0.7185  1.0712  1.1549
   51MOL   H33729437   7.158   3.972   2.557  1.5023 -0.6891 -0.2436
   51MOL   H33829438   6.978   4.197   2.433  1.1414 -0.9296 -0.1212
   51MOL   H33929439   7.012   4.149   2.598 -1.7540  2.0956  1.6005
   51MOL   H34029440   6.835   4.233   2.722 -1.6417  1.1417 -0.6182
   51MOL   H34129441   6.796   4.054   2.710 -0.1547  0.2510 -1.0119
   51MOL   H34229442   6.611   4.282   2.649 -0.8972 -0.3399 -0.7282
   51MOL   H34329443   6.567   4.113   2.629  1.0725 -1.2564 -0.1605
   51MOL   H34429444   6.648   4.231   2.891  1.2065  0.5220 -1.2725
   51MOL   H34529445   6.480   4.215   2.847 -0.4407  0.1433 -1.1842
   51MOL   H34629446   6.621   4.081   3.064  0.8257 -0.2087 -0.7439
   51MOL   H34729447   6.366   3.975   2.992  1.3463 -0.5886  0.2537
   51MOL   H34829448   6.551   3.840   3.133  1.4401 -1.1443  0.1936
   51MOL   H34929449   6.542   3.808   2.962  1.0163 -1.8395  0.3696
   51MOL   C35029450   6.770   3.716   3.069  0.6906  0.1547 -0.3513
   51MOL   C35129451   6.919   3.704   3.025 -0.7539  0.1463 -0.5894
   51MOL   O35229452   6.971   3.592   3.078 -0.5307 -0.4627  0.2849
   51MOL   C35329453   6.935   3.730   2.880 -0.8053 -0.1940  0.3356
   51MOL   O35429454   7.065   3.730   2.841  0.4204  0.5482 -0.0215
   51MOL   C35529455   7.092   3.662   2.722  0.6753  0.5765  0.2969
   51MOL   C35629456   7.239   3.686   2.675  0.3456 -0.0603  0.5000
   51MOL   C35729457   7.272   3.639   2.534 -0.1030  0.0694 -0.0148
   51MOL   O35829458   7.409   3.675   2.508  0.0319  0.0036  0.1282
   51MOL   C35929459   7.454   3.639   2.380  0.0115 -0.1720 -0.8536
   51MOL   O36029460   7.385   3.713   2.278  0.1673  0.1042 -0.1868
   51MOL   C36129461   7.606   3.657   2.361  0.4359 -0.0859 -0.3349
   51MOL   O36229462   7.673   3.528   2.370  0.8478 -0.1414  0.6149
   51MOL   H36329463   6.712   3.647   3.008 -0.4863  0.3319  0.5678
   51MOL   H36429464   6.757   3.690   3.174  1.6520 -0.0556 -0.2730
   51MOL   H36529465   6.971   3.785   3.076 -1.4235  0.2454 -0.0512
   51MOL   H36629466   6.922   3.519   3.044 -0.9874  0.5251 -1.2266
   51MOL   H36729467   6.874   3.663   2.819  0.2318 -1.4609  0.6477
   51MOL   H36829468   6.887   3.824   2.855 -1.8747 -0.4999  1.2053
   51MOL   H36929469   7.021   3.689   2.644 -0.9779 -0.9714  1.2402
   51MOL   H37029470   7.059   3.559   2.737 -1.5428  1.2582  0.2594
   51MOL   H37129471   7.305   3.647   2.753  0.3228  1.4094  1.2648
   51MOL   H37229472   7.258   3.793   2.683  2.2042 -0.4167  1.0816
   51MOL   H37329473   7.251   3.532   2.526 -1.7776  0.3436  0.6303
   51MOL   H37429474   7.208   3.684   2.458 -0.0128 -1.5890 -1.1053
   51MOL   H37529475   7.424   3.536   2.359  0.5026  0.0835 -2.9020
   51MOL   H37629476   7.424   3.796   2.256 -0.2834  0.0160 -1.3288
   51MOL   H37729477   7.625   3.694   2.261 -1.6432 -2.0929 -1.5222
   51MOL   H37829478   7.649   3.737   2.421 -1.7875  0.5015  0.5626
   51MOL   C37929479   0.117   3.541   2.405  0.1105  0.3221  0.3873
   51MOL   C38029480   0.177   3.395   2.395  0.0665  0.5591 -0.2134
   51MOL   O38129481   0.184   3.349   2.257 -0.5967 -0.1264 -0.1099
   51MOL   C38229482   0.322   3.376   2.442 -0.6101 -0.3419 -0.2257
   51MOL   O38329483   0.410   3.437   2.347 -0.7070 -0.0140 -0.2565
   51MOL   C38429484   0.541   3.415   2.396  0.2388 -0.0961  0.1660
   51MOL   C38529485   0.634   3.481   2.292 -1.1305  0.7868  0.1030
   51MOL   C38629486   0.662   3.623   2.323 -0.9209  0.7154  0.1924
   51MOL   O38729487   0.761   3.678   2.237  0.0295 -0.8361  0.3417
   51MOL   C38829488   0.779   3.814   2.248  0.5534  0.3822 -0.5904
   51MOL   O38929489   0.820   3.858   2.378 -0.5416  0.0558 -0.6252
   51MOL   C39029490   0.890   3.844   2.152  0.2624 -0.1729 -0.0668
   51MOL   O39129491   0.889   3.988   2.134  0.2353  0.4289  0.0053
   51MOL   H39229492   0.131   3.589   2.501  1.8636  2.6141 -0.9339
   51MOL   H39329493   0.169   3.599   2.328  2.5704 -1.0352  0.9507
   51MOL   H39429494   0.115   3.328   2.455  0.0429  0.3147 -0.5117
   51MOL   H39529495   0.257   3.396   2.218 -0.1393 -1.4826 -0.9150
   51MOL   H39629496   0.331   3.433   2.534 -0.7256 -1.0280  0.2067
   51MOL   H39729497   0.346   3.271   2.456  0.4300  0.0099  0.6861
   51MOL   H39829498   0.552   3.307   2.395 -0.8415 -0.2231  1.1534
   51MOL   H39929499   0.562   3.451   2.497  0.5329  1.5278 -0.4655
   51MOL   H40029500   0.591   3.485   2.193 -2.5975 -0.0877  0.6918
   51MOL   H40129501   0.729   3.427   2.291 -0.2009  2.3781 -0.1074
   51MOL   H40229502   0.570   3.680   2.316  0.5266  3.0686 -0.3690
   51MOL   H40329503   0.703   3.623   2.424  1.8234 -0.8145 -0.8611
   51MOL   H40429504   0.689   3.870   2.220 -0.5629 -0.7223  0.6570
   51MOL   H40529505   0.902   3.901   2.361 -0.1140  0.2789  1.7944
   51MOL   H40629506   0.981   3.804   2.197  0.5350  0.7764  0.2390
   51MOL   H40729507   0.878   3.795   2.056  0.3168  2.0755 -1.2538
   51MOL   C40829508   1.013   4.032   2.072  0.3852 -0.4576  0.1400
   51MOL   C40929509   1.009   4.183   2.044  0.3267 -0.4592 -0.3806
   51MOL   O41029510   1.054   4.246   2.158  0.0814  0.1693 -0.0690
   51MOL   C41129511   0.865   4.241   2.018  0.3588  0.5600  0.0401
   51MOL   O41229512   0.899   4.347   1.934 -0.1816 -0.2186 -0.1496
   51MOL   C41329513   0.786   4.423   1.884 -0.1840  0.2403  0.0745
   51MOL   C41429514   0.852   4.541   1.808 -0.8019 -0.3378 -0.6414
   51MOL   C41529515   0.742   4.623   1.738 -0.2922  0.5756  0.2947
   51MOL   O41629516   0.788   4.760   1.698 -0.0369 -0.3700 -0.1547
   51MOL   C41729517   0.861   4.759   1.581 -0.1837 -0.0865  0.3425
   51MOL   O41829518   0.999   4.730   1.597  0.3423  0.6891 -0.0731
   51MOL   C41929519   0.845   4.900   1.518  0.3900 -0.0441 -0.7139
   51MOL   O42029520   0.706   4.917   1.492  0.5558 -0.7765 -0.1131
   51MOL   H42129521   1.025   3.976   1.980  0.7012  0.1029 -0.1672
   51MOL   H42229522   1.100   3.998   2.129  1.7618  1.1271 -0.9509
   51MOL   H42329523   1.079   4.199   1.962  0.8118 -1.1630 -0.0990
   51MOL   H42429524   1.142   4.212   2.169  0.6910  2.3569  2.2294
   51MOL   H42529525   0.796   4.166   1.977 -1.5813  1.9596  0.6938
   51MOL   H42629526   0.824   4.281   2.110 -0.9157 -0.6995  0.0542
   51MOL   H42729527   0.734   4.356   1.816  0.6920 -2.5688  2.0688
   51MOL   H42829528   0.721   4.447   1.968 -0.0007 -0.3955  0.4009
   51MOL   H42929529   0.934   4.509   1.744 -1.7312 -2.7729 -0.6545
   51MOL   H43029530   0.898   4.605   1.884  0.4720  0.1995 -1.8394
   51MOL   H43129531   0.693   4.569   1.657 -0.5974  1.9962 -0.5033
   51MOL   H43229532   0.668   4.647   1.814  0.5243 -0.5902  1.4632
   51MOL   H43329533   0.815   4.687   1.513 -1.5506  1.5092 -0.4743
   51MOL   H43429534   1.033   4.800   1.651  0.9428  1.7457 -1.8036
   51MOL   H43529535   0.860   4.979   1.592 -1.3265 -1.3684  1.1083
   51MOL   H43629536   0.914   4.911   1.435 -0.1549 -0.5474 -1.2441
   51MOL   C43729537   0.667   5.043   1.432 -0.6745  0.4571  0.1650
   51MOL   C43829538   0.521   5.020   1.380 -0.7770  0.2260 -0.3588
   51MOL   O43929539   0.490   5.108   1.272 -0.0784  0.2692  0.3002
   51MOL   C44029540   0.420   5.049   1.489  0.6052  0.5349  0.9307
   51MOL   O44129541   0.440   5.184   1.519 -0.2697 -0.7044 -0.2234
   51MOL   C44229542   0.344   5.227   1.616  0.0039  0.3208 -0.6098
   51MOL   C44329543   0.376   5.364   1.667  0.2800 -0.3928  0.1788
   51MOL   C44429544   0.272   5.416   1.773  0.0664  0.6577 -0.1206
   51MOL   O44529545   0.147   5.413   1.708 -0.0759 -0.0383 -0.0695
   51MOL   C44629546   0.079   5.537   1.713  0.4952 -0.0385  0.0448
   51MOL   O44729547   0.006   5.553   1.829  0.5052  0.0211 -0.0079
   51MOL   C44829548   7.674   5.542   1.600  0.2502 -0.3040  0.1824
   51MOL   O44929549   7.597   5.432   1.614 -0.2145  0.5021 -0.1465
   51MOL   H45029550   0.672   5.126   1.502  0.1390  0.6429 -0.1078
   51MOL   H45129551   0.739   5.063   1.353 -0.2042  0.9968  0.7313
   51MOL   H45229552   0.510   4.915   1.352 -0.0484  0.3369 -1.0679
   51MOL   H45329553   0.499   5.194   1.310 -0.2818  0.2042  0.4959
   51MOL   H45429554   0.322   5.042   1.442  0.5287  2.3849  0.7855
   51MOL   H45529555   0.423   4.985   1.577 -0.0443 -0.6746  0.1049
   51MOL   H45629556   0.329   5.161   1.701  1.0910  0.7572 -0.0768
   51MOL   H45729557   0.243   5.219   1.574 -0.4244  0.3598  0.4124
   51MOL   H45829558   0.380   5.434   1.583 -0.5259 -1.0881 -0.4541
   51MOL   H45929559   0.473   5.359   1.716 -0.9484 -3.8764  2.4394
   51MOL   H46029560   0.267   5.344   1.854  1.4541 -0.6162 -1.1391
   51MOL   H46129561   0.310   5.510   1.812  0.2117  1.6378 -2.5262
   51MOL   H46229562   0.152   5.618   1.713  0.3060  0.1396  1.0891
   51MOL   H46329563   7.622   5.501   1.823 -0.2062  1.0172  0.6028
   51MOL   H46429564   7.620   5.637   1.595  0.4870 -0.2394 -1.2824
   51MOL   H46529565   0.030   5.547   1.504 -0.1540  0.0944 -0.0101
   51MOL   C46629566   7.508   5.417   1.503 -0.3244  0.4426  0.1925
   51MOL   C46729567   7.409   5.301   1.514 -0.0724 -0.1977 -0.2827
   51MOL   O46829568   7.318   5.333   1.616 -0.1811  0.5498  0.2228
   51MOL   C46929569   7.329   5.267   1.381  0.3813  0.1772 -0.2541
   51MOL   O47029570   7.249   5.387   1.352  0.4646  0.9396 -0.2814
   51MOL   C47129571   7.191   5.394   1.221  0.7828  0.1786  0.2305
   51MOL   C47229572   7.074   5.497   1.210  0.6313 -0.2494  0.3172
   51MOL   C47329573   7.026   5.523   1.064 -0.0690 -0.1822  0.2225
   51MOL   O47429574   6.932   5.634   1.057 -0.1037 -0.4742  0.5301
   51MOL   C47529575   6.873   5.654   0.937 -0.3116 -0.7690 -0.2601
   51MOL   O47629576   6.958   5.706   0.842 -0.6209  0.5749  0.1313
   51MOL   C47729577   6.750   5.752   0.948 -0.7188  0.5792 -0.8382
   51MOL   O47829578   6.792   5.868   1.015  0.0911 -0.0448  0.1078
   51MOL   H47929579   7.567   5.408   1.411 -0.1511  3.5078 -0.0469
   51MOL   H48029580   7.450   5.508   1.485 -1.2212 -0.0773  0.4110
   51MOL   H48129581   7.459   5.209   1.543  1.0976  1.0005  1.6341
   51MOL   H48229582   7.240   5.365   1.572  0.4545  0.8932 -0.6687
   51MOL   H48329583   7.389   5.246   1.292  1.6496  0.8454  0.4316
   51MOL   H48429584   7.265   5.183   1.406 -2.1528  1.8097 -1.0294
   51MOL   H48529585   7.165   5.292   1.193 -0.3698 -0.1496  2.3976
   51MOL   H48629586   7.273   5.428   1.158  0.6934  0.7433  0.4176
   51MOL   H48729587   7.105   5.592   1.254  0.0966  0.5742 -1.0551
   51MOL   H48829588   6.988   5.462   1.268  0.0720 -0.0145 -0.3579
   51MOL   H48929589   7.103   5.556   0.993 -0.5486  5.1869  1.9763
   51MOL   H49029590   6.973   5.435   1.027 -0.5130 -0.1737  0.8394
   51MOL   H49129591   6.839   5.554   0.909 -3.3721  0.6808 -2.0595
   51MOL   H49229592   6.987   5.788   0.877  0.7215  0.1856 -0.0201
   51MOL   H49329593   6.706   5.778   0.851 -2.0559  0.6709 -0.2104
   51MOL   H49429594   6.669   5.700   0.999 -1.5760 -0.4972 -3.2124
   51MOL   C49529595   6.691   5.968   1.038 -1.1402 -0.0725 -0.1274
   51MOL   C49629596   6.618   5.934   1.172  0.0166 -0.4154 -0.1753
   51MOL   O49729597   6.687   5.971   1.284  0.5197  0.3413 -0.0566
   51MOL   C49829598   6.479   6.009   1.184 -0.5588  0.2599 -0.7286
   51MOL   O49929599   6.406   5.996   1.062  0.5837 -0.4077 -0.3159
   51MOL   C50029600   6.328   5.881   1.077 -0.4973 -0.3843  0.0074
   51MOL   C50129601   6.274   5.836   0.949  0.0639  0.8760  0.2717
   51MOL   C50229602   6.381   5.758   0.876 -0.3240  0.3314  0.3116
   51MOL   O50329603   6.337   5.758   0.741 -0.5647  0.2472 -0.2331
   51MOL   C50429604   6.432   5.682   0.666  0.6332 -0.0838  0.1357
   51MOL   O50529605   6.550   5.749   0.650 -0.2876 -0.0277  0.5660
   51MOL   C50629606   6.369   5.663   0.530  0.0738  0.5415  0.6971
   51MOL   O50729607   6.355   5.791   0.471  0.1147 -1.0897 -0.0572
   51MOL   H50829608   6.624   5.958   0.952 -0.9581 -1.4055 -0.1325
   51MOL   H50929609   6.724   6.072   1.044  0.9240 -0.7047 -0.2360
   51MOL   H51029610   6.601   5.827   1.181  1.4664 -0.5464  1.1181
   51MOL   H51129611   6.703   6.064   1.284  1.1333  0.2409  0.0583
   51MOL   H51229612   6.434   5.968   1.274  1.0827  1.1440  0.5326
   51MOL   H51329613   6.499   6.116   1.190 -1.0380  0.3536 -0.8254
   51MOL   H51429614   6.238   5.910   1.132  0.1225  2.2347 -0.2577
   51MOL   H51529615   6.381   5.801   1.128 -0.5138  0.3425  1.1845
   51MOL   H51629616   6.243   5.923   0.891  1.0036  0.9969 -0.0758
   51MOL   H51729617   6.185   5.778   0.972 -1.8323  3.6529  0.0458
   51MOL   H51829618   6.471   5.820   0.873 -0.1647  0.1501  1.1576
   51MOL   H51929619   6.403   5.659   0.917 -0.0989  0.0033 -0.5823
   51MOL   H52029620   6.445   5.583   0.711  1.1017 -0.1744 -0.1948
   51MOL   H52129621   6.531   5.819   0.589 -0.4876 -1.4290 -0.9948
   51MOL   H52229622   6.436   5.606   0.466  0.6222  1.0316  0.8241
   51MOL   H52329623   6.277   5.605   0.536 -0.2829  1.0654  0.3316
   51MOL   C52429624   6.278   5.790   0.345  0.4069  0.4878 -0.1425
   51MOL   C52529625   6.282   5.934   0.288 -0.1191  0.5490  0.7323
   51MOL   O52629626   6.176   6.004   0.348  0.1752 -0.5965 -0.5375
   51MOL   C52729627   6.249   5.934   0.139  0.2321  1.1328 -0.2243
   51MOL   O52829628   6.265   6.070   0.086  0.3483 -0.0410  0.4250
   51MOL   C52929629   6.233   6.065   7.640  0.5418 -0.3948  0.6862
   51MOL   C53029630   6.239   6.200   7.583 -0.0105 -0.0865 -0.1854
   51MOL   C53129631   6.196   6.203   7.437 -0.0596  0.2288  0.1098
   51MOL   O53229632   6.151   6.338   7.400  0.8109 -0.3691 -0.0290
   51MOL   C53329633   6.142   6.358   7.259 -0.4427  0.1379  0.5789
   51MOL   O53429634   6.042   6.283   7.201  0.6586 -0.3928 -0.2573
   51MOL   C53529635   6.124   6.507   7.223  0.2378  0.1507  0.6767
   51MOL   O53629636   6.243   6.584   7.225  0.2261 -0.0533  0.3652
   51MOL   H53729637   6.172   5.766   0.352  0.4767  0.3224  0.3716
   51MOL   H53829638   6.329   5.728   0.272 -0.8057 -1.1704  0.3737
   51MOL   H53929639   6.368   5.999   0.301 -0.2695  0.5123  2.0253
   51MOL   H54029640   6.135   6.068   0.291 -1.1402  0.5133  1.5683
   51MOL   H54129641   6.319   5.869   0.086 -0.0564  1.4080 -0.9342
   51MOL   H54229642   6.148   5.896   0.128  1.0982 -2.4079  2.7150
   51MOL   H54329643   6.133   6.027   7.617 -0.0272  0.7965  1.1323
   51MOL   H54429644   6.303   5.991   7.603  2.4170  1.7465 -0.1377
   51MOL   H54529645   6.342   6.232   7.597  0.9001 -1.9059 -2.3037
   51MOL   H54629646   6.181   6.266   7.647  0.8827  1.7000 -1.2000
   51MOL   H54729647   6.276   6.159   7.379 -1.4014 -0.3901 -1.3030
   51MOL   H54829648   6.106   6.145   7.419  0.1119 -0.0020 -0.0042
   51MOL   H54929649   6.229   6.333   7.199 -0.7906  1.1444 -0.3662
   51MOL   H55029650   5.970   6.331   7.238  0.8707  0.6923 -1.2406
   51MOL   H55129651   6.085   6.515   7.122  1.4202  1.1316  0.2900
   51MOL   H55229652   6.054   6.540   7.300 -1.7025 -1.5569 -0.3063
   51MOL   C55329653   6.216   6.723   7.235  0.1229 -0.3638 -0.3733
   51MOL   C55429654   6.335   6.802   7.203  0.2854  0.0776  0.5008
   51MOL   O55529655   6.373   6.746   7.074 -0.2951  0.4029 -0.0336
   51MOL   C55629656   6.451   6.786   7.305 -0.2683  0.0464  0.3498
   51MOL   O55729657   6.437   6.875   7.413  0.5162 -0.3560 -0.1129
   51MOL   C55829658   6.559   6.895   7.480  0.1016  0.1666 -0.0497
   51MOL   C55929659   6.533   7.014   7.581 -1.3006 -0.1891 -0.6249
   51MOL   C56029660   6.645   7.030   7.689 -0.1809  0.8772 -0.4736
   51MOL   O56129661   6.655   6.897   0.058  1.1374 -0.1032 -0.0018
   51MOL   C56229662   6.772   6.885   0.125  0.4792  0.8444 -0.0674
   51MOL   O56329663   6.760   6.946   0.247 -0.2040 -0.2485  0.0848
   51MOL   C56429664   6.789   6.730   0.141  0.1369 -0.1530  0.1946
   51MOL   O56529665   6.695   6.686   0.235  0.3875  0.4163 -0.1317
   51MOL   H56629666   6.181   6.739   7.336 -1.4239  0.1802 -0.9836
   51MOL   H56729667   6.137   6.744   7.163 -0.6255 -1.0071  0.2555
   51MOL   H56829668   6.296   6.904   7.193 -1.7828 -0.8028 -0.6432
   51MOL   H56929669   6.380   6.653   7.090  0.6593  0.5595  0.4615
   51MOL   H57029670   6.463   6.680   7.328  1.5654  0.4171  1.2360
   51MOL   H57129671   6.535   6.802   7.238 -1.6004  1.1217 -1.0705
   51MOL   H57229672   6.582   6.798   7.523  0.9887 -0.5193 -2.0367
   51MOL   H57329673   6.638   6.922   7.410 -0.9923  1.0169 -0.9758
   51MOL   H57429674   6.453   6.991   7.652 -0.0643  0.2379  0.9499
   51MOL   H57529675   6.518   7.112   7.536  1.4234  0.7980  0.4758
   51MOL   H57629676   6.735   7.054   7.633  0.4958  0.3690  0.3857
   51MOL   H57729677   6.610   7.110   0.060 -0.4213 -0.7042  1.3956
   51MOL   H57829678   6.857   6.926   0.071 -0.8411  2.8028 -0.7308
   51MOL   H57929679   6.739   6.876   0.306  1.1360 -1.0286 -0.3322
   51MOL   H58029680   6.779   6.678   0.045  2.4067 -1.1327  0.4427
   51MOL   H58129681   6.889   6.719   0.182  0.0093 -0.9676  0.2978
   51MOL   H58229682   6.605   6.697   0.207  0.2329 -2.2454 -0.7716
   52MOL     C129683   5.025   4.485   6.871 -0.1400  0.2029 -0.6043
   52MOL     C229684   4.984   4.419   7.003 -0.0280  0.4817 -0.0964
   52MOL     O329685   4.979   4.526   7.089 -0.6359 -0.3648 -0.3098
   52MOL     C429686   4.851   4.355   6.984 -0.1034  0.6494 -0.6090
   52MOL     O529687   4.810   4.308   7.109 -0.7133 -0.3803 -0.5239
   52MOL     C629688   4.687   4.239   7.094 -0.4850 -0.1336  0.4806
   52MOL     C729689   4.636   4.187   7.229 -0.5513  0.4070 -0.2915
   52MOL     C829690   4.704   4.057   7.277 -0.8594 -0.1793 -0.1954
   52MOL     O929691   4.694   4.058   7.417  0.7568 -0.0508 -0.4218
   52MOL    C1029692   4.696   3.925   7.472  0.5384 -0.7166 -0.1492
   52MOL    O1129693   4.574   3.852   7.451  0.0455 -0.3913 -0.7193
   52MOL    C1229694   4.730   3.931   7.625  0.9293  0.4541  0.0837
   52MOL    O1329695   4.873   3.931   7.648 -0.1155 -0.1564  0.3637
   52MOL    H1429696   5.088   4.573   6.888 -0.2596  0.1432  0.1586
   52MOL    H1529697   4.934   4.529   6.831 -0.6408  0.1808  0.5097
   52MOL    H1629698   5.064   4.351   7.034 -0.3589 -0.0583 -0.4295
   52MOL    H1729699   4.928   4.494   7.163  0.7806 -1.2403  0.3121
   52MOL    H1829700   4.781   4.422   6.935  0.0551  0.6746 -0.7985
   52MOL    H1929701   4.876   4.274   6.915  1.6474 -0.3864  1.1886
   52MOL    H2029702   4.708   4.154   7.030  2.3159 -1.2112  2.7343
   52MOL    H2129703   4.609   4.300   7.050 -1.6076 -0.1563  2.3758
   52MOL    H2229704   4.534   4.151   7.232 -1.1930  2.1575 -0.3040
   52MOL    H2329705   4.650   4.260   7.309 -2.9634  1.2783 -0.6352
   52MOL    H2429706   4.650   3.973   7.235 -0.1734  0.4146 -2.3375
   52MOL    H2529707   4.808   4.046   7.247 -1.2900  1.8632 -2.6142
   52MOL    H2629708   4.777   3.866   7.429 -1.4165 -2.4367 -1.5775
   52MOL    H2729709   4.509   3.892   7.506  0.6039 -1.3115  0.6289
   52MOL    H2829710   4.680   4.019   7.664  0.4484 -0.5857  1.8999
   52MOL    H2929711   4.689   3.845   7.678  2.2543 -0.8189 -0.9176
   52MOL    H3029712   5.073   4.423   6.795 -1.1466  0.1121 -1.1669
   52MOL    C3129713   4.905   3.931   0.090  0.1629 -0.6760 -0.4866
   52MOL    C3229714   5.059   3.955   0.096  0.2882 -0.5796  0.6315
   52MOL    O3329715   5.132   3.836   0.064  0.1953 -0.0496 -0.0171
   52MOL    C3429716   5.091   4.009   0.237 -0.2623  0.8481  0.7704
   52MOL    O3529717   5.153   4.133   0.232 -0.3348  0.3015 -0.6386
   52MOL    C3629718   5.286   4.126   0.203 -0.2341  0.3172 -0.2449
   52MOL    C3729719   5.333   4.267   0.180  0.0256  0.4717  0.8593
   52MOL    C3829720   5.313   4.351   0.311 -0.7626  0.0987 -0.1165
   52MOL    O3929721   5.397   4.299   0.412  0.1197 -0.2461  0.5108
   52MOL    C4029722   5.345   4.324   0.532  0.4474  0.2545  0.0351
   52MOL    O4129723   5.385   4.449   0.577 -0.1424 -0.3833 -0.4361
   52MOL    C4229724   5.399   4.222   0.631  0.4451  0.5386 -0.3094
   52MOL    O4329725   5.353   4.091   0.599  0.0476 -0.1023  0.0830
   52MOL    H4429726   4.843   3.993   0.154  1.1445 -0.7578  0.5384
   52MOL    H4529727   4.877   3.835   0.133  1.1660 -1.4455 -1.5114
   52MOL    H4629728   5.082   4.028   0.019  0.8526 -1.5850 -0.1710
   52MOL    H4729729   5.119   3.802   7.671  2.1506  1.0342 -0.7721
   52MOL    H4829730   5.004   4.032   0.298 -0.6367  0.4748  0.3841
   52MOL    H4929731   5.142   3.938   0.301 -1.6525 -0.6312  0.2644
   52MOL    H5029732   5.298   4.069   0.111 -0.5362  0.3968 -0.3314
   52MOL    H5129733   5.338   4.085   0.290  3.0382  2.0708 -1.2747
   52MOL    H5229734   5.274   4.322   0.107 -1.5765  0.3792  2.0518
   52MOL    H5329735   5.435   4.275   0.143 -0.5654  3.2960 -0.3316
   52MOL    H5429736   5.334   4.456   0.293 -1.4083  0.7889  2.8141
   52MOL    H5529737   5.207   4.350   0.336 -0.4242 -1.3147  1.3438
   52MOL    H5629738   5.237   4.320   0.540  0.3637 -2.1333 -1.9929
   52MOL    H5729739   5.468   4.452   0.621 -0.3305  0.8546 -0.1444
   52MOL    H5829740   5.507   4.222   0.617  0.6324 -1.1741  0.9790
   52MOL    H5929741   5.384   4.254   0.734 -1.8769 -1.8899  0.1741
   52MOL    C6029742   5.410   3.985   0.673  0.6172 -0.2107  0.1813
   52MOL    C6129743   5.378   3.847   0.607  0.1256  0.4402 -0.4521
   52MOL    O6229744   5.440   3.835   0.482 -0.1030 -0.0924  0.1176
   52MOL    C6329745   5.227   3.823   0.599 -0.0990 -0.0346  0.3530
   52MOL    O6429746   5.207   3.710   0.524 -0.6238 -0.1862 -0.0284
   52MOL    C6529747   5.074   3.657   0.535  0.2146  0.4837  0.4705
   52MOL    C6629748   4.981   3.734   0.440 -0.9420 -0.2646  0.0604
   52MOL    C6729749   4.856   3.659   0.392 -0.6067 -0.4920 -0.4771
   52MOL    O6829750   4.761   3.759   0.364 -0.9977  0.3661  0.0978
   52MOL    C6929751   4.630   3.719   0.352  0.4317 -0.3486 -0.2802
   52MOL    O7029752   4.579   3.686   0.482 -0.1532  0.6273  0.0919
   52MOL    C7129753   4.552   3.844   0.298 -1.0525 -0.2386  1.0270
   52MOL    O7229754   4.439   3.794   0.222 -0.7312 -0.7594 -0.0604
   52MOL    H7329755   5.371   3.970   0.774  1.0403 -0.6255  0.2831
   52MOL    H7429756   5.518   3.993   0.679  0.6922 -1.0402 -0.0456
   52MOL    H7529757   5.422   3.769   0.670 -1.8662 -1.4748 -1.3467
   52MOL    H7629758   5.392   3.772   0.431 -0.1993  1.5284 -1.8998
   52MOL    H7729759   5.191   3.797   0.698  2.9940  1.2182  1.8585
   52MOL    H7829760   5.166   3.904   0.560 -1.0242 -1.3473 -0.9913
   52MOL    H7929761   5.039   3.661   0.638 -1.2416 -2.4069  0.1174
   52MOL    H8029762   5.080   3.551   0.513 -1.6054  0.3252  0.6686
   52MOL    H8129763   5.044   3.759   0.354  1.2734 -0.6037  1.5532
   52MOL    H8229764   4.957   3.830   0.487 -1.3882  0.6361 -1.9373
   52MOL    H8329765   4.814   3.589   0.464  1.2650 -1.0856  0.0615
   52MOL    H8429766   4.888   3.600   0.306 -2.5054 -0.1033 -1.4788
   52MOL    H8529767   4.622   3.643   0.273 -0.7954 -0.0338 -0.4694
   52MOL    H8629768   4.594   3.593   0.491 -4.2841 -0.2779 -1.2762
   52MOL    H8729769   4.530   3.908   0.384 -1.5619  0.3275  0.4875
   52MOL    H8829770   4.618   3.910   0.241 -1.4748 -0.2730  0.4945
   52MOL    C8929771   4.339   3.891   0.196 -0.9799  0.7371  0.3165
   52MOL    C9029772   4.371   3.985   0.077  0.9611  0.1218  0.6070
   52MOL    O9129773   4.350   3.919   7.646  0.1960  0.1639  1.1670
   52MOL    C9229774   4.261   4.100   0.074  0.4000  0.1475  0.8484
   52MOL    O9329775   4.308   4.197   7.685  0.2008  0.2033 -0.1082
   52MOL    C9429776   4.208   4.281   7.634 -0.3967 -0.2190  0.8851
   52MOL    C9529777   4.191   4.406   0.029 -0.0055 -0.2213  0.9428
   52MOL    C9629778   4.057   4.478   0.004  0.1343 -0.3666  0.0053
   52MOL    O9729779   4.073   4.576   7.596  0.5028  0.1102  0.1098
   52MOL    C9829780   3.957   4.635   7.556 -0.3477 -0.1931  0.6935
   52MOL    O9929781   3.911   4.711   7.666  0.3661 -0.6819 -0.1332
   52MOL   C10029782   3.973   4.738   7.443 -0.0582  0.2962  0.5283
   52MOL   O10129783   4.102   4.799   7.448  0.0611  0.2252 -0.0679
   52MOL   H10229784   4.320   3.940   0.292  1.9515  1.9977  0.3061
   52MOL   H10329785   4.256   3.821   0.181  0.1229 -0.0834 -2.1586
   52MOL   H10429786   4.471   4.026   0.090  0.6832  1.1892 -0.4713
   52MOL   H10529787   4.343   3.990   7.583 -0.0053 -1.3700 -0.5903
   52MOL   H10629788   4.164   4.059   0.048  0.8625  1.9836 -4.4397
   52MOL   H10729789   4.255   4.137   0.176  0.2097 -0.5924  1.1108
   52MOL   H10829790   4.113   4.232   7.611 -1.1869  1.7333 -0.1866
   52MOL   H10929791   4.243   4.326   7.541 -1.9366 -1.0040 -0.0969
   52MOL   H11029792   4.272   4.478   0.025 -1.5963  1.7797  3.2485
   52MOL   H11129793   4.194   4.379   0.134  1.2186 -2.1062  0.4516
   52MOL   H11229794   3.974   4.409   7.682  1.1946 -1.3005 -1.4991
   52MOL   H11329795   4.022   4.524   0.097 -1.9979 -0.5412 -0.6873
   52MOL   H11429796   3.881   4.561   7.532 -0.4045 -0.3070  1.2332
   52MOL   H11529797   3.977   4.770   0.003 -0.9718  1.0709 -0.5650
   52MOL   H11629798   3.977   4.684   7.348  0.0076 -1.0337  1.2714
   52MOL   H11729799   3.883   4.799   7.433  0.4312  1.1368  1.1568
   52MOL   C11829800   4.095   4.930   7.516  0.2678 -0.0641  0.3282
   52MOL   C11929801   4.182   4.925   7.639  0.1227 -0.1616 -0.5109
   52MOL   O12029802   4.123   4.849   0.047 -0.1396 -0.0602  0.1438
   52MOL   C12129803   4.217   5.064   0.005 -0.1640  1.1314 -0.0069
   52MOL   O12229804   4.305   5.052   0.115 -0.4840 -0.7413  0.3557
   52MOL   C12329805   4.321   5.181   0.177 -0.0519 -0.1667  0.2929
   52MOL   C12429806   4.321   5.158   0.329  0.0575 -0.1430  0.1332
   52MOL   C12529807   4.199   5.084   0.385  0.3634 -0.2704  0.2387
   52MOL   O12629808   4.230   5.068   0.522  0.0619 -0.2813 -0.1866
   52MOL   C12729809   4.157   4.966   0.580 -0.1237  0.2677 -0.0255
   52MOL   O12829810   4.027   5.010   0.597  0.0800  0.6331 -0.1665
   52MOL   C12929811   4.212   4.934   0.715  0.0024 -0.3884  0.0970
   52MOL   O13029812   4.149   4.820   0.774  0.4855  0.6287  0.6654
   52MOL   H13129813   4.138   4.997   7.442 -1.9106 -0.4972 -1.3694
   52MOL   H13229814   3.991   4.959   7.531 -0.3433 -0.5933 -2.7278
   52MOL   H13329815   4.280   4.884   7.615  0.4510  0.1762  0.2514
   52MOL   H13429816   4.190   4.848   0.114  2.9877 -0.6678 -2.8166
   52MOL   H13529817   4.282   5.124   7.635 -0.4193  0.9761 -0.4128
   52MOL   H13629818   4.125   5.120   0.018  0.2463  2.6035 -2.9924
   52MOL   H13729819   4.245   5.254   0.149  0.9084  0.5852 -0.4209
   52MOL   H13829820   4.421   5.223   0.165  0.1882 -0.4251  1.3447
   52MOL   H13929821   4.334   5.258   0.372 -1.4117  0.0029  0.2685
   52MOL   H14029822   4.410   5.105   0.363  0.2283 -0.5163 -0.9100
   52MOL   H14129823   4.118   5.153   0.363  1.1162 -0.0959 -2.0718
   52MOL   H14229824   4.172   4.994   0.331 -0.5783 -1.2589  2.3015
   52MOL   H14329825   4.148   4.870   0.530  0.6336  1.0210 -1.6373
   52MOL   H14429826   3.990   5.031   0.512 -0.8960  0.5986  0.2436
   52MOL   H14529827   4.315   4.903   0.698  0.0611  0.2974 -0.8441
   52MOL   H14629828   4.212   5.019   0.784  0.7206 -0.5456  0.2963
   52MOL   C14729829   4.218   4.779   0.896 -0.0234 -0.3483 -0.0726
   52MOL   C14829830   4.159   4.645   0.950  0.9877 -0.6600 -1.0763
   52MOL   O14929831   4.025   4.671   0.980  1.3143  0.2088 -0.6034
   52MOL   C15029832   4.232   4.602   1.080 -0.1057  0.5863  0.6345
   52MOL   O15129833   4.250   4.713   1.169  0.0878 -0.0558  0.0211
   52MOL   C15229834   4.384   4.756   1.183 -0.1739 -0.0452 -0.3271
   52MOL   C15329835   4.376   4.891   1.250  0.1048 -0.3522  0.5135
   52MOL   C15429836   4.512   4.954   1.257 -0.2290 -0.0881  0.2832
   52MOL   O15529837   4.514   5.041   1.372 -0.2126 -0.0739  0.1850
   52MOL   C15629838   4.641   5.081   1.404 -0.1095  0.2086 -0.0003
   52MOL   O15729839   4.715   4.974   1.456  0.3938  0.1481 -0.1443
   52MOL   C15829840   4.626   5.191   1.511 -0.2583 -0.4441 -0.0835
   52MOL   O15929841   4.724   5.295   1.482  0.8591 -0.4946 -0.2106
   52MOL   H16029842   4.208   4.853   0.976  3.6141 -1.5055  1.5742
   52MOL   H16129843   4.326   4.766   0.883  0.2497  0.1832  1.4581
   52MOL   H16229844   4.158   4.567   0.874  1.7489 -1.1470 -0.5946
   52MOL   H16329845   4.007   4.741   0.918  0.6582  2.2968  1.8280
   52MOL   H16429846   4.185   4.519   1.132 -0.9348  0.4296 -0.3520
   52MOL   H16529847   4.329   4.559   1.052 -0.3018 -1.5508  3.0225
   52MOL   H16629848   4.424   4.773   1.083 -0.3198  0.0454 -0.3717
   52MOL   H16729849   4.451   4.679   1.221 -0.5654 -0.4847 -0.5180
   52MOL   H16829850   4.332   4.884   1.349 -1.7135  2.1924 -0.0710
   52MOL   H16929851   4.320   4.963   1.191  0.2690 -0.7360 -0.1232
   52MOL   H17029852   4.587   4.876   1.261  0.7714  0.8045 -0.6995
   52MOL   H17129853   4.543   5.001   1.163 -0.2240 -0.1721  0.2425
   52MOL   H17229854   4.702   5.120   1.322  1.9038 -1.5099  0.6430
   52MOL   H17329855   4.698   4.974   1.549  1.7114 -0.8495  0.1161
   52MOL   H17429856   4.523   5.222   1.494  0.1177  0.7312 -0.2646
   52MOL   H17529857   4.640   5.156   1.614  1.2191  1.1255  0.2650
   52MOL   C17629858   4.691   5.419   1.543 -0.0765 -0.2183 -0.0516
   52MOL   C17729859   4.739   5.430   1.695 -0.3375 -0.0836 -0.0051
   52MOL   O17829860   4.650   5.358   1.781 -0.1864 -0.1004 -0.0185
   52MOL   C17929861   4.735   5.574   1.744 -0.3423  0.2588  0.2762
   52MOL   O18029862   4.790   5.559   1.876  0.5899 -0.1610  0.0643
   52MOL   C18129863   4.822   5.684   1.929 -0.1187 -0.0606 -0.1471
   52MOL   C18229864   4.697   5.762   1.988  1.1003 -0.0157 -0.3801
   52MOL   C18329865   4.642   5.681   2.105  0.1490 -0.0430  0.6053
   52MOL   O18429866   4.544   5.762   2.166  0.2600 -0.6147  0.2666
   52MOL   C18529867   4.474   5.698   2.273  0.1562 -0.1115  0.5421
   52MOL   O18629868   4.362   5.618   2.236  0.0092  0.4445 -0.1338
   52MOL   C18729869   4.434   5.809   2.370  0.1419 -0.4129 -0.1565
   52MOL   O18829870   4.317   5.872   2.331 -0.8111  0.3458 -0.5526
   52MOL   H18929871   4.585   5.441   1.529 -0.4913 -2.5240 -0.8214
   52MOL   H19029872   4.748   5.492   1.485 -0.5322  0.1290 -0.0595
   52MOL   H19129873   4.837   5.390   1.719 -0.5959 -0.4987  0.3666
   52MOL   H19229874   4.658   5.399   1.865  1.2022 -0.5767  0.0991
   52MOL   H19329875   4.795   5.628   1.671  0.0356 -0.6103 -0.0716
   52MOL   H19429876   4.637   5.619   1.731 -0.9785 -1.5713 -1.6292
   52MOL   H19529877   4.863   5.748   1.850 -0.4273  0.9116  0.4686
   52MOL   H19629878   4.900   5.661   2.002 -0.8231  0.4603  0.7814
   52MOL   H19729879   4.629   5.797   1.911  1.2552 -1.1085 -1.0200
   52MOL   H19829880   4.739   5.851   2.035  1.4587 -0.9213  1.0582
   52MOL   H19929881   4.587   5.601   2.057  2.9196  0.5462 -3.8157
   52MOL   H20029882   4.718   5.646   2.176  0.0774 -0.7260  0.3429
   52MOL   H20129883   4.548   5.635   2.322  0.5529 -0.0487  0.0339
   52MOL   H20229884   4.297   5.673   2.196 -4.0460 -3.4265  0.8551
   52MOL   H20329885   4.420   5.761   2.467  0.2816 -1.0682 -0.4662
   52MOL   H20429886   4.513   5.882   2.388  0.7102 -1.1241  0.2618
   52MOL   C20529887   4.295   5.984   2.411  0.1258  0.5178  1.4494
   52MOL   C20629888   4.163   6.045   2.362  0.2489 -0.1184  0.7250
   52MOL   O20729889   4.140   6.154   2.443 -0.1828 -0.3328  0.3002
   52MOL   C20829890   4.183   6.109   2.219  0.4690  0.0723 -0.4245
   52MOL   O20929891   4.050   6.139   2.173 -0.2804  0.3385 -0.1211
   52MOL   C21029892   4.040   6.143   2.032  0.9154  0.1547 -0.2323
   52MOL   C21129893   4.123   6.260   1.974 -0.3874 -0.4264 -0.0159
   52MOL   C21229894   4.095   6.401   2.040  0.6922  0.0304  0.2139
   52MOL   O21329895   4.170   6.498   1.976 -0.0781  0.3482 -0.6549
   52MOL   C21429896   4.131   6.622   2.003 -0.2849  0.2566 -1.0831
   52MOL   O21529897   4.016   6.663   1.934 -0.1398 -0.6683  0.5723
   52MOL   C21629898   4.241   6.713   1.958 -0.1071  0.8139 -0.2123
   52MOL   O21729899   4.351   6.708   2.051 -0.2039  0.1087 -0.6755
   52MOL   H21829900   4.374   6.057   2.394  1.2637 -1.1583 -0.6322
   52MOL   H21929901   4.288   5.962   2.518 -2.7963 -2.4388  0.7224
   52MOL   H22029902   4.076   5.981   2.370  1.2063 -1.4888  0.3828
   52MOL   H22129903   4.053   6.174   2.414 -0.0348 -1.7386 -1.2143
   52MOL   H22229904   4.245   6.199   2.225 -1.2242  1.3916 -1.7809
   52MOL   H22329905   4.229   6.037   2.151  0.8199 -1.0545  1.0111
   52MOL   H22429906   3.932   6.152   2.016  0.2105 -1.2903  3.0434
   52MOL   H22529907   4.070   6.045   1.996 -1.0343 -0.3530 -0.5579
   52MOL   H22629908   4.096   6.262   1.868 -0.5866  1.1323  0.0567
   52MOL   H22729909   4.230   6.242   1.981 -0.3965 -0.2460  0.6396
   52MOL   H22829910   3.991   6.424   2.019  0.8190 -0.3741 -0.8476
   52MOL   H22929911   4.104   6.397   2.149 -0.4442  0.7844  0.3503
   52MOL   H23029912   4.117   6.640   2.110  2.9698 -0.8860 -0.3975
   52MOL   H23129913   4.040   6.665   1.842  1.6878 -1.8027  1.0028
   52MOL   H23229914   4.268   6.683   1.857  1.7005  2.0924 -0.1231
   52MOL   H23329915   4.216   6.819   1.951  1.0968  1.0422 -1.1655
   52MOL   C23429916   4.425   6.584   2.084 -0.2919  0.0561  0.1726
   52MOL   C23529917   4.573   6.624   2.114 -0.2103  0.5397 -0.3444
   52MOL   O23629918   4.671   6.529   2.063 -0.3210  0.0168 -0.5298
   52MOL   C23729919   4.613   6.656   2.262  0.2124 -0.3781  0.1415
   52MOL   O23829920   4.580   6.555   2.350 -0.0531  0.1136  0.0444
   52MOL   C23929921   4.633   6.592   2.480 -0.1575 -0.1248 -0.8833
   52MOL   C24029922   4.577   6.484   2.570 -0.1781  0.1699 -0.0812
   52MOL   C24129923   4.436   6.507   2.617 -0.3882  1.1872  0.3302
   52MOL   O24229924   4.345   6.484   2.507  0.2360 -0.3730 -0.2592
   52MOL   C24329925   4.213   6.482   2.536  0.0187  0.1026 -0.1638
   52MOL   O24429926   4.190   6.362   2.610  0.4317  0.0829 -0.5328
   52MOL   C24529927   4.142   6.480   2.403  0.1876 -0.4836  0.1820
   52MOL   O24629928   4.023   6.563   2.406  0.0777  0.4426  0.7450
   52MOL   H24729929   4.392   6.516   2.163 -0.5227  0.7627  0.6882
   52MOL   H24829930   4.422   6.536   1.986 -1.4770  0.9098 -0.2231
   52MOL   H24929931   4.600   6.712   2.055  1.3473  0.8964  0.8797
   52MOL   H25029932   4.684   6.458   2.124 -0.6913  2.2874  2.2809
   52MOL   H25129933   4.719   6.678   2.271  0.3053 -1.4657  1.8051
   52MOL   H25229934   4.572   6.751   2.296 -1.2902 -0.8012 -0.4275
   52MOL   H25329935   4.590   6.687   2.515 -0.0838  0.5952 -2.6947
   52MOL   H25429936   4.742   6.598   2.471 -0.1495  0.4668 -0.5096
   52MOL   H25529937   4.648   6.474   2.652 -1.7379 -2.7098  0.9834
   52MOL   H25629938   4.583   6.388   2.519 -1.4992  0.3850 -0.6664
   52MOL   H25729939   4.411   6.446   2.705 -0.2142  0.1650 -0.3192
   52MOL   H25829940   4.428   6.611   2.649  1.1510  1.6824 -0.8508
   52MOL   H25929941   4.172   6.566   2.592 -0.7205 -1.2810  1.4064
   52MOL   H26029942   4.193   6.291   2.548 -0.2658 -0.4771  0.0658
   52MOL   H26129943   4.197   6.534   2.326 -0.7049 -0.2984 -0.3406
   52MOL   H26229944   4.121   6.379   2.369  2.7873 -1.7819  2.3112
   52MOL   C26329945   3.898   6.502   2.457  0.2077  0.1405  0.2380
   52MOL   C26429946   3.839   6.379   2.376  1.0619 -0.3558  1.0928
   52MOL   O26529947   3.884   6.262   2.438  0.4245  0.1094 -0.7085
   52MOL   C26629948   3.690   6.357   2.394  0.4515 -0.5923  0.0365
   52MOL   O26729949   3.653   6.229   2.350 -0.3327 -0.1228  0.3239
   52MOL   C26829950   3.528   6.186   2.408  0.4800  0.1281  0.5001
   52MOL   C26929951   3.422   6.182   2.298  0.2393 -0.9886 -0.0173
   52MOL   C27029952   3.284   6.147   2.354  0.0071 -0.5994  0.4302
   52MOL   O27129953   3.185   6.158   2.248  0.2942  0.1909  0.4439
   52MOL   C27229954   3.061   6.112   2.276  1.2470 -0.0818  0.0207
   52MOL   O27329955   2.977   6.212   2.334  0.5502 -0.3839 -0.2617
   52MOL   C27429956   2.991   6.069   2.142  0.3910 -0.4613  0.2105
   52MOL   O27529957   2.900   5.971   2.164  0.2225 -0.1754  0.1779
   52MOL   H27629958   3.828   6.584   2.442  0.7787  0.3178 -1.6378
   52MOL   H27729959   3.912   6.480   2.562  0.8460 -0.3259  0.0569
   52MOL   H27829960   3.865   6.384   2.270  0.1370 -2.1532  0.7553
   52MOL   H27929961   3.824   6.196   2.408  0.2314 -0.2629  0.4666
   52MOL   H28029962   3.658   6.385   2.495  0.8734 -0.2853  0.0837
   52MOL   H28129963   3.628   6.425   2.335  3.1236  0.9814 -0.9969
   52MOL   H28229964   3.492   6.250   2.489 -2.0803 -0.8950  0.1971
   52MOL   H28329965   3.536   6.088   2.457 -1.1001 -0.6672 -0.7985
   52MOL   H28429966   3.444   6.101   2.228  2.1070 -2.0974  1.7748
   52MOL   H28529967   3.405   6.277   2.248  1.0194 -1.4073 -1.0950
   52MOL   H28629968   3.298   6.048   2.397  1.5989  0.5662  2.6765
   52MOL   H28729969   3.264   6.204   2.445 -0.7559  0.1192 -0.1799
   52MOL   H28829970   3.074   6.035   2.352  0.9185  1.9858  2.2681
   52MOL   H28929971   2.947   6.271   2.267 -0.7989 -0.6345  0.0991
   52MOL   H29029972   2.962   6.164   2.096 -1.8267 -0.4669  1.5150
   52MOL   H29129973   3.072   6.036   2.077 -1.5076  1.5670 -3.3163
   52MOL   C29229974   2.838   5.930   2.044 -0.3073  0.3872 -0.1617
   52MOL   C29329975   2.721   5.835   2.085  0.5520 -0.3134 -0.0238
   52MOL   O29429976   2.614   5.912   2.130  0.8662 -0.6918 -0.0256
   52MOL   C29529977   2.663   5.741   1.977  0.1400  0.0041 -0.2523
   52MOL   O29629978   2.611   5.621   2.029  0.9480 -1.2589  0.4003
   52MOL   C29729979   2.582   5.513   1.944 -0.0527  0.0120 -0.5488
   52MOL   C29829980   2.491   5.544   1.831  0.1804 -0.3680  0.1723
   52MOL   C29929981   2.467   5.410   1.760 -0.0605 -1.0187  1.0954
   52MOL   O30029982   2.394   5.441   1.639 -0.0531 -0.7294 -0.0618
   52MOL   C30129983   2.377   5.336   1.552 -0.4133  0.0343 -0.4525
   52MOL   O30229984   2.322   5.225   1.618  0.1597  0.3088  0.1871
   52MOL   C30329985   2.274   5.378   1.441  0.4167  0.0756  0.5060
   52MOL   O30429986   2.335   5.353   1.311 -0.0178  0.3752  0.0073
   52MOL   H30529987   2.800   6.019   1.994 -3.1575 -1.2513 -1.0513
   52MOL   H30629988   2.906   5.885   1.972  1.3906  3.2322 -0.4139
   52MOL   H30729989   2.763   5.787   2.173 -1.4290 -1.5826  0.2725
   52MOL   H30829990   2.630   5.965   2.206 -0.8678 -0.6398  0.3225
   52MOL   H30929991   2.591   5.778   1.903  0.8531  2.3992  0.2085
   52MOL   H31029992   2.755   5.713   1.926  1.2270 -0.2919  1.8615
   52MOL   H31129993   2.531   5.451   2.018 -1.4460  2.3924  0.5503
   52MOL   H31229994   2.668   5.455   1.911  0.8179  1.5350 -1.0196
   52MOL   H31329995   2.537   5.611   1.759  0.5463 -0.4358  0.3424
   52MOL   H31429996   2.403   5.598   1.866  1.3595  1.3381  0.5823
   52MOL   H31529997   2.563   5.360   1.748 -0.1141 -0.5197 -1.7854
   52MOL   H31629998   2.405   5.343   1.820 -0.9705 -1.1220  0.0522
   52MOL   H31729999   2.473   5.305   1.511 -1.5984 -1.2682 -2.3613
   52MOL   H31830000   2.242   5.256   1.657 -0.7375 -0.1761 -1.2532
   52MOL   H31930001   2.267   5.487   1.447 -2.2492  0.0079 -0.7721
   52MOL   H32030002   2.174   5.342   1.462  0.8386  0.4401  3.3471
   52MOL   C32130003   2.326   5.212   1.282 -0.1130 -0.6937 -0.0344
   52MOL   C32230004   2.416   5.186   1.158 -0.2655 -0.0824  0.1769
   52MOL   O32330005   2.550   5.190   1.203 -0.5004 -0.4854 -0.3626
   52MOL   C32430006   2.396   5.050   1.084 -0.2657  0.4886 -0.4443
   52MOL   O32530007   2.499   5.046   0.979 -0.6430  0.0655  0.0676
   52MOL   C32630008   2.469   4.982   0.858  0.3359  0.0391  0.0175
   52MOL   C32730009   2.577   5.017   0.750  0.3668  0.3526  0.4235
   52MOL   C32830010   2.678   4.906   0.745  0.2755 -0.3503 -0.0766
   52MOL   O32930011   2.783   4.939   0.650  0.4742 -0.2831 -0.0446
   52MOL   C33030012   2.876   4.834   0.637 -0.0568 -0.1867  0.0037
   52MOL   O33130013   2.818   4.707   0.597  0.3155 -0.2717  0.8082
   52MOL   C33230014   2.971   4.873   0.521  0.8173  0.9901  0.3981
   52MOL   O33330015   2.890   4.888   0.401 -0.8806  0.6723 -0.5130
   52MOL   H33430016   2.220   5.188   1.272 -0.7282  0.3725  3.2534
   52MOL   H33530017   2.356   5.142   1.360  0.8154  0.6616  0.8417
   52MOL   H33630018   2.416   5.272   1.091  1.1971 -0.3522 -0.1884
   52MOL   H33730019   2.590   5.141   1.132 -2.0994  0.5741 -2.0676
   52MOL   H33830020   2.295   5.034   1.047 -0.4931 -0.6139  0.6207
   52MOL   H33930021   2.408   4.966   1.153 -0.4208  0.4848 -0.4234
   52MOL   H34030022   2.377   5.025   0.820 -0.8502 -1.8121  0.7541
   52MOL   H34130023   2.453   4.876   0.879 -1.9295 -0.0181 -1.8424
   52MOL   H34230024   2.526   5.037   0.655  2.6848  1.0647 -0.6868
   52MOL   H34330025   2.626   5.107   0.785  0.7474  0.5546 -0.6278
   52MOL   H34430026   2.725   4.889   0.842  1.2882 -1.1527 -0.6884
   52MOL   H34530027   2.631   4.814   0.710  0.1107 -0.6364  0.8700
   52MOL   H34630028   2.935   4.823   0.728 -1.3753 -0.0629  0.8758
   52MOL   H34730029   2.774   4.723   0.515  0.2459 -1.6798  0.5576
   52MOL   H34830030   3.024   4.964   0.549  4.8306 -0.0311 -3.3647
   52MOL   H34930031   3.042   4.793   0.499 -1.9447 -1.4776  0.2361
   52MOL   C35030032   2.944   4.957   0.290  0.0026 -0.5665  0.3488
   52MOL   C35130033   2.873   4.907   0.168 -0.9224 -0.3131 -0.6456
   52MOL   O35230034   2.741   4.969   0.182  0.8053  0.5145  0.6422
   52MOL   C35330035   2.935   4.969   0.044 -0.1304 -0.7444 -0.0781
   52MOL   O35430036   2.870   4.923   7.623  0.4081 -0.4019  0.7601
   52MOL   C35530037   2.938   4.988   7.516 -0.0996 -0.6560  0.4393
   52MOL   C35630038   2.868   4.949   7.385 -0.4255  0.2421  1.0004
   52MOL   C35730039   2.867   4.803   7.351  0.6107 -0.5672 -0.2436
   52MOL   O35830040   2.798   4.811   7.229  0.1608 -1.0678 -0.3943
   52MOL   C35930041   2.774   4.693   7.170  0.0248 -0.3284  0.2011
   52MOL   O36030042   2.668   4.624   7.232  0.2468  0.6243 -0.5608
   52MOL   C36130043   2.725   4.718   7.024 -0.3824  0.1876  0.7104
   52MOL   O36230044   2.843   4.752   6.945  0.1873  0.1638  0.5175
   52MOL   H36330045   3.049   4.925   0.288 -0.2958 -1.4732 -1.6131
   52MOL   H36430046   2.938   5.066   0.296  1.1711 -0.4008 -1.2520
   52MOL   H36530047   2.873   4.799   0.157  2.4442 -0.2902 -1.4567
   52MOL   H36630048   2.684   4.941   0.112  1.6111 -1.7849  0.8388
   52MOL   H36730049   2.935   5.077   0.060  0.9079 -0.2571 -3.0122
   52MOL   H36830050   3.036   4.928   0.053 -1.2665 -3.2626  1.8568
   52MOL   H36930051   3.038   4.946   7.507 -0.5253 -1.5683 -0.1174
   52MOL   H37030052   2.939   5.096   7.529 -1.5213 -0.5247 -0.4291
   52MOL   H37130053   2.921   5.004   7.307 -2.8438  0.4841 -0.5072
   52MOL   H37230054   2.766   4.987   7.380 -0.8170 -0.7233  1.5538
   52MOL   H37330055   2.965   4.764   7.326  0.7488 -1.6892  1.9405
   52MOL   H37430056   2.818   4.737   7.422 -0.2787  0.8175  0.4519
   52MOL   H37530057   2.859   4.626   7.179  1.1519  0.9715 -0.6774
   52MOL   H37630058   2.585   4.669   7.221 -0.2468  0.5620  2.4185
   52MOL   H37730059   2.687   4.622   6.990  0.0961  0.8180 -1.6738
   52MOL   H37830060   2.641   4.787   7.027 -0.7145 -0.1172 -1.0441
   52MOL   C37930061   2.812   4.774   6.810 -0.3054 -0.6969  0.4591
   52MOL   C38030062   2.778   4.927   6.784 -0.4912 -0.3195 -0.0710
   52MOL   O38130063   2.900   4.987   6.740 -0.3119  0.3315 -0.4742
   52MOL   C38230064   2.677   4.952   6.676  0.1079 -0.6622  0.2318
   52MOL   O38330065   2.549   4.907   6.714 -0.7992  1.0165  0.2567
   52MOL   C38430066   2.451   4.984   6.644 -1.0219 -0.6302  0.1868
   52MOL   C38530067   2.310   4.934   6.672  0.0444 -0.1448  0.2613
   52MOL   C38630068   2.306   4.783   6.647 -0.1543 -0.3606 -0.6510
   52MOL   O38730069   2.175   4.750   6.683  0.1742 -0.0522 -0.2651
   52MOL   C38830070   2.132   4.625   6.642 -0.6762 -0.3306 -0.0962
   52MOL   O38930071   2.196   4.523   6.710  0.6058 -0.3153  0.5338
   52MOL   C39030072   1.981   4.628   6.661 -0.0817 -0.2767  0.0316
   52MOL   O39130073   1.905   4.620   6.541 -0.1049  0.5087  0.2271
   52MOL   H39230074   2.742   4.702   6.770 -1.5853  0.1344  1.1674
   52MOL   H39330075   2.898   4.748   6.748  1.0889 -0.7067  2.3514
   52MOL   H39430076   2.740   4.969   6.877 -1.7043 -0.5039 -0.4835
   52MOL   H39530077   2.930   4.944   6.661 -1.8365 -3.3668  0.8278
   52MOL   H39630078   2.678   5.055   6.639  0.4962 -0.8065 -0.1520
   52MOL   H39730079   2.697   4.893   6.587 -1.2007  0.2839 -0.7003
   52MOL   H39830080   2.467   4.980   6.537  0.0779 -1.3467  0.3684
   52MOL   H39930081   2.459   5.090   6.664  0.3718 -0.9103  1.1984
   52MOL   H40030082   2.233   4.985   6.614  0.3589 -2.4284 -2.2615
   52MOL   H40130083   2.286   4.957   6.776  1.6289 -1.7741  1.0179
   52MOL   H40230084   2.322   4.782   6.539  0.6135 -0.4136 -0.5406
   52MOL   H40330085   2.378   4.721   6.699 -2.6335 -1.2889  1.7681
   52MOL   H40430086   2.164   4.613   6.538  0.9492 -1.4011  0.5083
   52MOL   H40530087   2.191   4.442   6.661 -1.4285 -0.3392  0.7262
   52MOL   H40630088   1.949   4.544   6.722  1.2488 -1.9761 -1.5594
   52MOL   H40730089   1.955   4.715   6.723  1.7708 -0.2978  0.8716
   52MOL   C40830090   1.920   4.723   6.447 -0.4953  0.5043  0.1064
   52MOL   C40930091   1.823   4.713   6.322  0.5648  0.3833 -0.0238
   52MOL   O41030092   1.885   4.624   6.236 -0.5062  0.1618  0.3923
   52MOL   C41130093   1.799   4.850   6.256 -0.0603  0.1047 -0.0225
   52MOL   O41230094   1.683   4.829   6.173 -0.2703 -0.6142 -0.0001
   52MOL   C41330095   1.620   4.947   6.132 -0.0988 -1.1553 -0.1551
   52MOL   C41430096   1.494   4.919   6.063 -0.3384 -0.9388 -1.0448
   52MOL   C41530097   1.408   5.042   6.008  0.2364  0.1635 -0.4664
   52MOL   O41630098   1.484   5.116   5.918  0.3111  0.1363  0.1855
   52MOL   C41730099   1.432   5.238   5.876 -0.3203 -0.2485 -0.1835
   52MOL   O41830100   1.334   5.230   5.781  0.0235 -0.5341 -0.5006
   52MOL   C41930101   1.540   5.333   5.822  0.4796  0.5946  0.2037
   52MOL   O42030102   1.609   5.397   5.925 -0.2328  0.5442  0.1627
   52MOL   H42130103   2.018   4.725   6.399 -0.2978  0.7575  0.5222
   52MOL   H42230104   1.905   4.823   6.488 -1.5930 -0.0888  1.1646
   52MOL   H42330105   1.729   4.667   6.352  1.4441 -1.4762 -0.0303
   52MOL   H42430106   1.820   4.569   6.196  1.5866 -1.5719 -0.6997
   52MOL   H42530107   1.782   4.925   6.334 -0.5422  0.9476 -0.9219
   52MOL   H42630108   1.880   4.893   6.197  1.2178  0.0442  1.6384
   52MOL   H42730109   1.593   5.016   6.212  0.4919 -0.2084 -0.7649
   52MOL   H42830110   1.690   5.005   6.073 -0.3725 -0.3337  0.3131
   52MOL   H42930111   1.436   4.867   6.140  0.0566 -0.2932 -0.2990
   52MOL   H43030112   1.509   4.843   5.987  1.9260 -1.7878  0.2037
   52MOL   H43130113   1.315   5.002   5.968 -0.2185  0.8182 -0.0752
   52MOL   H43230114   1.380   5.097   6.098 -0.0230  1.7742 -1.5269
   52MOL   H43330115   1.383   5.295   5.955  0.7130  1.5910 -0.8362
   52MOL   H43430116   1.373   5.189   5.705  2.1895  0.5846 -0.0215
   52MOL   H43530117   1.617   5.276   5.771 -0.7769  0.6994 -1.8317
   52MOL   H43630118   1.487   5.411   5.767 -1.8841  0.0102  1.5644
   52MOL   C43730119   1.552   5.523   5.966 -0.0117  0.7247  0.2512
   52MOL   C43830120   1.639   5.562   6.082  0.7900 -0.0841  0.3136
   52MOL   O43930121   1.570   5.517   6.201 -0.5405 -0.3941  0.1083
   52MOL   C44030122   1.651   5.718   6.095 -0.1092 -0.8984 -0.0222
   52MOL   O44130123   1.521   5.768   6.131 -0.0253  0.4448  0.1538
   52MOL   C44230124   1.511   5.908   6.132 -0.5568  0.7992 -0.2380
   52MOL   C44330125   1.553   5.962   6.274 -0.2924 -0.0164  0.0037
   52MOL   C44430126   1.514   6.113   6.289 -0.3175 -0.2992  0.4383
   52MOL   O44530127   1.618   6.193   6.235  0.1991  0.0102  0.1405
   52MOL   C44630128   1.578   6.327   6.196  0.1283 -0.0187  0.0051
   52MOL   O44730129   1.510   6.321   6.073 -0.2285 -0.1198 -0.2297
   52MOL   C44830130   1.690   6.430   6.186  0.4983  0.0762  0.0586
   52MOL   O44930131   1.763   6.428   6.307 -0.0279  0.6046 -0.3745
   52MOL   H45030132   1.571   5.592   5.884  2.5064  1.7667  1.6517
   52MOL   H45130133   1.445   5.526   5.988  0.3542  0.9486  2.1360
   52MOL   H45230134   1.736   5.513   6.071  0.3754 -0.6842 -0.7695
   52MOL   H45330135   1.512   5.590   6.217  0.7260  0.8414 -0.7990
   52MOL   H45430136   1.733   5.744   6.163 -1.0214  2.8645 -0.2389
   52MOL   H45530137   1.684   5.760   6.000 -2.2711  0.6426 -0.1305
   52MOL   H45630138   1.408   5.938   6.113 -0.3685  1.8360  0.3799
   52MOL   H45730139   1.558   5.957   6.046  0.1638 -0.5564 -0.6340
   52MOL   H45830140   1.661   5.953   6.288 -0.3490  0.4322  0.7403
   52MOL   H45930141   1.502   5.906   6.351 -0.4836  0.5502  0.2874
   52MOL   H46030142   1.426   6.131   6.227  0.3917  0.4452 -0.3752
   52MOL   H46130143   1.491   6.132   6.394 -1.2798 -1.8847  0.5164
   52MOL   H46230144   1.501   6.362   6.264  0.3205 -0.2611  0.3488
   52MOL   H46330145   1.519   6.404   6.029  0.1239 -0.0024  0.0583
   52MOL   H46430146   1.760   6.410   6.106 -0.6037 -0.4597 -0.7986
   52MOL   H46530147   1.650   6.529   6.164  1.3632  0.0713 -1.5745
   52MOL   C46630148   1.865   6.520   6.294  0.3655  0.5304  0.0625
   52MOL   C46730149   1.936   6.509   6.434  0.4605  0.8750 -0.0790
   52MOL   O46830150   1.873   6.583   6.539 -0.0397  0.3506 -0.1944
   52MOL   C46930151   1.965   6.358   6.486 -0.2313 -0.5627  0.2465
   52MOL   O47030152   2.086   6.357   6.565  0.6027  0.2692 -0.0362
   52MOL   C47130153   2.145   6.227   6.568  0.5779 -0.1600 -0.6985
   52MOL   C47230154   2.277   6.228   6.633  0.2698 -0.4794  0.7865
   52MOL   C47330155   2.328   6.086   6.666 -0.5067  0.1522  0.0732
   52MOL   O47430156   2.446   6.106   6.745 -0.2125 -0.0340  0.1268
   52MOL   C47530157   2.514   5.982   6.776  0.1223  0.2785  0.6741
   52MOL   O47630158   2.440   5.906   6.865 -0.4541  0.0611 -0.3193
   52MOL   C47730159   2.655   6.015   6.823  0.3743  0.5128 -0.6871
   52MOL   O47830160   2.751   5.980   6.725 -0.7902  0.0857 -0.1909
   52MOL   H47930161   1.831   6.623   6.280 -0.8582  0.1340  0.0691
   52MOL   H48030162   1.927   6.490   6.210 -2.1165  2.0569 -2.3711
   52MOL   H48130163   2.035   6.554   6.420  1.9761 -2.1203  0.6227
   52MOL   H48230164   1.809   6.637   6.497  1.0561  0.2732 -2.0397
   52MOL   H48330165   1.880   6.318   6.542 -0.8749  1.6328  0.9041
   52MOL   H48430166   1.985   6.305   6.393 -1.0675  0.5364 -0.5692
   52MOL   H48530167   2.156   6.184   6.469 -1.7075  0.0006 -1.0617
   52MOL   H48630168   2.072   6.171   6.627  0.7393  0.6462  0.2855
   52MOL   H48730169   2.287   6.288   6.724  1.7575 -1.3358  1.1943
   52MOL   H48830170   2.357   6.263   6.568 -1.4323 -0.1121 -1.1717
   52MOL   H48930171   2.253   6.040   6.731  1.0045  0.7735  2.3109
   52MOL   H49030172   2.343   6.016   6.584 -0.4267 -1.4973  1.4501
   52MOL   H49130173   2.513   5.931   6.680 -4.1185 -0.2480  0.9079
   52MOL   H49230174   2.440   5.957   6.944  2.4528 -2.2446  1.2855
   52MOL   H49330175   2.655   6.116   6.863  0.1686  0.1778  0.1565
   52MOL   H49430176   2.674   5.948   6.907  0.1694  2.3013  0.8181
   52MOL   C49530177   2.880   6.019   6.747 -0.2354  0.4064  0.0102
   52MOL   C49630178   2.968   5.917   6.672  0.8088  0.1740  0.1394
   52MOL   O49730179   2.987   5.920   6.534  0.1771  0.1637 -0.5046
   52MOL   C49830180   3.113   5.918   6.738  0.7831 -0.1942  0.5224
   52MOL   O49930181   3.161   6.045   6.729  0.5144 -0.0911 -0.1832
   52MOL   C50030182   3.287   6.054   6.790  0.0370 -0.1352  0.1938
   52MOL   C50130183   3.361   6.183   6.754  0.1372  0.0461 -0.1151
   52MOL   C50230184   3.471   6.215   6.855 -0.1059  0.0029  0.0067
   52MOL   O50330185   3.580   6.276   6.787 -0.3870  0.1328 -0.0027
   52MOL   C50430186   3.666   6.344   6.870 -0.3172 -0.3152 -0.4729
   52MOL   O50530187   3.611   6.472   6.899 -0.0168  0.0521  0.2333
   52MOL   C50630188   3.806   6.357   6.802  0.0685  0.6467 -0.1748
   52MOL   O50730189   3.786   6.439   6.696 -0.9747  0.0743 -0.4368
   52MOL   H50830190   2.901   6.004   6.852  2.2806  0.9695 -0.3997
   52MOL   H50930191   2.893   6.122   6.715  1.8638 -0.1143 -0.8434
   52MOL   H51030192   2.925   5.820   6.700  2.9790 -0.4827  1.3361
   52MOL   H51130193   2.955   6.006   6.509  1.3571  0.6765 -0.3212
   52MOL   H51230194   3.106   5.891   6.843  1.6896 -2.0445  0.1267
   52MOL   H51330195   3.179   5.844   6.691 -1.3477 -1.2802 -0.8264
   52MOL   H51430196   3.351   5.977   6.747  1.5451  0.1836  1.8167
   52MOL   H51530197   3.278   6.039   6.898  2.3482  0.4369  0.4901
   52MOL   H51630198   3.291   6.261   6.726 -0.2855  0.3537  1.7054
   52MOL   H51730199   3.426   6.161   6.670 -1.6805 -0.9325 -1.2830
   52MOL   H51830200   3.427   6.278   6.932 -1.5317 -0.4313 -0.4458
   52MOL   H51930201   3.505   6.124   6.905  1.2530 -0.7139 -2.1407
   52MOL   H52030202   3.686   6.294   6.965  0.1805  2.3601  0.8660
   52MOL   H52130203   3.569   6.493   6.817  1.1243  0.5241 -0.2272
   52MOL   H52230204   3.873   6.393   6.880  1.3428 -1.3591 -0.2948
   52MOL   H52330205   3.831   6.253   6.780 -2.3262 -0.4238  1.9005
   52MOL   C52430206   3.829   6.386   6.573  0.4417 -0.0398 -0.9945
   52MOL   C52530207   3.817   6.491   6.454 -0.1171 -0.2420 -0.0680
   52MOL   O52630208   3.676   6.513   6.432 -0.9242 -0.3765  0.6096
   52MOL   C52730209   3.865   6.444   6.316 -0.1480 -0.1872 -0.3500
   52MOL   O52830210   3.833   6.554   6.237 -0.3112 -0.1177  0.4755
   52MOL   C52930211   3.896   6.558   6.116 -0.3938 -0.1883  0.4992
   52MOL   C53030212   3.856   6.690   6.054  0.2062  0.4506  0.4727
   52MOL   C53130213   3.904   6.817   6.124 -0.4067  0.7297  0.1590
   52MOL   O53230214   3.912   6.915   6.021  0.0380 -0.2438  0.3490
   52MOL   C53330215   3.980   7.028   6.059  0.4374 -0.2563 -0.6458
   52MOL   O53430216   4.109   7.005   6.089 -0.1873 -0.0429 -0.4758
   52MOL   C53530217   3.969   7.129   5.937 -0.0827  0.4736 -0.2493
   52MOL   O53630218   4.014   7.082   5.811 -0.1671  0.7353  0.6827
   52MOL   H53730219   3.773   6.294   6.556  0.7684 -0.1082 -1.7019
   52MOL   H53830220   3.937   6.372   6.586  0.6875  1.9859 -0.6485
   52MOL   H53930221   3.839   6.591   6.491 -0.0713  0.6563 -2.4242
   52MOL   H54030222   3.660   6.539   6.342 -0.0944  2.3322  1.2033
   52MOL   H54130223   3.973   6.428   6.318 -0.1172  0.1221  2.5647
   52MOL   H54230224   3.810   6.358   6.278 -0.0772 -0.5726  0.3989
   52MOL   H54330225   3.877   6.466   6.062 -0.6660 -1.1922  2.2605
   52MOL   H54430226   4.002   6.574   6.137 -0.2783  0.0265 -0.2381
   52MOL   H54530227   3.751   6.687   6.024  0.4187 -0.4343 -0.2206
   52MOL   H54630228   3.902   6.692   5.955 -2.5450 -0.0326 -0.8699
   52MOL   H54730229   3.825   6.859   6.186 -1.4689  1.4553 -1.6171
   52MOL   H54830230   3.994   6.802   6.183  0.2086 -0.3760 -1.0356
   52MOL   H54930231   3.932   7.067   6.148 -0.6625 -0.7383 -1.0113
   52MOL   H55030232   4.150   6.974   6.010  0.6016 -1.1945  0.3730
   52MOL   H55130233   3.875   7.183   5.927  0.3020  1.1412 -0.2561
   52MOL   H55230234   4.034   7.210   5.969 -0.4088 -0.1759  2.1604
   52MOL   C55330235   3.921   6.993   5.738 -0.1542 -0.2181  0.0328
   52MOL   C55430236   4.003   6.871   5.695  0.1061  0.3797  0.2803
   52MOL   O55530237   4.088   6.913   5.592 -0.1320  0.1238  0.3933
   52MOL   C55630238   3.912   6.761   5.646  0.5755 -0.0501  1.0685
   52MOL   O55730239   3.984   6.644   5.659  0.3090 -0.1624  0.1608
   52MOL   C55830240   3.929   6.524   5.601 -0.1561 -0.5638 -0.2438
   52MOL   C55930241   3.828   6.457   5.686 -0.6261  0.0301 -0.2375
   52MOL   C56030242   3.744   6.349   5.600  0.1047  0.1295 -0.4042
   52MOL   O56130243   3.628   6.295   5.660 -1.2421 -0.8608 -0.3565
   52MOL   C56230244   3.590   6.174   5.599  0.3310 -0.5427  0.3490
   52MOL   O56330245   3.669   6.061   5.646 -0.0183 -0.5574 -0.1448
   52MOL   C56430246   3.444   6.151   5.638  0.2374 -0.4880  0.0670
   52MOL   O56530247   3.344   6.211   5.559  0.3461  0.1532 -0.4545
   52MOL   H56630248   3.882   7.047   5.652 -0.1615  1.0956  0.8544
   52MOL   H56730249   3.835   6.961   5.796  1.6200 -1.0551  2.3094
   52MOL   H56830250   4.061   6.839   5.782 -0.7876  1.4119  1.2642
   52MOL   H56930251   4.145   6.985   5.614  0.8482 -0.5768  0.2127
   52MOL   H57030252   3.820   6.760   5.704  1.0714 -0.6107  1.8585
   52MOL   H57130253   3.876   6.781   5.545  1.4680 -0.4870  0.6606
   52MOL   H57230254   3.891   6.563   5.506  0.3579  1.0245  0.1956
   52MOL   H57330255   4.012   6.456   5.583 -0.4587 -0.8891 -0.4285
   52MOL   H57430256   3.760   6.540   5.707 -1.3785 -0.7346  0.3666
   52MOL   H57530257   3.877   6.423   5.777 -1.3909  1.5426  0.7550
   52MOL   H57630258   3.718   6.399   5.507 -0.1615  0.6460 -0.0554
   52MOL   H57730259   3.820   6.276   5.573  0.9229  1.3985 -1.6207
   52MOL   H57830260   3.593   6.180   5.490 -1.8343  1.2970  0.3613
   52MOL   H57930261   3.614   5.985   5.656  0.6007 -0.9862 -0.0172
   52MOL   H58030262   3.429   6.044   5.645  2.4484 -0.8075  0.4721
   52MOL   H58130263   3.430   6.195   5.736 -3.7079 -1.7839  0.1451
   52MOL   H58230264   3.387   6.279   5.509  1.3088 -0.6500 -0.7214
   53MOL     C130265   5.482   3.998   4.951 -0.4265  0.5767  0.3876
   53MOL     C230266   5.572   4.112   4.904  0.0914 -0.0383  0.0856
   53MOL     O330267   5.697   4.083   4.942 -0.5786  0.0034 -0.4685
   53MOL     C430268   5.578   4.122   4.747 -0.4719  0.2266 -0.4140
   53MOL     O530269   5.635   3.999   4.701 -0.6510  0.1613 -0.1042
   53MOL     C630270   5.634   3.999   4.556 -0.8809 -0.6952 -0.4859
   53MOL     C730271   5.698   3.869   4.514  0.6792  0.7806 -0.3067
   53MOL     C830272   5.669   3.829   4.370 -0.9335 -0.0564  0.5534
   53MOL     O930273   5.739   3.932   4.298  0.2351 -0.3925  0.0168
   53MOL    C1030274   5.700   3.944   4.165  0.5769  0.4851 -0.1636
   53MOL    O1130275   5.763   3.840   4.085 -0.2661 -0.3051  0.1402
   53MOL    C1230276   5.753   4.079   4.115  0.4629  0.1604 -0.7976
   53MOL    O1330277   5.891   4.080   4.152 -0.1007  0.3543 -0.3063
   53MOL    H1430278   5.524   3.902   4.920 -1.4545  0.7815 -1.7326
   53MOL    H1530279   5.387   4.011   4.898 -0.9585 -0.7975  0.9719
   53MOL    H1630280   5.539   4.210   4.938  2.4014  1.0849 -0.8169
   53MOL    H1730281   5.732   4.026   4.874  0.6861  1.1767 -0.8146
   53MOL    H1830282   5.482   4.144   4.699 -1.2746  0.0495  1.0946
   53MOL    H1930283   5.645   4.198   4.706  1.6735 -1.6286 -0.4375
   53MOL    H2030284   5.683   4.086   4.511 -0.9086 -0.6321 -0.3940
   53MOL    H2130285   5.532   4.007   4.520 -0.3187  1.4277 -1.6991
   53MOL    H2230286   5.657   3.795   4.583  0.3305  1.2111 -0.0555
   53MOL    H2330287   5.806   3.871   4.529  0.9935  0.2345 -2.3024
   53MOL    H2430288   5.709   3.732   4.341 -0.2454  0.9636 -2.1332
   53MOL    H2530289   5.561   3.825   4.356 -0.8708 -0.5970  0.2199
   53MOL    H2630290   5.592   3.943   4.153  0.5252  3.4612 -0.5007
   53MOL    H2730291   5.854   3.859   4.097  0.3424 -2.4798 -0.7452
   53MOL    H2830292   5.736   4.087   4.008  1.1025 -1.2448 -1.0206
   53MOL    H2930293   5.699   4.161   4.162  0.4819 -0.7900  0.9398
   53MOL    H3030294   5.475   4.006   5.059  1.7502  2.1044  0.4315
   53MOL    C3130295   5.966   4.179   4.086  0.2693  0.3127  0.3273
   53MOL    C3230296   6.043   4.113   3.978 -0.0859 -0.4498 -0.1083
   53MOL    O3330297   5.958   4.082   3.867  0.9140  0.1839 -1.3542
   53MOL    C3430298   6.126   3.983   4.015 -0.3447  0.0478 -0.2690
   53MOL    O3530299   6.045   3.885   4.059 -0.2280 -0.8193  0.2721
   53MOL    C3630300   6.105   3.773   4.118  0.3366  0.0297 -0.1186
   53MOL    C3730301   6.009   3.672   4.173  0.1285  0.1809  0.0700
   53MOL    C3830302   6.071   3.546   4.220 -0.1041 -0.1097 -0.2021
   53MOL    O3930303   5.978   3.466   4.292  0.2388  0.5196  0.0947
   53MOL    C4030304   6.037   3.363   4.379  0.1341  0.1699 -0.0151
   53MOL    O4130305   6.052   3.239   4.301  0.1120 -0.0556 -0.3348
   53MOL    C4230306   5.927   3.336   4.489 -0.9227 -0.2039  0.1287
   53MOL    O4330307   5.988   3.264   4.590 -0.1682  0.1573  0.5097
   53MOL    H4430308   5.910   4.264   4.047 -0.6337  0.7651  2.4943
   53MOL    H4530309   6.031   4.221   4.163  0.0583  1.1936  0.0196
   53MOL    H4630310   6.117   4.186   3.947  0.4047 -0.5604  0.7689
   53MOL    H4730311   5.893   4.018   3.893 -0.5497  2.6935  1.4699
   53MOL    H4830312   6.183   3.939   3.933  1.3727 -0.8839  1.3824
   53MOL    H4930313   6.206   4.003   4.086 -1.3901 -0.7321  1.1495
   53MOL    H5030314   6.165   3.809   4.202 -1.0178  1.5901  0.2056
   53MOL    H5130315   6.160   3.717   4.042  0.2663 -0.6252  0.3126
   53MOL    H5230316   5.942   3.643   4.093 -1.4247  0.6746  1.1670
   53MOL    H5330317   5.928   3.702   4.239 -0.1289  0.3799 -0.3354
   53MOL    H5430318   6.115   3.493   4.135  1.0501 -1.4288  1.1982
   53MOL    H5530319   6.152   3.558   4.291 -0.8873 -0.4859  0.7543
   53MOL    H5630320   6.128   3.384   4.436  1.6948 -2.1537 -1.5604
   53MOL    H5730321   6.034   3.162   4.353 -0.4822 -0.6937 -1.4590
   53MOL    H5830322   5.907   3.437   4.526  0.4041  0.4092 -0.7952
   53MOL    H5930323   5.832   3.294   4.455 -0.9443  1.6812 -2.2361
   53MOL    C6030324   5.911   3.261   4.713  0.5615 -0.1301  0.0198
   53MOL    C6130325   5.843   3.126   4.722  0.0494  0.1987  0.1013
   53MOL    O6230326   5.741   3.119   4.625  0.6332  0.1150 -0.5219
   53MOL    C6330327   5.764   3.116   4.851  0.5180  0.0720 -0.4775
   53MOL    O6430328   5.670   3.222   4.856  0.1500 -0.6016 -0.0197
   53MOL    C6530329   5.581   3.197   4.966 -0.3734  0.2827 -0.0169
   53MOL    C6630330   5.430   3.175   4.924  0.3616 -0.3061  0.4153
   53MOL    C6730331   5.391   3.029   4.929  0.6654 -0.4172 -0.3745
   53MOL    O6830332   5.452   2.968   4.813 -0.1199  0.1259 -0.1551
   53MOL    C6930333   5.438   2.832   4.794  0.6697  0.4523  0.4371
   53MOL    O7030334   5.307   2.810   4.755  0.4846 -0.0247  0.2893
   53MOL    C7130335   5.536   2.813   4.678  0.8981 -0.9044  0.0188
   53MOL    O7230336   5.663   2.759   4.718  0.1001  0.2937  0.6757
   53MOL    H7330337   5.842   3.345   4.714  0.5636 -0.1113 -1.2180
   53MOL    H7430338   5.984   3.265   4.794  2.1918  2.0736 -1.5224
   53MOL    H7530339   5.905   3.037   4.717 -0.4400 -0.0827 -1.2326
   53MOL    H7630340   5.675   3.183   4.645  0.0608 -0.8676  0.8510
   53MOL    H7730341   5.712   3.021   4.863 -2.5401  1.1677 -4.1953
   53MOL    H7830342   5.830   3.116   4.938 -0.7724 -1.1553  0.5381
   53MOL    H7930343   5.572   3.289   5.023 -0.2132  0.5786 -0.4665
   53MOL    H8030344   5.611   3.116   5.032 -0.1461  0.9570  0.7177
   53MOL    H8130345   5.418   3.231   4.832  2.2409  0.1343  0.4012
   53MOL    H8230346   5.381   3.232   5.003  0.1941  1.1091 -0.6974
   53MOL    H8330347   5.283   3.016   4.922  0.7298 -0.9353 -0.3966
   53MOL    H8430348   5.430   2.986   5.021  1.4722 -1.5789 -1.2553
   53MOL    H8530349   5.467   2.779   4.884  1.6231  0.8263  0.3579
   53MOL    H8630350   5.299   2.847   4.669 -0.0888  0.3101  0.4873
   53MOL    H8730351   5.497   2.742   4.605  2.4907 -1.7009 -0.0812
   53MOL    H8830352   5.555   2.911   4.635 -2.2459  0.0669  0.6465
   53MOL    C8930353   5.750   2.747   4.612 -0.1565 -0.0641  1.0071
   53MOL    C9030354   5.872   2.668   4.645  0.1842  0.6965  0.1549
   53MOL    O9130355   5.828   2.537   4.669 -0.4936 -0.2321  0.4348
   53MOL    C9230356   5.984   2.671   4.548 -0.1057 -0.2679 -0.7923
   53MOL    O9330357   6.104   2.636   4.606  0.2992  0.1672 -0.3033
   53MOL    C9430358   6.201   2.609   4.513 -0.2357 -0.7768 -0.6898
   53MOL    C9530359   6.203   2.466   4.468  0.2728  0.4378 -0.2042
   53MOL    C9630360   6.302   2.448   4.344  1.1099 -0.0635  0.0582
   53MOL    O9730361   6.218   2.395   4.233  0.1233 -0.1713  0.0112
   53MOL    C9830362   6.288   2.374   4.116 -0.3581  0.1334 -0.2452
   53MOL    O9930363   6.376   2.265   4.118 -0.6598 -0.1285 -0.2540
   53MOL   C10030364   6.190   2.343   4.012  0.5259 -0.1742 -0.2857
   53MOL   O10130365   6.140   2.211   4.028 -0.6837  0.1217  0.0133
   53MOL   H10230366   5.782   2.845   4.576 -2.0697  0.5202  0.8008
   53MOL   H10330367   5.695   2.705   4.527 -0.8289 -1.3892  2.0839
   53MOL   H10430368   5.916   2.709   4.736 -0.2983 -2.5849  1.9334
   53MOL   H10530369   5.905   2.488   4.693  1.1574  2.1474  0.1590
   53MOL   H10630370   5.961   2.609   4.461  1.4210 -1.9513 -0.0341
   53MOL   H10730371   6.000   2.771   4.509  1.3934 -0.7964 -1.5623
   53MOL   H10830372   6.291   2.643   4.565  1.0991 -1.4178 -2.5525
   53MOL   H10930373   6.180   2.669   4.425 -1.6937 -1.4626 -0.8220
   53MOL   H11030374   6.102   2.436   4.437 -0.6138 -2.0951  4.6791
   53MOL   H11130375   6.228   2.400   4.551  0.1337 -0.2595 -0.7127
   53MOL   H11230376   6.341   2.540   4.300 -0.8472  0.9612  0.4308
   53MOL   H11330377   6.379   2.372   4.359  1.0693 -0.3064 -0.9022
   53MOL   H11430378   6.341   2.467   4.093  2.5500 -1.6748 -1.1565
   53MOL   H11530379   6.323   2.189   4.138  0.2636 -1.7346 -3.5159
   53MOL   H11630380   6.112   2.419   4.012 -0.5924 -1.3097 -0.9564
   53MOL   H11730381   6.241   2.344   3.916 -1.0192  1.0096 -1.1167
   53MOL   C11830382   6.048   2.181   3.923  1.0123 -0.0794  0.0247
   53MOL   C11930383   5.935   2.086   3.963  0.6552 -0.5512  0.4872
   53MOL   O12030384   5.995   1.959   4.000  0.1751  0.2846 -0.2458
   53MOL   C12130385   5.843   2.054   3.846  0.0647 -0.4565  0.2399
   53MOL   O12230386   5.757   2.161   3.803  0.0734 -0.0743 -0.5570
   53MOL   C12330387   5.678   2.121   3.686 -0.2640 -0.2001 -0.0431
   53MOL   C12430388   5.570   2.224   3.653  0.5280  0.2478  0.2402
   53MOL   C12530389   5.612   2.350   3.571  0.4631  0.3057 -0.1735
   53MOL   O12630390   5.495   2.421   3.528 -0.1775  0.0438  0.5319
   53MOL   C12730391   5.528   2.549   3.483  0.1454 -0.0941 -0.6649
   53MOL   O12830392   5.572   2.640   3.590 -0.3227 -0.3190 -0.2657
   53MOL   C12930393   5.403   2.606   3.409  0.7619  0.2793 -0.3633
   53MOL   O13030394   5.417   2.565   3.275  0.2627 -0.1633  0.2603
   53MOL   H13130395   6.001   2.276   3.898  0.2239 -0.8956 -1.6161
   53MOL   H13230396   6.104   2.147   3.836  1.2813 -0.3080  0.2857
   53MOL   H13330397   5.868   2.138   4.032  0.7753  1.1268 -0.6250
   53MOL   H13430398   6.086   1.963   3.975 -0.3285 -0.4738 -2.3030
   53MOL   H13530399   5.904   2.020   3.762 -1.1803 -1.6304 -0.2133
   53MOL   H13630400   5.776   1.974   3.879  1.4758 -1.0442  1.7217
   53MOL   H13730401   5.628   2.029   3.715 -0.5292 -0.2132 -0.5519
   53MOL   H13830402   5.751   2.106   3.607 -1.0839 -0.5581 -0.7361
   53MOL   H13930403   5.543   2.258   3.753  1.1435 -0.2317  0.5748
   53MOL   H14030404   5.489   2.165   3.611  1.9363 -0.9194 -0.8842
   53MOL   H14130405   5.680   2.409   3.632 -0.5040  2.7022 -1.3113
   53MOL   H14230406   5.667   2.326   3.480 -1.6526 -0.9107 -1.1736
   53MOL   H14330407   5.615   2.540   3.419 -0.9190 -1.8674 -1.8874
   53MOL   H14430408   5.665   2.625   3.597 -0.2922 -0.7664 -1.5952
   53MOL   H14530409   5.313   2.583   3.465 -0.0850 -2.3282 -2.6682
   53MOL   H14630410   5.411   2.714   3.420 -1.3676  0.1859  2.4453
   53MOL   C14730411   5.299   2.580   3.196 -0.0973 -0.7632  0.3410
   53MOL   C14830412   5.241   2.726   3.195  0.4323  0.6568  0.0313
   53MOL   O14930413   5.113   2.722   3.119  0.4558  0.0591  0.2903
   53MOL   C15030414   5.325   2.824   3.115  0.4156  0.7609 -0.3931
   53MOL   O15130415   5.399   2.911   3.198 -0.3296 -0.0657  0.1313
   53MOL   C15230416   5.330   3.027   3.249 -0.3162 -1.0254  0.6460
   53MOL   C15330417   5.425   3.105   3.346 -0.1552  0.0379 -0.3842
   53MOL   C15430418   5.357   3.207   3.436 -0.4113  0.4403 -0.8374
   53MOL   O15530419   5.459   3.283   3.491  0.0267 -0.2267 -0.1593
   53MOL   C15630420   5.435   3.334   3.624  0.0070  0.4145 -0.2849
   53MOL   O15730421   5.450   3.224   3.712 -0.3837  0.5402 -0.1975
   53MOL   C15830422   5.297   3.414   3.635  0.3247  0.1138  0.2357
   53MOL   O15930423   5.313   3.553   3.600 -0.0163 -0.1253 -0.3576
   53MOL   H16030424   5.231   2.504   3.234 -1.3154 -0.0100 -0.2855
   53MOL   H16130425   5.330   2.561   3.093 -0.9731 -2.2414  0.3417
   53MOL   H16230426   5.218   2.760   3.296  1.0762  0.4070  0.2665
   53MOL   H16330427   5.053   2.673   3.173  0.3224 -1.2906 -1.0549
   53MOL   H16430428   5.408   2.769   3.070  1.0226  0.1854  1.3560
   53MOL   H16530429   5.273   2.871   3.032 -4.0171 -1.6478  0.8656
   53MOL   H16630430   5.241   2.997   3.304  0.0385 -2.4989  0.4463
   53MOL   H16730431   5.288   3.094   3.174  0.6828  1.4604  2.2773
   53MOL   H16830432   5.506   3.160   3.298 -0.5943  2.5944  1.6952
   53MOL   H16930433   5.455   3.025   3.415 -1.0105 -0.0385 -0.0986
   53MOL   H17030434   5.299   3.279   3.378 -2.1021 -0.0159  0.2611
   53MOL   H17130435   5.285   3.162   3.505  0.9024  1.5087  1.2785
   53MOL   H17230436   5.512   3.403   3.657 -1.3873  1.1536  1.4659
   53MOL   H17330437   5.371   3.207   3.761 -0.5429  3.4202  0.6777
   53MOL   H17430438   5.215   3.360   3.588  0.8210  0.7963 -1.4407
   53MOL   H17530439   5.277   3.401   3.741  1.2371 -0.7424  0.3156
   53MOL   C17630440   5.252   3.585   3.477 -0.4882 -0.2583  0.3432
   53MOL   C17730441   5.238   3.744   3.473  0.2023 -0.2435  0.1486
   53MOL   O17830442   5.155   3.773   3.586  0.2082  0.2324 -0.1375
   53MOL   C17930443   5.167   3.788   3.347 -0.1543 -0.2207  0.3720
   53MOL   O18030444   5.169   3.924   3.315 -0.3719 -0.3070  0.5975
   53MOL   C18130445   5.051   3.994   3.322 -0.1623  0.1627 -0.1507
   53MOL   C18230446   4.944   3.952   3.215 -0.8801 -0.4736 -0.0855
   53MOL   C18330447   4.826   4.046   3.215  0.1440  0.7279 -0.7891
   53MOL   O18430448   4.728   4.008   3.114 -0.7285  0.6141  0.5781
   53MOL   C18530449   4.630   4.101   3.097  0.2369  0.2230  0.1148
   53MOL   O18630450   4.537   4.105   3.204  0.2451  0.5087  0.3303
   53MOL   C18730451   4.560   4.077   2.961  0.2052  0.2824 -0.2834
   53MOL   O18830452   4.607   4.163   2.866 -0.1015  0.3040 -0.1248
   53MOL   H18930453   5.153   3.541   3.469 -0.4987 -0.7342  2.6331
   53MOL   H19030454   5.300   3.545   3.388 -0.7773  0.5557 -0.1844
   53MOL   H19130455   5.334   3.795   3.484 -0.7788  1.0715  3.4918
   53MOL   H19230456   5.173   3.699   3.642 -0.8931  1.1327  1.4402
   53MOL   H19330457   5.228   3.731   3.276  0.8220 -1.2417  2.0089
   53MOL   H19430458   5.067   3.747   3.344 -1.7080  3.1146  3.4542
   53MOL   H19530459   5.079   4.098   3.308  1.6493 -0.1313  1.0671
   53MOL   H19630460   5.016   3.985   3.424  0.3055 -0.3287 -0.0287
   53MOL   H19730461   4.919   3.846   3.228  0.8100 -0.6718  1.9592
   53MOL   H19830462   4.999   3.955   3.121  1.1030  0.0011  1.0506
   53MOL   H19930463   4.779   4.033   3.313 -0.5270 -2.6351 -1.4655
   53MOL   H20030464   4.858   4.149   3.204  0.4614  0.8545  1.1151
   53MOL   H20130465   4.671   4.202   3.100 -0.8602  0.6738  0.4064
   53MOL   H20230466   4.489   4.024   3.198 -0.6132  1.0339  0.0841
   53MOL   H20330467   4.550   3.971   2.936  0.3773  0.4639 -1.1443
   53MOL   H20430468   4.459   4.115   2.979 -0.1255  0.1202 -1.7159
   53MOL   C20530469   4.720   4.117   2.795  0.6435 -0.4084 -0.7770
   53MOL   C20630470   4.793   4.231   2.727  0.3188  0.7882  0.0431
   53MOL   O20730471   4.849   4.308   2.829  0.2937 -0.0139  0.0272
   53MOL   C20830472   4.909   4.183   2.636  0.3726 -0.0741  0.1515
   53MOL   O20930473   4.943   4.296   2.557  0.3078  0.2683  0.8373
   53MOL   C21030474   5.043   4.376   2.610  0.5788 -0.0398 -0.2032
   53MOL   C21130475   5.096   4.452   2.490 -0.5818  0.3855 -0.4115
   53MOL   C21230476   5.228   4.521   2.531 -0.4825  0.0580 -0.0146
   53MOL   O21330477   5.202   4.611   2.633  0.4632 -0.4302  0.6124
   53MOL   C21430478   5.312   4.645   2.709  0.3704 -0.3058 -0.0119
   53MOL   O21530479   5.345   4.538   2.801  0.4942  0.0816  0.4161
   53MOL   C21630480   5.283   4.767   2.791  0.1346 -0.0096  0.1423
   53MOL   O21730481   5.314   4.890   2.728 -0.5700 -0.1491 -0.2472
   53MOL   H21830482   4.690   4.044   2.719  0.4613 -1.6921  0.5041
   53MOL   H21930483   4.794   4.075   2.863  0.4001  1.8437  0.9366
   53MOL   H22030484   4.720   4.284   2.666 -0.7899  1.8947  2.2299
   53MOL   H22130485   4.785   4.354   2.880  1.4950  0.2171  1.3527
   53MOL   H22230486   4.993   4.137   2.689  0.5676  0.6042  0.4381
   53MOL   H22330487   4.867   4.103   2.575 -2.6656 -0.6872  2.9412
   53MOL   H22430488   5.123   4.311   2.644  0.0287  0.2920  1.8405
   53MOL   H22530489   5.014   4.447   2.688 -0.1937 -0.5083 -0.0625
   53MOL   H22630490   5.027   4.531   2.459 -2.8622 -1.5036 -0.2873
   53MOL   H22730491   5.119   4.390   2.403 -1.5419  0.5822 -0.8085
   53MOL   H22830492   5.293   4.443   2.573  0.0203  2.1630  3.2878
   53MOL   H22930493   5.285   4.567   2.450  0.9690 -3.4262 -1.0965
   53MOL   H23030494   5.395   4.677   2.647 -0.3701  0.7680 -0.4552
   53MOL   H23130495   5.411   4.573   2.859  0.7203  2.7513 -1.3602
   53MOL   H23230496   5.179   4.755   2.823  0.2275 -2.6556 -0.3962
   53MOL   H23330497   5.339   4.761   2.884  1.4236 -1.0319 -0.6710
   53MOL   C23430498   5.311   4.996   2.819  0.4679  0.0424 -0.4640
   53MOL   C23530499   5.390   5.119   2.767 -0.4024 -0.4958 -1.0600
   53MOL   O23630500   5.414   5.201   2.881  0.2201  0.1121  0.3073
   53MOL   C23730501   5.322   5.203   2.661  0.5668 -0.4060  0.0997
   53MOL   O23830502   5.424   5.278   2.591 -0.0412  0.1687 -0.2958
   53MOL   C23930503   5.359   5.377   2.508  0.5387 -0.5073  0.0374
   53MOL   C24030504   5.464   5.434   2.410  0.1670  0.3838 -0.0165
   53MOL   C24130505   5.407   5.494   2.283  0.1682 -0.2856  0.1503
   53MOL   O24230506   5.358   5.624   2.315 -0.5174 -0.2529 -0.6302
   53MOL   C24330507   5.248   5.675   2.242 -0.3770 -0.4576 -0.8588
   53MOL   O24430508   5.290   5.723   2.114  0.0356 -0.7073  0.8461
   53MOL   C24530509   5.186   5.799   2.307  0.4838 -0.0171  0.4437
   53MOL   O24630510   5.270   5.913   2.286 -0.4396  0.3454  0.2951
   53MOL   H24730511   5.210   5.035   2.833  0.6411 -0.7314  3.3867
   53MOL   H24830512   5.354   4.971   2.916  0.5666 -0.3703 -0.6162
   53MOL   H24930513   5.482   5.069   2.735 -0.1921 -0.6325 -0.2404
   53MOL   H25030514   5.487   5.257   2.858  1.3554 -0.8035  1.5958
   53MOL   H25130515   5.284   5.132   2.588  0.2601  2.0846 -2.2402
   53MOL   H25230516   5.238   5.263   2.697  2.4741  2.5713 -0.2049
   53MOL   H25330517   5.311   5.455   2.567  1.8297  0.4254 -0.1181
   53MOL   H25430518   5.280   5.336   2.444 -0.8628  1.5314  0.4199
   53MOL   H25530519   5.524   5.350   2.376  0.6927  1.2378 -1.2335
   53MOL   H25630520   5.530   5.505   2.460  0.6053  0.0166 -0.0657
   53MOL   H25730521   5.471   5.506   2.196  0.3916 -0.9401  0.2265
   53MOL   H25830522   5.318   5.442   2.247  1.8783 -2.8214 -0.5080
   53MOL   H25930523   5.174   5.596   2.233  0.5755 -1.6542  1.4237
   53MOL   H26030524   5.314   5.812   2.131  0.7886 -0.6219 -0.5321
   53MOL   H26130525   5.096   5.823   2.250 -1.0123 -2.6565  1.6124
   53MOL   H26230526   5.158   5.776   2.410  0.0389  0.2281  0.3822
   53MOL   C26330527   5.211   6.029   2.336 -0.4528  0.2223  0.1241
   53MOL   C26430528   5.302   6.158   2.310  0.3013 -0.2268 -0.6282
   53MOL   O26530529   5.224   6.274   2.352 -0.1700  0.1194  0.4643
   53MOL   C26630530   5.429   6.164   2.394 -0.2893 -1.0416 -0.8048
   53MOL   O26730531   5.402   6.140   2.530  0.7117  0.4621 -0.0372
   53MOL   C26830532   5.527   6.158   2.597  0.5992 -0.0703  0.1267
   53MOL   C26930533   5.504   6.102   2.734 -0.2376  0.7650  1.2652
   53MOL   C27030534   5.626   6.142   2.824  0.4170  0.7031 -0.2714
   53MOL   O27130535   5.615   6.085   2.953 -0.2926  0.1188 -0.7339
   53MOL   C27230536   5.723   6.100   3.044  0.6867  0.7779  0.2734
   53MOL   O27330537   5.757   6.231   3.047  0.2216  0.0599 -0.0738
   53MOL   C27430538   5.680   6.039   3.181 -0.0014 -0.4128 -0.5312
   53MOL   O27530539   5.692   5.896   3.173  0.2855  0.0010 -0.1817
   53MOL   H27630540   5.173   6.014   2.437 -1.0594 -1.1491 -0.3071
   53MOL   H27730541   5.114   6.036   2.287 -0.6775 -0.7845  0.4112
   53MOL   H27830542   5.334   6.167   2.206  3.2715 -1.1702  0.1495
   53MOL   H27930543   5.227   6.276   2.447  0.0665  1.1743  0.4445
   53MOL   H28030544   5.494   6.083   2.362  1.5083  0.6697 -1.5460
   53MOL   H28130545   5.484   6.256   2.376 -0.5397 -0.4898  1.1513
   53MOL   H28230546   5.551   6.264   2.605  2.2381 -0.1889 -2.6133
   53MOL   H28330547   5.611   6.114   2.544  0.4288 -0.5853  0.2785
   53MOL   H28430548   5.505   5.993   2.728  1.1452  0.9174 -2.1585
   53MOL   H28530549   5.410   6.146   2.768 -0.4159 -0.3086  2.2141
   53MOL   H28630550   5.711   6.096   2.773 -0.8999  0.3142 -2.1778
   53MOL   H28730551   5.658   6.246   2.827  0.8535  0.6422 -1.9444
   53MOL   H28830552   5.807   6.049   2.998  0.9280 -0.1987  1.7739
   53MOL   H28930553   5.820   6.252   2.979  1.8641 -0.9677  1.0847
   53MOL   H29030554   5.748   6.067   3.262 -0.2241 -0.9194 -0.1708
   53MOL   H29130555   5.583   6.082   3.203 -0.3708 -1.8893  0.8034
   53MOL   C29230556   5.661   5.834   3.302 -0.0253  1.1484  0.4756
   53MOL   C29330557   5.681   5.687   3.292  0.3719  0.0232  0.0454
   53MOL   O29430558   5.811   5.682   3.235  0.1951 -0.3970  0.0075
   53MOL   C29530559   5.666   5.609   3.423 -0.1849  0.2697  0.2405
   53MOL   O29630560   5.639   5.472   3.394  0.0391  0.4478 -0.2792
   53MOL   C29730561   5.600   5.395   3.505  0.8857  0.5844 -0.3887
   53MOL   C29830562   5.542   5.265   3.454  0.7054 -0.1624 -0.0695
   53MOL   C29930563   5.644   5.168   3.403  1.1620  0.2442  0.3088
   53MOL   O30030564   5.583   5.044   3.387  0.3008 -0.0588 -0.6399
   53MOL   C30130565   5.657   4.945   3.324  0.9816  0.7883  0.2155
   53MOL   O30230566   5.775   4.906   3.395 -0.0825 -0.1280 -0.4323
   53MOL   C30330567   5.563   4.826   3.302  0.2951  0.2054 -0.3082
   53MOL   O30430568   5.483   4.864   3.191 -0.0477  0.4275  0.5824
   53MOL   H30530569   5.720   5.872   3.386  1.4220 -0.8640  0.3889
   53MOL   H30630570   5.555   5.842   3.327 -0.2312 -0.7172  0.2137
   53MOL   H30730571   5.609   5.651   3.218  0.6056 -0.4699  0.0604
   53MOL   H30830572   5.810   5.754   3.174  0.3901 -0.3570  0.0509
   53MOL   H30930573   5.757   5.615   3.482 -0.6907 -1.4420  1.2444
   53MOL   H31030574   5.588   5.663   3.476 -1.3640 -2.5361  1.4557
   53MOL   H31130575   5.517   5.451   3.550  0.5114 -0.1914 -0.0989
   53MOL   H31230576   5.675   5.371   3.579 -1.4098  0.0467  1.8378
   53MOL   H31330577   5.468   5.277   3.374  0.8771 -1.0747 -0.3737
   53MOL   H31430578   5.478   5.235   3.537 -1.6050  1.0937 -1.3241
   53MOL   H31530579   5.685   5.202   3.308  1.2882  1.1786  0.6923
   53MOL   H31630580   5.733   5.161   3.466  2.6285 -0.8142 -1.8263
   53MOL   H31730581   5.690   4.993   3.231  0.4034  0.5245 -0.1341
   53MOL   H31830582   5.840   4.974   3.385  0.6666 -0.4351  1.8951
   53MOL   H31930583   5.510   4.805   3.395  1.3725  0.0502  0.2704
   53MOL   H32030584   5.631   4.746   3.274  0.0589 -0.6006  1.3702
   53MOL   C32130585   5.345   4.838   3.204 -0.9232 -1.3484 -0.2460
   53MOL   C32230586   5.320   4.692   3.197  0.0906 -0.3058  0.0419
   53MOL   O32330587   5.330   4.636   3.326 -0.2242 -0.1626 -1.2796
   53MOL   C32430588   5.190   4.653   3.132  0.6949  0.4302  0.7328
   53MOL   O32530589   5.186   4.514   3.112 -0.1098  0.1228  0.3479
   53MOL   C32630590   5.072   4.469   3.054 -0.5267  0.0659  0.1288
   53MOL   C32730591   5.074   4.311   3.065 -0.5610  0.0399  1.2112
   53MOL   C32830592   5.176   4.241   2.977  0.0226 -0.6179  0.5390
   53MOL   O32930593   5.181   4.106   3.018  0.7663  0.0607  0.3990
   53MOL   C33030594   5.272   4.021   2.960 -0.7284 -0.2588 -0.1119
   53MOL   O33130595   5.370   3.977   3.056  0.0972 -0.2619 -0.5728
   53MOL   C33230596   5.185   3.893   2.909  0.0375 -0.2878  0.0642
   53MOL   O33330597   5.242   3.841   2.792 -0.1630  0.0421 -0.0053
   53MOL   H33430598   5.291   4.896   3.128 -1.2688 -1.9113 -0.4299
   53MOL   H33530599   5.314   4.888   3.296  0.4553 -0.3884 -0.2817
   53MOL   H33630600   5.403   4.646   3.143  0.3079 -1.3317  1.2221
   53MOL   H33730601   5.365   4.551   3.306 -1.8863 -1.7582  2.0909
   53MOL   H33830602   5.187   4.714   3.042  0.0226  1.9562  1.7705
   53MOL   H33930603   5.112   4.705   3.187 -0.3511 -0.2659 -0.0478
   53MOL   H34030604   5.056   4.503   2.951 -0.0669 -0.5475 -0.1479
   53MOL   H34130605   4.985   4.511   3.105 -2.4238 -1.0509 -2.0960
   53MOL   H34230606   5.090   4.288   3.170 -0.7942  0.2968  1.3057
   53MOL   H34330607   4.977   4.276   3.030  0.0877  0.3233 -0.9043
   53MOL   H34430608   5.155   4.263   2.873  0.3748  3.1402  1.1538
   53MOL   H34530609   5.274   4.281   3.004 -0.9754  2.1491  0.2943
   53MOL   H34630610   5.326   4.072   2.881 -0.6276  0.6790  0.5516
   53MOL   H34730611   5.325   3.936   3.128 -1.6161  0.6111 -1.1118
   53MOL   H34830612   5.182   3.827   2.996 -0.6383 -0.9571 -0.4618
   53MOL   H34930613   5.082   3.925   2.891 -0.1038 -0.4914  0.4932
   53MOL   C35030614   5.348   3.749   2.819  0.2318  0.1272  0.0052
   53MOL   C35130615   5.342   3.631   2.720 -0.0575 -0.5623 -0.3529
   53MOL   O35230616   5.219   3.553   2.732  0.1831  0.2382 -0.2281
   53MOL   C35330617   5.371   3.674   2.581  0.0115  0.0707  0.2632
   53MOL   O35430618   5.508   3.710   2.573  0.3361 -0.3181 -0.6053
   53MOL   C35530619   5.540   3.778   2.455 -0.0714 -0.3908  0.5482
   53MOL   C35630620   5.679   3.843   2.461 -0.0915 -0.2281 -0.0563
   53MOL   C35730621   5.684   3.950   2.564  0.1257 -0.3126 -0.1501
   53MOL   O35830622   5.610   4.070   2.528 -0.0639  0.1486 -0.0326
   53MOL   C35930623   5.584   4.148   2.638 -0.2892  0.8129 -0.1410
   53MOL   O36030624   5.707   4.209   2.662 -0.4853  0.3006  0.0397
   53MOL   C36130625   5.470   4.243   2.610 -0.5656  0.1329  0.0567
   53MOL   O36230626   5.334   4.194   2.630 -0.7514 -0.5966  0.5993
   53MOL   H36330627   5.355   3.708   2.920  1.7954 -0.0553 -0.1723
   53MOL   H36430628   5.440   3.807   2.809  0.0074 -0.0603 -3.6336
   53MOL   H36530629   5.415   3.557   2.753  0.2254 -0.5043 -0.8432
   53MOL   H36630630   5.151   3.603   2.689 -0.8304 -1.3714 -0.5625
   53MOL   H36730631   5.355   3.591   2.512  3.5833 -0.3334 -0.1313
   53MOL   H36830632   5.299   3.752   2.555  0.8144  1.6291  2.6304
   53MOL   H36930633   5.465   3.851   2.427 -0.0387 -0.3066  0.6822
   53MOL   H37030634   5.537   3.701   2.377  2.2877  0.2591 -0.2201
   53MOL   H37130635   5.703   3.888   2.365  1.5047 -0.8551  0.0145
   53MOL   H37230636   5.747   3.761   2.484 -0.6174 -1.0818 -1.4954
   53MOL   H37330637   5.652   3.908   2.660  0.6435 -0.6384 -0.1180
   53MOL   H37430638   5.784   3.989   2.579  0.5487 -1.7596  0.8969
   53MOL   H37530639   5.557   4.093   2.728  1.4096  0.0283 -0.0917
   53MOL   H37630640   5.745   4.214   2.576 -3.3212 -0.5315 -1.3315
   53MOL   H37730641   5.478   4.326   2.680  1.0397 -0.0839  0.1385
   53MOL   H37830642   5.492   4.303   2.521 -1.4611 -1.2971 -1.1606
   53MOL   C37930643   5.309   4.083   2.551  0.0147 -0.0499 -0.3423
   53MOL   C38030644   5.291   4.108   2.402  0.2808 -0.7298  0.3583
   53MOL   O38130645   5.414   4.094   2.342  0.3695 -0.5853 -0.1165
   53MOL   C38230646   5.192   4.023   2.326 -0.1128  0.2449 -0.4442
   53MOL   O38330647   5.212   3.887   2.343  0.5234  0.4264  0.0522
   53MOL   C38430648   5.129   3.822   2.244 -0.0274 -0.5201  0.7613
   53MOL   C38530649   5.142   3.676   2.266  0.3198  0.0180 -0.2347
   53MOL   C38630650   5.105   3.578   2.158  0.0887  0.3342 -0.1279
   53MOL   O38730651   4.973   3.602   2.113  0.3708  0.0891 -0.3811
   53MOL   C38830652   4.946   3.551   1.993  0.0160  0.7591  0.1413
   53MOL   O38930653   4.928   3.410   1.989 -0.1383  0.1780 -0.1318
   53MOL   C39030654   4.808   3.615   1.945  0.3386 -0.6686  0.2514
   53MOL   O39130655   4.703   3.557   2.023  0.5484 -0.1037 -0.0523
   53MOL   H39230656   5.212   4.042   2.580  0.7331 -1.6268 -0.1053
   53MOL   H39330657   5.378   4.000   2.565 -0.5166 -0.7237 -1.5329
   53MOL   H39430658   5.257   4.211   2.400  2.4302  0.0009  0.1149
   53MOL   H39530659   5.476   4.100   2.412 -1.0981  0.9114  1.0806
   53MOL   H39630660   5.091   4.043   2.364 -1.3289  1.2293 -4.0002
   53MOL   H39730661   5.197   4.054   2.222  0.9112  1.3779 -0.0788
   53MOL   H39830662   5.159   3.833   2.140 -0.1443  1.1712  0.8963
   53MOL   H39930663   5.023   3.847   2.249 -0.3352 -1.6689  0.0957
   53MOL   H40030664   5.093   3.642   2.357 -1.0627 -1.1048 -1.3493
   53MOL   H40130665   5.248   3.662   2.287  0.0119 -2.7977 -0.2630
   53MOL   H40230666   5.175   3.598   2.077  0.8155 -1.8636 -0.0770
   53MOL   H40330667   5.112   3.472   2.185  2.0498  0.0218 -1.7113
   53MOL   H40430668   5.031   3.573   1.928 -0.2600  1.5186  0.0393
   53MOL   H40530669   4.837   3.399   2.014  0.0178  0.3716  0.5532
   53MOL   H40630670   4.812   3.723   1.959  5.2063 -0.4842 -1.6161
   53MOL   H40730671   4.802   3.574   1.844 -0.6057 -0.1409  0.0922
   53MOL   C40830672   4.583   3.602   1.968  0.0031  0.4511 -0.4926
   53MOL   C40930673   4.471   3.544   2.061 -0.4992 -0.0427  0.3310
   53MOL   O41030674   4.347   3.591   2.012 -0.2913  0.0125  0.1438
   53MOL   C41130675   4.472   3.585   2.205 -0.5552  0.0841 -0.3908
   53MOL   O41230676   4.381   3.491   2.266 -0.2801  0.8593 -0.5764
   53MOL   C41330677   4.378   3.492   2.409  0.2300  0.1157 -0.0004
   53MOL   C41430678   4.323   3.353   2.462  0.2462 -0.0640 -0.3573
   53MOL   C41530679   4.178   3.341   2.419 -0.2351 -1.0114 -0.2697
   53MOL   O41630680   4.128   3.213   2.457  0.5877  0.4474  0.0926
   53MOL   C41730681   3.999   3.192   2.439  0.7740  0.1127 -0.6540
   53MOL   O41830682   3.917   3.257   2.530 -0.3690 -0.2460 -0.2993
   53MOL   C41930683   3.970   3.042   2.432 -0.6365 -0.2536 -0.9963
   53MOL   O42030684   3.870   3.016   2.339  0.3391  0.7985 -0.3165
   53MOL   H42130685   4.573   3.579   1.862  0.5265 -0.7488 -0.2861
   53MOL   H42230686   4.581   3.711   1.979 -0.6264  0.5108 -1.1550
   53MOL   H42330687   4.471   3.436   2.048  2.0667  0.0306 -0.6993
   53MOL   H42430688   4.282   3.544   2.062  1.1044 -2.9346 -0.7082
   53MOL   H42530689   4.563   3.573   2.264 -1.1554  3.7455  1.4445
   53MOL   H42630690   4.427   3.684   2.218 -1.4283 -0.0490 -2.2535
   53MOL   H42730691   4.482   3.496   2.441  0.0052 -0.7377  0.8387
   53MOL   H42830692   4.333   3.579   2.457 -1.3887 -0.6837 -0.0346
   53MOL   H42930693   4.328   3.349   2.571  0.1129  1.4528 -0.2861
   53MOL   H43030694   4.386   3.279   2.412  0.6616 -1.7499  2.5561
   53MOL   H43130695   4.118   3.419   2.465 -0.4629 -1.0239 -0.5380
   53MOL   H43230696   4.161   3.363   2.313  2.2998 -0.3879 -0.5768
   53MOL   H43330697   3.968   3.229   2.341  0.2738  2.2799  0.2813
   53MOL   H43430698   3.828   3.258   2.496 -0.6780 -2.5722  0.3773
   53MOL   H43530699   4.058   2.985   2.402  0.0050  1.2898 -2.1250
   53MOL   H43630700   3.953   3.000   2.531 -0.2886  1.4012 -0.2085
   53MOL   C43730701   3.847   2.878   2.334 -0.5192 -0.1867 -0.0223
   53MOL   C43830702   3.778   2.841   2.200  0.6173 -0.4466 -0.2684
   53MOL   O43930703   3.644   2.865   2.207  0.3571  0.1786 -0.5813
   53MOL   C44030704   3.791   2.705   2.162 -0.3262  0.3800  0.0593
   53MOL   O44130705   3.699   2.637   2.246 -0.6141 -0.4776 -0.1351
   53MOL   C44230706   3.692   2.495   2.214 -0.2298 -0.8729 -0.0682
   53MOL   C44330707   3.674   2.426   2.344  0.0252  0.6033 -0.1174
   53MOL   C44430708   3.789   2.451   2.452 -0.2871  0.6166 -0.3656
   53MOL   O44530709   3.775   2.370   2.564 -0.1752  0.1552 -0.4335
   53MOL   C44630710   3.676   2.416   2.655 -0.6589  1.3446 -0.2489
   53MOL   O44730711   3.729   2.516   2.750  0.5905  0.5138 -0.2646
   53MOL   C44830712   3.625   2.300   2.743  0.0701 -0.4079 -0.1139
   53MOL   O44930713   3.734   2.251   2.817  0.2994 -0.3439 -0.0380
   53MOL   H45030714   3.935   2.815   2.321 -1.1333 -0.8332 -1.0914
   53MOL   H45130715   3.788   2.838   2.417 -0.6647  1.5358  0.7413
   53MOL   H45230716   3.817   2.916   2.131  2.4538 -1.4904 -0.4070
   53MOL   H45330717   3.598   2.790   2.241  0.7687  0.2032  0.0337
   53MOL   H45430718   3.761   2.680   2.060 -2.7798 -1.0521  1.0970
   53MOL   H45530719   3.893   2.666   2.171 -0.5779 -0.0765  0.9247
   53MOL   H45630720   3.786   2.463   2.168 -0.0855  2.7995 -2.5033
   53MOL   H45730721   3.603   2.480   2.152 -0.3857 -1.4738  0.2948
   53MOL   H45830722   3.674   2.318   2.328  2.3084  0.7029 -0.8540
   53MOL   H45930723   3.580   2.458   2.389 -0.6839  0.3998 -1.4207
   53MOL   H46030724   3.888   2.431   2.409 -0.5160  2.1616 -1.6574
   53MOL   H46130725   3.786   2.554   2.487  0.9374  0.2467  0.9074
   53MOL   H46230726   3.587   2.457   2.608 -0.7998  0.0630 -1.1307
   53MOL   H46330727   3.778   2.475   2.819 -1.0475  0.1729  0.7161
   53MOL   H46430728   3.550   2.328   2.817 -0.5199 -3.4381  0.5155
   53MOL   H46530729   3.580   2.226   2.677 -1.5892 -0.0082  0.5416
   53MOL   C46630730   3.696   2.137   2.897  0.7297 -0.2436  0.5169
   53MOL   C46730731   3.819   2.100   2.978 -0.3956  0.0313 -0.0261
   53MOL   O46830732   3.834   2.197   3.085  0.2766  0.6740 -0.1160
   53MOL   C46930733   3.817   1.970   3.046  0.3428  0.0491  0.0717
   53MOL   O47030734   3.704   1.981   3.131 -0.1981  0.1970  0.0828
   53MOL   C47130735   3.685   1.856   3.197 -0.2104  0.9250 -0.9171
   53MOL   C47230736   3.551   1.845   3.278  0.3665  0.2201 -0.5176
   53MOL   C47330737   3.554   1.868   3.431 -0.0210 -0.7884 -0.5024
   53MOL   O47430738   3.649   1.790   3.500  0.3168 -0.2141 -0.3215
   53MOL   C47530739   3.655   1.801   3.638  0.9415  0.3801  0.1532
   53MOL   O47630740   3.741   1.903   3.681  0.5227  0.5456 -0.4466
   53MOL   C47730741   3.699   1.663   3.686  0.0596 -0.1543 -0.3746
   53MOL   O47830742   3.593   1.597   3.760 -0.0128  0.3427 -0.1424
   53MOL   H47930743   3.670   2.048   2.840  1.0094 -0.4925  0.7783
   53MOL   H48030744   3.615   2.167   2.964  0.8410  1.5589 -0.1289
   53MOL   H48130745   3.908   2.120   2.920 -0.2780  0.2302  0.2231
   53MOL   H48230746   3.771   2.174   3.152  0.0207 -1.9664 -1.1915
   53MOL   H48330747   3.800   1.897   2.966 -1.9412  0.9021 -0.2753
   53MOL   H48430748   3.915   1.966   3.092 -0.1589  0.2376  1.1612
   53MOL   H48530749   3.769   1.833   3.262  0.7231 -0.4227 -2.5579
   53MOL   H48630750   3.686   1.777   3.122 -1.0141  0.7845 -0.7841
   53MOL   H48730751   3.511   1.747   3.255  0.6177 -0.0724  0.2984
   53MOL   H48830752   3.473   1.907   3.233 -0.4827 -0.5320 -0.0760
   53MOL   H48930753   3.577   1.970   3.460  1.5164 -1.5534  1.0429
   53MOL   H49030754   3.455   1.835   3.462 -0.3562 -0.8521 -1.6095
   53MOL   H49130755   3.557   1.830   3.676  0.2446 -0.2171 -1.1644
   53MOL   H49230756   3.827   1.885   3.644  0.5744  0.6863 -0.3924
   53MOL   H49330757   3.716   1.594   3.604 -0.2253  0.2111 -0.7414
   53MOL   H49430758   3.798   1.667   3.732 -1.1051  0.6894  2.1203
   53MOL   C49530759   3.568   1.648   3.893  0.1536 -0.5505  0.2628
   53MOL   C49630760   3.462   1.564   3.967  0.3117 -0.1138 -0.2518
   53MOL   O49730761   3.540   1.470   4.049  0.1563  0.5837 -0.0185
   53MOL   C49830762   3.370   1.655   4.055 -0.0784 -0.0530  0.0801
   53MOL   O49930763   3.268   1.567   4.091 -0.1567  0.4293  0.1322
   53MOL   C50030764   3.161   1.624   4.163  0.2079  0.7246  0.3824
   53MOL   C50130765   3.076   1.530   4.240 -0.3074 -0.4751  0.1241
   53MOL   C50230766   2.995   1.597   4.355  0.3725 -0.5397  0.0153
   53MOL   O50330767   2.910   1.505   4.413  0.1544  0.6214  0.2283
   53MOL   C50430768   2.842   1.550   4.526 -0.1020 -0.4263 -0.0195
   53MOL   O50530769   2.918   1.532   4.643  0.0106 -0.0307 -0.0063
   53MOL   C50630770   2.701   1.478   4.537 -0.0780 -0.1323 -0.4999
   53MOL   O50730771   2.607   1.521   4.435  0.0353  0.3841  0.4276
   53MOL   H50830772   3.525   1.749   3.890  1.5861  0.0327 -1.5311
   53MOL   H50930773   3.661   1.647   3.949  0.9001 -0.6281 -0.9681
   53MOL   H51030774   3.402   1.503   3.899 -0.3156 -1.3891  1.4095
   53MOL   H51130775   3.494   1.388   4.050 -2.1355  1.8186 -1.5446
   53MOL   H51230776   3.429   1.694   4.138  0.2304  1.2519 -0.7352
   53MOL   H51330777   3.333   1.743   4.002  0.1907 -0.0051 -0.0282
   53MOL   H51430778   3.106   1.683   4.090  1.3777  1.0353 -0.2664
   53MOL   H51530779   3.209   1.698   4.227  1.5478  0.3578 -0.1720
   53MOL   H51630780   3.128   1.441   4.277  0.7323  0.4658  0.9791
   53MOL   H51730781   2.998   1.494   4.173 -0.5684 -0.2346  0.2993
   53MOL   H51830782   3.059   1.635   4.435  0.8795 -3.0386  0.8645
   53MOL   H51930783   2.932   1.675   4.312  0.1057 -0.8142 -0.0931
   53MOL   H52030784   2.835   1.658   4.518  0.6024 -0.2937  1.0514
   53MOL   H52130785   2.936   1.440   4.648  1.9853  0.2597 -1.2953
   53MOL   H52230786   2.707   1.369   4.533 -0.4086 -0.1790  0.0882
   53MOL   H52330787   2.657   1.513   4.631  0.0978  2.3098 -1.3044
   53MOL   C52430788   2.557   1.427   4.345  0.3867  0.4980  0.5201
   53MOL   C52530789   2.650   1.403   4.221  0.4423 -0.2755  0.2900
   53MOL   O52630790   2.766   1.335   4.254 -0.2694 -0.4664 -0.4151
   53MOL   C52730791   2.696   1.540   4.163 -0.4407 -0.4152  0.6711
   53MOL   O52830792   2.582   1.607   4.105  0.1848  0.6141  0.2147
   53MOL   C52930793   2.620   1.728   4.039 -0.0748 -0.5397  0.7544
   53MOL   C53030794   2.493   1.780   3.973 -0.6412 -0.0035 -0.0443
   53MOL   C53130795   2.493   1.913   3.901 -0.0423  0.0714  0.0554
   53MOL   O53230796   2.496   2.015   3.997 -0.1636 -0.5629 -0.4693
   53MOL   C53330797   2.468   2.144   3.954 -0.1518  0.5109 -0.6831
   53MOL   O53430798   2.328   2.180   3.967 -0.1268  0.6091 -1.1357
   53MOL   C53530799   2.558   2.234   4.043 -0.6032  0.1997  0.1662
   53MOL   O53630800   2.679   2.265   3.973 -0.4769 -0.9119  0.2344
   53MOL   H53730801   2.464   1.475   4.314  0.4611  0.0998 -0.3484
   53MOL   H53830802   2.533   1.332   4.393  0.2706  0.8011  1.0620
   53MOL   H53930803   2.605   1.336   4.148 -0.0301  2.1121 -1.6803
   53MOL   H54030804   2.806   1.388   4.321 -1.5069  1.9915 -1.5534
   53MOL   H54130805   2.752   1.600   4.234 -2.6242 -0.7163  2.7369
   53MOL   H54230806   2.761   1.512   4.080  0.1589  2.7431  0.0267
   53MOL   H54330807   2.692   1.711   3.960 -1.2427  0.0667 -0.4596
   53MOL   H54430808   2.652   1.801   4.114  0.8707 -1.2591  1.0673
   53MOL   H54530809   2.413   1.771   4.045  1.0425  1.5318  2.0605
   53MOL   H54630810   2.475   1.697   3.905 -1.8093 -0.1223  0.4019
   53MOL   H54730811   2.579   1.917   3.834 -1.4203  1.2842 -1.7019
   53MOL   H54830812   2.399   1.916   3.846 -0.8385  0.8676  1.4255
   53MOL   H54930813   2.496   2.166   3.851 -0.1888 -0.2320 -0.8534
   53MOL   H55030814   2.314   2.178   4.060  3.5402 -3.2854 -0.5394
   53MOL   H55130815   2.508   2.330   4.035  1.0278  0.8709 -2.8718
   53MOL   H55230816   2.557   2.204   4.148 -0.9340  0.5890  0.2743
   53MOL   C55330817   2.787   2.173   3.985  0.2431 -0.1814 -0.5917
   53MOL   C55430818   2.891   2.199   4.093  0.5589 -0.2579  0.8167
   53MOL   O55530819   3.011   2.124   4.069 -0.2337 -0.2091  0.1887
   53MOL   C55630820   2.836   2.156   4.223  1.2078  0.0709  0.5357
   53MOL   O55730821   2.800   2.020   4.225  0.1577 -0.3145  0.1755
   53MOL   C55830822   2.772   1.981   4.358 -0.1222  0.4648 -0.3885
   53MOL   C55930823   2.654   1.883   4.357 -0.1300 -0.4348 -0.3096
   53MOL   C56030824   2.593   1.885   4.500 -0.5486 -0.6345  0.9830
   53MOL   O56130825   2.465   1.823   4.480  0.0045 -0.0334 -0.0025
   53MOL   C56230826   2.385   1.806   4.594  0.1275 -0.3779  0.5062
   53MOL   O56330827   2.299   1.921   4.592 -0.1812 -0.0403  0.2428
   53MOL   C56430828   2.299   1.678   4.575 -0.2728 -0.2331  0.6993
   53MOL   O56530829   2.370   1.568   4.615 -0.0673 -0.1465  0.3985
   53MOL   H56630830   2.835   2.182   3.887  0.2513  0.9937 -0.4862
   53MOL   H56730831   2.737   2.076   3.991 -1.0386  0.2447 -3.1951
   53MOL   H56830832   2.926   2.301   4.109 -0.5087 -0.0290  1.7143
   53MOL   H56930833   3.024   2.069   4.145 -0.6529  0.2697  0.6059
   53MOL   H57030834   2.906   2.185   4.302  1.3725  0.1236  0.3708
   53MOL   H57130835   2.744   2.207   4.251  2.3201  0.8926  2.7587
   53MOL   H57230836   2.858   1.933   4.406  0.6645 -0.6754 -2.8323
   53MOL   H57330837   2.761   2.069   4.422  2.7677  1.9446 -1.7947
   53MOL   H57430838   2.681   1.781   4.332  0.9926 -0.2030 -0.0742
   53MOL   H57530839   2.575   1.922   4.293 -0.0870 -0.9272 -0.6608
   53MOL   H57630840   2.661   1.843   4.573  2.9692 -0.5987 -2.1361
   53MOL   H57730841   2.572   1.988   4.529  0.7957  0.2615 -1.0671
   53MOL   H57830842   2.439   1.808   4.688  0.4531  1.2757  0.2928
   53MOL   H57930843   2.231   1.907   4.528  0.4874  0.9654 -0.7050
   53MOL   H58030844   2.206   1.695   4.630  0.2113  1.2179  1.0740
   53MOL   H58130845   2.269   1.669   4.471  0.3635 -0.4570  0.5385
   53MOL   H58230846   2.457   1.571   4.578 -1.4594  2.1927 -2.9962
   54MOL     C130847   6.632   0.217   4.724 -0.0271  0.2054  0.9412
   54MOL     C230848   6.675   0.066   4.727 -0.4426  1.4455  0.2025
   54MOL     O330849   6.820   0.052   4.736  0.1035 -0.2220 -0.2556
   54MOL     C430850   6.612   7.691   4.848 -0.8240  0.1041  0.2657
   54MOL     O530851   6.620   7.550   4.818 -0.3094 -0.1198  0.2008
   54MOL     C630852   6.636   7.455   4.916  0.3603  0.1102 -0.2180
   54MOL     C730853   6.641   7.315   4.853  0.5170  0.9353  0.6904
   54MOL     C830854   6.642   7.194   4.945 -0.0024 -0.3141  0.5116
   54MOL     O930855   6.754   7.208   5.031 -0.2558  0.3684 -0.1235
   54MOL    C1030856   6.770   7.102   5.122 -0.2004 -0.6928  0.6111
   54MOL    O1130857   6.664   7.095   5.206 -0.2289  0.2042  0.1117
   54MOL    C1230858   6.908   7.124   5.186 -0.1095 -0.5299  0.0587
   54MOL    O1330859   7.002   7.038   5.123  0.3334 -0.6113 -1.2088
   54MOL    H1430860   6.524   0.215   4.735 -0.3872 -0.9415 -2.2244
   54MOL    H1530861   6.659   0.268   4.631  3.4860 -1.0892  1.1702
   54MOL    H1630862   6.642   0.012   4.639  0.2487  0.5649  0.4788
   54MOL    H1730863   6.835   7.660   4.770 -0.0821 -0.8156 -1.6646
   54MOL    H1830864   6.684   0.017   4.928  0.2172 -1.0897 -0.3475
   54MOL    H1930865   6.512   0.031   4.873 -1.4394  0.2987 -2.3280
   54MOL    H2030866   6.555   7.460   4.989 -0.2939  0.6072 -0.9582
   54MOL    H2130867   6.730   7.477   4.965  1.3318 -1.3465 -1.3756
   54MOL    H2230868   6.729   7.320   4.789 -0.1373 -0.1551 -0.3301
   54MOL    H2330869   6.557   7.313   4.783  1.5861  0.1187 -0.6036
   54MOL    H2430870   6.548   7.189   5.000 -1.1140  0.3358 -1.2757
   54MOL    H2530871   6.652   7.105   4.883 -0.3152  0.5240 -0.7595
   54MOL    H2630872   6.776   7.014   5.058 -2.8961  0.7214 -1.6955
   54MOL    H2730873   6.691   7.034   5.273 -4.4368  0.8135  2.5081
   54MOL    H2830874   6.934   7.229   5.198  0.2733 -0.3063 -2.3721
   54MOL    H2930875   6.900   7.089   5.289 -1.6971 -1.5581 -0.3927
   54MOL    H3030876   6.664   0.276   4.809  0.4696  1.1953  0.0776
   54MOL    C3130877   7.117   7.105   5.093  0.4907  0.4614  0.2417
   54MOL    C3230878   7.195   7.006   5.011 -0.8628  0.1803 -0.3894
   54MOL    O3330879   7.248   6.907   5.088  0.4364  0.1658  0.7979
   54MOL    C3430880   7.307   7.061   4.925  0.1717  0.8118  0.4968
   54MOL    O3530881   7.391   7.154   4.999  0.5581 -0.4527  0.2974
   54MOL    C3630882   7.499   7.209   4.927  0.2549 -0.4891  0.9758
   54MOL    C3730883   7.565   7.301   5.026 -0.0133 -0.3033 -0.6261
   54MOL    C3830884   7.686   7.378   4.975  0.2275  0.2330  0.8368
   54MOL    O3930885   0.036   7.468   5.076 -0.0719 -0.3051  0.0813
   54MOL    C4030886   0.158   7.529   5.060 -0.6157 -0.3652  0.2632
   54MOL    O4130887   0.269   7.437   5.052 -0.2235  0.1337  0.2234
   54MOL    C4230888   0.180   7.614   5.184 -0.2855  0.2775  0.0166
   54MOL    O4330889   0.081   0.020   5.194 -0.1918 -0.6647  0.2586
   54MOL    H4430890   7.100   7.195   5.033 -1.1898 -0.4440 -0.6692
   54MOL    H4530891   7.163   7.130   5.188  0.5541  0.0401  0.3235
   54MOL    H4630892   7.136   6.952   4.937 -0.7615 -1.0530  0.4186
   54MOL    H4730893   7.190   6.899   5.162 -1.0646  0.6283 -0.2907
   54MOL    H4830894   7.358   6.976   4.880  0.4715  2.4017 -2.2710
   54MOL    H4930895   7.248   7.109   4.847 -1.5216 -1.3981  0.3954
   54MOL    H5030896   7.457   7.270   4.847 -0.6813  0.2722  2.0348
   54MOL    H5130897   7.569   7.135   4.888 -0.1919 -0.7786  0.7136
   54MOL    H5230898   7.583   7.243   5.117  0.3306  1.1090  0.2346
   54MOL    H5330899   7.506   7.383   5.069  1.2332  0.0554  0.4264
   54MOL    H5430900   0.064   7.299   4.952 -0.7559 -0.3465 -0.3390
   54MOL    H5530901   7.665   7.432   4.883 -0.0451 -1.3410 -0.0625
   54MOL    H5630902   0.147   7.577   4.962  0.4823  0.3684  0.4824
   54MOL    H5730903   0.270   7.393   5.136 -1.2155 -2.0503 -0.8856
   54MOL    H5830904   0.182   7.552   5.274 -0.9579 -0.1086 -0.2230
   54MOL    H5930905   0.280   7.653   5.171 -0.0632 -0.7567 -1.6307
   54MOL    C6030906   0.107   0.114   5.302  0.4689  0.7256  1.1944
   54MOL    C6130907   0.014   0.231   5.285 -0.5540  0.7893 -0.1584
   54MOL    O6230908   0.032   0.317   5.395  0.0780  0.4590  0.2493
   54MOL    C6330909   7.562   0.197   5.302 -0.1106 -0.1111  0.6427
   54MOL    O6430910   7.477   0.308   5.270  0.2486  0.2101  0.2487
   54MOL    C6530911   7.339   0.272   5.289  0.2415  0.6976  0.0432
   54MOL    C6630912   7.247   0.392   5.255  0.2020 -0.1801  0.5513
   54MOL    C6730913   7.092   0.371   5.274 -0.0823  0.5731  0.0156
   54MOL    O6830914   7.051   0.289   5.169  0.5442 -0.1777 -0.0269
   54MOL    C6930915   6.928   0.223   5.172  0.2653 -0.6437 -0.0836
   54MOL    O7030916   6.815   0.311   5.176  0.6924 -0.1316  0.1008
   54MOL    C7130917   6.930   0.140   5.047  0.3343 -0.3716  0.4414
   54MOL    O7230918   6.965   0.003   5.068  0.5527  0.7432  0.5121
   54MOL    H7330919   0.209   0.150   5.302  0.0161  2.1039 -0.7817
   54MOL    H7430920   0.094   0.066   5.399  0.5965 -0.4300  0.6464
   54MOL    H7530921   0.036   0.281   5.190 -0.7947  0.6055 -0.3087
   54MOL    H7630922   0.122   0.347   5.389  0.1321  0.4064  0.7667
   54MOL    H7730923   7.547   0.113   5.234  1.1910  1.5833 -1.8460
   54MOL    H7830924   7.547   0.140   5.394 -1.7419  0.8374  0.9730
   54MOL    H7930925   7.331   0.251   5.395 -0.7139 -0.2917 -0.2144
   54MOL    H8030926   7.307   0.181   5.238  1.2958  0.2626  0.1529
   54MOL    H8130927   7.269   0.435   5.158  0.8741  1.9707  1.6326
   54MOL    H8230928   7.282   0.471   5.322 -1.4168  0.9147  0.1403
   54MOL    H8330929   7.038   0.466   5.275  1.3774  1.4179 -0.1263
   54MOL    H8430930   7.077   0.313   5.365 -2.3407  1.2388  0.1039
   54MOL    H8530931   6.928   0.156   5.258 -2.9160 -0.6111  0.0021
   54MOL    H8630932   6.825   0.342   5.265 -0.1769 -3.4605  1.4491
   54MOL    H8730933   6.829   0.134   5.007  1.5931  2.5149 -3.5390
   54MOL    H8830934   6.984   0.179   4.960 -2.8146  1.4547 -0.8061
   54MOL    C8930935   7.098   7.678   5.096  0.1280 -0.0180 -0.4174
   54MOL    C9030936   7.148   7.538   5.054 -0.1161  0.1834 -0.0133
   54MOL    O9130937   7.193   7.552   4.918  0.1257  0.9784  0.4105
   54MOL    C9230938   7.266   7.485   5.139  0.2525 -0.5883  0.0967
   54MOL    O9330939   7.237   7.463   5.277 -0.1821 -0.0230 -0.6375
   54MOL    C9430940   7.344   7.398   5.352  0.1511  0.1407 -0.2248
   54MOL    C9530941   7.435   7.502   5.414 -0.5473  0.8175 -0.5886
   54MOL    C9630942   7.368   7.584   5.527  0.0078  0.6341 -0.3900
   54MOL    O9730943   7.453   7.643   5.624  0.5936 -0.3150  0.1823
   54MOL    C9830944   7.392   0.033   5.711  0.2404 -0.5893 -0.1341
   54MOL    O9930945   7.303   7.663   5.796  0.1855  0.0965 -0.2508
   54MOL   C10030946   7.497   0.099   5.790 -0.7923  0.3238 -0.5180
   54MOL   O10130947   7.570   0.001   5.870  0.0771 -0.0791 -0.1180
   54MOL   H10230948   7.094   7.687   5.204 -1.9075 -1.4254 -0.3489
   54MOL   H10330949   7.164   0.061   5.056 -0.2544  2.5818  3.6610
   54MOL   H10430950   7.063   7.472   5.068  0.8890 -0.6924  2.3123
   54MOL   H10530951   7.122   7.564   4.856  0.9961 -1.7826 -1.1665
   54MOL   H10630952   7.288   7.389   5.092 -0.0276 -0.3218 -0.5858
   54MOL   H10730953   7.356   7.546   5.122  0.6989 -1.0580  0.7856
   54MOL   H10830954   7.399   7.317   5.303  0.1046  0.6664 -1.1347
   54MOL   H10930955   7.301   7.333   5.429  0.3788  2.1798  1.6520
   54MOL   H11030956   7.471   7.566   5.333  0.8500  0.4465 -0.2810
   54MOL   H11130957   7.523   7.451   5.453 -1.4192 -0.3046 -0.0647
   54MOL   H11230958   7.318   7.662   5.470  0.2785  1.3120  0.2936
   54MOL   H11330959   7.292   7.525   5.578 -1.0171  1.0646 -1.3895
   54MOL   H11430960   7.333   0.105   5.656 -0.0484 -0.9354 -0.2785
   54MOL   H11530961   7.354   7.601   5.846 -1.1264  1.0320  2.3870
   54MOL   H11630962   7.558   0.166   5.729  1.0013 -0.6560  0.1565
   54MOL   H11730963   7.448   0.172   5.854 -1.2908  0.4748 -1.0733
   54MOL   C11830964   7.653   0.057   5.966 -1.4294 -0.8137  0.4532
   54MOL   C11930965   0.088   0.096   5.887 -0.2211  1.0046 -0.0073
   54MOL   O12030966   0.159   7.670   5.847 -0.3556 -0.3211 -0.3840
   54MOL   C12130967   0.166   0.193   5.972 -0.1438  0.3699  0.0665
   54MOL   O12230968   0.106   0.319   5.983 -0.1473 -0.1212 -0.9360
   54MOL   C12330969   0.140   0.403   5.866 -0.1748  0.4811  0.4056
   54MOL   C12430970   0.062   0.528   5.862  0.0327 -0.1983  0.7852
   54MOL   C12530971   0.101   0.614   5.740  0.1094 -0.5498 -0.5370
   54MOL   O12630972   0.056   0.546   5.623  0.4472  0.0856 -0.2494
   54MOL   C12730973   7.619   0.561   5.582  0.1255 -0.6630 -0.6072
   54MOL   O12830974   7.557   0.436   5.590  0.0451 -0.3905  0.5589
   54MOL   C12930975   7.611   0.629   5.438 -0.0790  0.1577  0.0946
   54MOL   O13030976   7.541   0.752   5.442  0.4117 -0.1342  0.2106
   54MOL   H13130977   7.609   0.149   6.005 -2.1259 -1.3717  1.0117
   54MOL   H13230978   7.685   7.679   6.041  0.5722 -0.1357  0.2790
   54MOL   H13330979   0.072   0.141   5.789  0.7200  0.6486 -0.3299
   54MOL   H13430980   0.109   7.623   5.782 -0.0651 -0.6885 -0.3392
   54MOL   H13530981   0.183   0.159   6.074 -0.0988 -0.9617 -0.3762
   54MOL   H13630982   0.265   0.205   5.928 -0.3180 -0.2359 -0.5069
   54MOL   H13730983   0.120   0.354   5.771  2.0542  2.7641 -1.2931
   54MOL   H13830984   0.248   0.413   5.860 -0.1432 -0.3847 -0.5759
   54MOL   H13930985   0.083   0.585   5.952 -0.1184  1.2262 -0.0589
   54MOL   H14030986   7.651   0.502   5.850  0.2600 -1.7214  2.0275
   54MOL   H14130987   0.050   0.710   5.748  0.9416 -0.3055  2.6380
   54MOL   H14230988   0.208   0.630   5.728  0.0862 -0.1223 -0.1682
   54MOL   H14330989   7.565   0.623   5.653  1.1415  1.1483 -1.3688
   54MOL   H14430990   7.584   0.398   5.507 -0.0983  0.6626  0.0156
   54MOL   H14530991   0.013   0.639   5.390 -0.0462  1.9276  0.4954
   54MOL   H14630992   7.565   0.559   5.368  1.5810 -0.0350 -0.8142
   54MOL   C14730993   7.492   0.796   5.321  0.5260  0.1863 -0.0013
   54MOL   C14830994   7.394   0.916   5.339  0.1489 -0.0666  0.3492
   54MOL   O14930995   7.267   0.857   5.376  0.2328 -0.4430 -0.1015
   54MOL   C15030996   7.359   0.998   5.211 -0.8325  0.5250 -0.2585
   54MOL   O15130997   7.462   1.082   5.157  1.0753 -0.5847 -0.4492
   54MOL   C15230998   7.504   1.184   5.243  0.5884  0.3070 -0.1730
   54MOL   C15330999   7.506   1.312   5.161 -0.5384  0.5578  0.1074
   54MOL   C15431000   7.587   1.417   5.244 -0.1443  0.5327 -0.5145
   54MOL   O15531001   0.021   1.359   5.285  0.2870  0.4941 -0.2136
   54MOL   C15631002   0.125   1.454   5.308  0.8657  0.1881 -0.7209
   54MOL   O15731003   0.160   1.521   5.190 -0.2998  0.0361  0.0030
   54MOL   C15831004   0.252   1.392   5.373 -0.2943  0.0070 -0.3052
   54MOL   O15931005   0.324   1.499   5.430 -0.5265  0.2886  0.2466
   54MOL   H16031006   7.449   0.724   5.252  3.0258 -1.3548 -0.0082
   54MOL   H16131007   7.583   0.830   5.271  0.6165  2.7683  1.8304
   54MOL   H16231008   7.438   0.982   5.414  0.0942 -2.0176  2.1332
   54MOL   H16331009   7.275   0.800   5.451 -3.7256 -0.4777  0.4034
   54MOL   H16431010   7.327   0.931   5.131 -0.7675  0.4480 -0.2199
   54MOL   H16531011   7.269   1.055   5.230 -2.0233 -1.1327 -0.8364
   54MOL   H16631012   7.598   1.154   5.289  1.0669  0.7163 -0.8628
   54MOL   H16731013   7.439   1.203   5.328 -1.2505 -2.4731 -0.8742
   54MOL   H16831014   7.405   1.351   5.150 -0.6988  0.2587  0.5048
   54MOL   H16931015   7.543   1.303   5.059 -1.0273  1.2394 -0.1294
   54MOL   H17031016   7.585   1.509   5.186 -1.0139 -0.2329 -1.7234
   54MOL   H17131017   7.537   1.446   5.336  1.4545  2.5107 -0.2397
   54MOL   H17231018   0.098   1.528   5.384  1.2193 -1.9130  1.4980
   54MOL   H17331019   0.242   1.567   5.194  0.0840 -0.5928 -0.7087
   54MOL   H17431020   0.214   1.319   5.445 -0.1400  0.2629  0.0369
   54MOL   H17531021   0.303   1.341   5.292  1.7969 -0.0325  0.9847
   54MOL   C17631022   0.447   1.454   5.497 -0.2241 -0.8923  0.6063
   54MOL   C17731023   0.521   1.563   5.580 -0.0820 -0.1462  0.7182
   54MOL   O17831024   0.436   1.617   5.671  0.4055  0.3614 -0.0777
   54MOL   C17931025   0.584   1.677   5.515  0.1927  0.0980 -0.1587
   54MOL   O18031026   0.654   1.754   5.615  0.4688  0.3668 -0.2239
   54MOL   C18131027   0.725   1.858   5.557 -0.3460 -0.5591 -0.2582
   54MOL   C18231028   0.792   1.949   5.661  1.2033  0.0351 -0.3725
   54MOL   C18331029   0.687   2.003   5.769  0.2013  0.2256  0.7328
   54MOL   O18431030   0.577   2.045   5.697  0.2721 -0.0879  0.4240
   54MOL   C18531031   0.464   2.099   5.767 -0.6615 -0.0748  0.5021
   54MOL   O18631032   0.390   2.008   5.849 -0.6665  0.0931 -0.3664
   54MOL   C18731033   0.365   2.161   5.665  0.5033 -0.5211 -0.3255
   54MOL   O18831034   0.362   2.303   5.674 -0.6113  0.0695  0.3077
   54MOL   H18931035   0.515   1.408   5.425  1.4453  0.7431  1.1087
   54MOL   H19031036   0.420   1.374   5.566  1.4602 -0.2046  2.0997
   54MOL   H19131037   0.600   1.515   5.638  0.1571 -0.4046  0.1869
   54MOL   H19231038   0.492   1.667   5.729  1.0573 -0.7352  0.2527
   54MOL   H19331039   0.653   1.641   5.438 -1.8294  0.5402 -2.2500
   54MOL   H19431040   0.517   1.740   5.456  1.2552  1.7247  0.3147
   54MOL   H19531041   0.658   1.927   5.506 -0.8856 -0.5220  0.5017
   54MOL   H19631042   0.798   1.810   5.491 -0.5570  0.9855 -1.6584
   54MOL   H19731043   0.831   2.036   5.609 -0.7587  0.0653 -1.8520
   54MOL   H19831044   0.870   1.893   5.714  1.1317 -1.3327 -1.6630
   54MOL   H19931045   0.663   1.929   5.844 -0.0104 -0.1634  0.2830
   54MOL   H20031046   0.730   2.088   5.822 -0.2661  0.5483  0.5957
   54MOL   H20131047   0.492   2.182   5.831 -0.9473  0.8987 -0.6106
   54MOL   H20231048   0.364   1.937   5.793  0.0682 -1.1537  0.8501
   54MOL   H20331049   0.392   2.136   5.562  2.5362  1.3376 -0.2780
   54MOL   H20431050   0.267   2.123   5.692  0.7815 -0.7974  0.3120
   54MOL   C20531051   0.281   2.362   5.578  0.1820  0.0983 -0.0749
   54MOL   C20631052   0.269   2.512   5.603 -0.6778  0.8174 -0.9707
   54MOL   O20731053   0.383   2.578   5.542 -0.0273 -0.7236 -0.5827
   54MOL   C20831054   0.142   2.568   5.527  0.1238  0.2031 -0.3708
   54MOL   O20931055   0.099   2.692   5.579 -0.3885 -0.4917  0.1229
   54MOL   C21031056   7.660   2.722   5.542 -1.5442 -0.5408 -0.5082
   54MOL   C21131057   7.665   2.874   5.580  0.6471  0.1520  0.0960
   54MOL   C21231058   7.537   2.938   5.636  0.3963 -0.6535 -0.0433
   54MOL   O21331059   7.447   2.955   5.530 -0.2022 -0.4292 -0.1750
   54MOL   C21431060   7.323   3.025   5.551 -0.4559 -0.7280  0.7404
   54MOL   O21531061   7.245   2.981   5.659 -0.7742  0.0537 -0.4541
   54MOL   C21631062   7.247   2.998   5.422 -0.3797 -0.3198 -0.2264
   54MOL   O21731063   7.229   2.854   5.423 -0.1517  0.2451  0.4477
   54MOL   H21831064   0.181   2.321   5.595 -0.2710  1.1129 -0.2348
   54MOL   H21931065   0.304   2.341   5.474 -0.2497 -1.4922  0.1346
   54MOL   H22031066   0.271   2.530   5.710  0.1350 -0.4779 -0.7494
   54MOL   H22131067   0.374   2.569   5.448 -0.8514  2.0654 -0.8082
   54MOL   H22231068   0.166   2.581   5.422  0.7016  3.1551  0.0746
   54MOL   H22331069   0.067   2.490   5.538  0.4469 -0.0313  0.2375
   54MOL   H22431070   7.598   2.676   5.619 -0.3372 -0.2728  0.6595
   54MOL   H22531071   7.639   2.712   5.436  0.2835  0.5942 -1.0088
   54MOL   H22631072   7.687   2.925   5.487 -1.4371  0.0071 -0.5087
   54MOL   H22731073   0.054   2.890   5.648  0.1933 -0.1781  0.7355
   54MOL   H22831074   7.490   2.873   5.709  1.1293 -3.7666 -2.2471
   54MOL   H22931075   7.558   3.032   5.687  0.4235 -1.2599  1.0602
   54MOL   H23031076   7.348   3.129   5.570  0.2947 -0.8698  0.5788
   54MOL   H23131077   7.170   2.945   5.615 -1.9118  1.1545  0.5548
   54MOL   H23231078   7.150   3.048   5.433 -0.2811 -0.2087  0.1497
   54MOL   H23331079   7.296   3.042   5.336  1.3698 -0.0971  0.8634
   54MOL   C23431080   7.293   2.793   5.314  0.0182 -0.1087 -0.4939
   54MOL   C23531081   7.300   2.643   5.330 -0.2689  0.3454  0.1978
   54MOL   O23631082   7.378   2.608   5.447  0.2722  0.0200 -0.3387
   54MOL   C23731083   7.382   2.573   5.216 -0.3774  0.1868  0.8802
   54MOL   O23831084   7.339   2.602   5.083 -0.2052 -0.1340 -0.1257
   54MOL   C23931085   7.233   2.518   5.038  0.1165 -0.2241 -0.4914
   54MOL   C24031086   7.100   2.587   5.072 -0.5518  0.0200 -0.7550
   54MOL   C24131087   6.986   2.566   4.980  0.5026 -0.0234  0.0358
   54MOL   O24231088   7.027   2.586   4.850  0.5329 -0.6834 -0.1259
   54MOL   C24331089   6.948   2.535   4.753  0.4647 -0.2409  0.4576
   54MOL   O24431090   6.941   2.397   4.766 -0.0906  0.2409  0.3104
   54MOL   C24531091   7.002   2.572   4.615  0.0525  0.4520  0.1261
   54MOL   O24631092   7.133   2.524   4.593 -0.7365 -0.2266  0.0863
   54MOL   H24731093   7.252   2.811   5.215  0.8127  0.8927 -0.6512
   54MOL   H24831094   7.397   2.827   5.308  1.4513 -4.0499  0.2631
   54MOL   H24931095   7.205   2.591   5.340 -0.0043  0.1176  1.5023
   54MOL   H25031096   7.335   2.669   5.505  1.3995 -0.1856  0.7302
   54MOL   H25131097   7.487   2.604   5.218 -0.1239 -0.2939 -2.4017
   54MOL   H25231098   7.399   2.468   5.239  2.9145  0.9589  2.3111
   54MOL   H25331099   7.246   2.413   5.065 -0.3970 -0.5480 -1.4754
   54MOL   H25431100   7.244   2.523   4.930 -1.6570 -2.2673 -0.8032
   54MOL   H25531101   7.112   2.695   5.066 -0.3503  0.1265  1.1354
   54MOL   H25631102   7.067   2.565   5.174 -1.0813  2.1154 -0.4578
   54MOL   H25731103   6.964   2.462   5.007 -0.7336  0.3044  0.3271
   54MOL   H25831104   6.896   2.617   5.014 -0.5944 -1.1882 -1.0413
   54MOL   H25931105   6.844   2.565   4.755  0.4981 -0.0292 -0.7799
   54MOL   H26031106   7.026   2.361   4.747  0.6090  1.4315  1.1710
   54MOL   H26131107   6.933   2.528   4.544 -2.0508  2.0780  1.1136
   54MOL   H26231108   6.996   2.681   4.607  2.1305  0.5218 -0.8554
   54MOL   C26331109   7.166   2.522   4.454  0.4486 -0.9247 -0.9147
   54MOL   C26431110   7.308   2.568   4.420  0.4380 -0.8119  0.3215
   54MOL   O26531111   7.312   2.539   4.286  0.2561 -0.0671  0.4472
   54MOL   C26631112   7.336   2.720   4.419 -0.3814  0.0223  0.7455
   54MOL   O26731113   7.455   2.750   4.364  0.4462 -0.3490  0.0874
   54MOL   C26831114   7.561   2.719   4.449  0.3136  0.0365  0.3728
   54MOL   C26931115   7.693   2.712   4.380  0.3029 -0.0113  0.6744
   54MOL   C27031116   0.024   2.569   4.333  0.0763 -0.1385 -0.7936
   54MOL   O27131117   0.042   2.477   4.441 -0.0823  0.2236  0.1081
   54MOL   C27231118   0.029   2.343   4.406  0.0943  0.5107  0.0177
   54MOL   O27331119   0.150   2.288   4.350  0.5578  0.3821 -0.2651
   54MOL   C27431120   7.687   2.271   4.536  0.1968  0.3504  0.0718
   54MOL   O27531121   7.547   2.259   4.537 -0.0960 -0.0176 -0.5004
   54MOL   H27631122   7.093   2.580   4.398  2.3347  0.4688 -1.9356
   54MOL   H27731123   7.149   2.422   4.414 -0.7887 -1.3620  0.6132
   54MOL   H27831124   7.376   2.508   4.481  1.9020 -1.4000 -1.8591
   54MOL   H27931125   7.406   2.535   4.274  0.1730 -0.9909  0.0780
   54MOL   H28031126   7.252   2.760   4.362 -1.2557 -1.2470  1.1336
   54MOL   H28131127   7.332   2.767   4.518 -1.8586 -0.8714  1.1150
   54MOL   H28231128   7.546   2.637   4.520 -2.0883 -0.4842 -0.6887
   54MOL   H28331129   7.569   2.812   4.505  0.6736  0.8578 -1.0309
   54MOL   H28431130   0.075   2.741   4.451 -1.1734 -2.3247  3.3481
   54MOL   H28531131   0.001   2.781   4.296 -1.1355 -0.1211  0.5312
   54MOL   H28631132   7.634   2.536   4.271 -0.0614 -1.6078  0.1435
   54MOL   H28731133   0.101   2.572   4.256 -0.5066  0.7732 -1.3475
   54MOL   H28831134   7.645   2.318   4.334 -0.3266 -0.1800  0.7057
   54MOL   H28931135   0.150   2.302   4.256 -0.3887 -0.4085 -0.3902
   54MOL   H29031136   0.042   2.174   4.532  0.5604  0.5869 -1.3765
   54MOL   H29131137   0.031   2.330   4.620  0.9932 -1.6527  1.1385
   54MOL   C29231138   7.484   2.222   4.661  0.8790  0.2703 -0.3496
   54MOL   C29331139   7.334   2.216   4.642  0.0646  0.6095 -0.2435
   54MOL   O29431140   7.315   2.097   4.565 -0.2164 -0.2204 -0.2689
   54MOL   C29531141   7.253   2.199   4.774 -0.0640  0.0428  0.0280
   54MOL   O29631142   7.119   2.207   4.740 -0.0661  0.6566  0.3209
   54MOL   C29731143   7.044   2.082   4.738 -0.7548  0.1424  0.8571
   54MOL   C29831144   6.904   2.085   4.704 -0.0544 -0.0974  0.3713
   54MOL   C29931145   6.835   1.949   4.689 -0.0811 -0.4719  0.5224
   54MOL   O30031146   6.834   1.891   4.820 -0.1943  0.1438  0.4100
   54MOL   C30131147   6.815   1.752   4.820 -0.1445 -0.5288 -0.3986
   54MOL   O30231148   6.939   1.698   4.788  0.3532 -0.4229 -0.0207
   54MOL   C30331149   6.772   1.702   4.959 -0.5299  0.0433  0.5800
   54MOL   O30431150   6.678   1.597   4.941  0.2318 -0.4919 -0.2987
   54MOL   H30531151   7.528   2.127   4.694  0.3924  0.3398  0.5026
   54MOL   H30631152   7.506   2.297   4.736  0.9519 -0.4046  0.3142
   54MOL   H30731153   7.285   2.297   4.589 -0.9353  0.2845  0.1725
   54MOL   H30831154   7.363   2.110   4.485 -1.6827 -0.5863 -1.2280
   54MOL   H30931155   7.283   2.106   4.823 -0.5168 -0.5983 -0.8942
   54MOL   H31031156   7.276   2.276   4.848  1.3296 -0.3247  0.0105
   54MOL   H31131157   7.058   2.031   4.833  0.9930 -1.0096 -0.0021
   54MOL   H31231158   7.085   2.016   4.661  0.4113  0.6926  1.0103
   54MOL   H31331159   6.874   2.135   4.612  0.1744  0.6793  0.7145
   54MOL   H31431160   6.850   2.148   4.776  0.9190  0.2419  0.8041
   54MOL   H31531161   6.735   1.958   4.646  0.1205 -2.9668 -0.5438
   54MOL   H31631162   6.881   1.880   4.618  3.7294  0.7677  1.6388
   54MOL   H31731163   6.741   1.731   4.743  1.0006 -0.1177 -1.6509
   54MOL   H31831164   7.006   1.732   4.846  1.2173 -0.8717 -0.7382
   54MOL   H31931165   6.727   1.783   5.016 -1.3661 -0.5723  0.8055
   54MOL   H32031166   6.859   1.679   5.021  1.5042 -0.5543 -2.4122
   54MOL   C32131167   6.739   1.471   4.921  1.1910  0.2427  0.7168
   54MOL   C32231168   6.629   1.363   4.951 -0.1093  0.0839  0.6046
   54MOL   O32331169   6.589   1.377   5.086  0.1508  0.2520 -0.1232
   54MOL   C32431170   6.502   1.381   4.867 -0.0133  0.1630 -0.6296
   54MOL   O32531171   6.413   1.271   4.893 -0.5695  0.0028  0.1224
   54MOL   C32631172   6.275   1.299   4.876 -0.0572  0.3021  0.3548
   54MOL   C32731173   6.207   1.170   4.897 -1.2256  0.2510 -0.0302
   54MOL   C32831174   6.061   1.179   4.928 -0.3825  0.0939 -0.5737
   54MOL   O32931175   6.033   1.040   4.963  0.3447  0.2940  0.6679
   54MOL   C33031176   5.901   1.020   4.986 -0.1961 -0.1609 -0.0948
   54MOL   O33131177   5.822   1.023   4.870  0.6872 -0.0899 -0.1347
   54MOL   C33231178   5.901   0.877   5.046  0.3061 -0.2455 -0.3259
   54MOL   O33331179   5.930   0.881   5.183  0.4204  0.3614 -0.1172
   54MOL   H33431180   6.828   1.454   4.982  1.0310 -0.4162  0.7689
   54MOL   H33531181   6.763   1.470   4.815  1.4282 -1.0607  0.7688
   54MOL   H33631182   6.690   1.274   4.937  1.0909  1.0416 -0.3500
   54MOL   H33731183   6.543   1.459   5.085 -2.6841 -1.2233  1.6276
   54MOL   H33831184   6.535   1.376   4.763 -1.2338  1.1880 -1.0850
   54MOL   H33931185   6.452   1.475   4.892 -1.9668 -0.7418 -1.0473
   54MOL   H34031186   6.253   1.327   4.773  0.5609  0.1578  0.1751
   54MOL   H34131187   6.229   1.372   4.941 -1.4546  0.4784 -0.8059
   54MOL   H34231188   6.224   1.118   4.803 -1.7993  0.6330 -0.3480
   54MOL   H34331189   6.250   1.112   4.979 -0.5551  1.6038  0.5876
   54MOL   H34431190   6.046   1.248   5.011  1.4584  0.8873 -0.8988
   54MOL   H34531191   6.014   1.214   4.836  0.5580  0.7022 -0.8222
   54MOL   H34631192   5.859   1.083   5.064 -2.3276 -2.9710  1.1490
   54MOL   H34731193   5.852   0.957   4.810  0.6660 -0.7159  0.5269
   54MOL   H34831194   5.794   0.859   5.048  0.4418 -0.9942  2.1442
   54MOL   H34931195   5.960   0.809   4.985  2.0944  0.2760  0.7682
   54MOL   C35031196   6.070   0.890   5.213 -0.2289  0.2501 -0.8215
   54MOL   C35131197   6.113   0.948   5.349  0.2338  0.0090 -0.2034
   54MOL   O35231198   6.250   0.937   5.338  0.6405  0.0062 -0.1055
   54MOL   C35331199   6.087   1.099   5.349  0.4538  0.7938  0.7294
   54MOL   O35431200   6.057   1.152   5.478  0.1601  0.1039 -0.2320
   54MOL   C35531201   6.171   1.145   5.573 -0.1786  0.3092 -0.7594
   54MOL   C35631202   6.118   1.197   5.707 -0.5182  0.3458 -0.5008
   54MOL   C35731203   6.231   1.222   5.796  0.1538  0.3376 -0.3815
   54MOL   O35831204   6.189   1.297   5.906  0.3458  0.8779 -0.4210
   54MOL   C35931205   6.172   1.231   6.026 -0.7107 -0.0888  0.2146
   54MOL   O36031206   6.293   1.212   6.088 -0.1438 -0.9344 -0.0244
   54MOL   C36131207   6.066   1.311   6.113  0.4571 -0.1707 -0.3642
   54MOL   O36231208   5.937   1.238   6.102 -0.8606 -0.3238  0.1703
   54MOL   H36331209   6.125   0.949   5.140  1.5402 -0.1787  0.1298
   54MOL   H36431210   6.116   0.791   5.210 -0.9178 -0.1934  1.5651
   54MOL   H36531211   6.074   0.899   5.438  0.9416 -0.4521 -0.1445
   54MOL   H36631212   6.268   0.963   5.249 -0.4531  1.8459  0.2015
   54MOL   H36731213   6.165   1.162   5.308  0.1230  1.6812  1.4514
   54MOL   H36831214   5.995   1.109   5.293  1.0381 -0.9642 -0.5942
   54MOL   H36931215   6.257   1.199   5.533 -0.9603  1.0263 -1.4984
   54MOL   H37031216   6.216   1.047   5.588  1.1505  1.1396  0.9217
   54MOL   H37131217   6.053   1.124   5.756 -1.4547  0.9905 -0.7578
   54MOL   H37231218   6.067   1.294   5.699 -2.5416 -0.6605 -0.1166
   54MOL   H37331219   6.299   1.139   5.820 -3.1906 -1.9196  1.6623
   54MOL   H37431220   6.292   1.296   5.744  0.0405  0.8348  0.1947
   54MOL   H37531221   6.122   1.137   6.000 -0.8969  0.0639  0.0195
   54MOL   H37631222   6.317   1.295   6.124  0.9735 -0.7294 -1.2120
   54MOL   H37731223   6.089   1.296   6.218  1.5579 -1.9494 -0.8402
   54MOL   H37831224   6.065   1.416   6.082  0.5381 -1.1094 -3.8100
   54MOL   C37931225   5.818   1.318   6.112  0.5916 -0.6340 -0.2117
   54MOL   C38031226   5.794   1.364   6.254 -0.0569  1.0717  0.2684
   54MOL   O38131227   5.894   1.456   6.293 -0.8727  0.2301 -0.2641
   54MOL   C38231228   5.670   1.454   6.264  0.1620 -0.4061 -0.8135
   54MOL   O38331229   5.652   1.547   6.151 -0.2172  0.0781 -0.5475
   54MOL   C38431230   5.514   1.571   6.124  0.6033  0.3269  0.0506
   54MOL   C38531231   5.499   1.675   6.000 -0.7048  0.7803 -0.3457
   54MOL   C38631232   5.360   1.729   5.966 -0.4965 -0.1375 -0.4743
   54MOL   O38731233   5.363   1.792   5.831  0.4371 -0.2652 -0.0986
   54MOL   C38831234   5.253   1.872   5.801  0.4050  0.2650 -0.3813
   54MOL   O38931235   5.234   1.976   5.898 -0.0590  0.3501  0.3594
   54MOL   C39031236   5.267   1.935   5.658 -0.6750 -0.9404 -0.1729
   54MOL   O39131237   5.145   1.954   5.591  0.1485  0.5541  0.0244
   54MOL   H39231238   5.730   1.265   6.077 -1.0366  0.5352  1.9643
   54MOL   H39331239   5.818   1.403   6.044  1.6679  1.2397  2.0728
   54MOL   H39431240   5.786   1.281   6.324 -1.8993 -0.1281 -1.2917
   54MOL   H39531241   5.931   1.499   6.217  1.5461 -0.1112  0.6954
   54MOL   H39631242   5.595   1.376   6.276  0.9301 -0.9393  0.7225
   54MOL   H39731243   5.662   1.505   6.360 -0.1912 -2.2811  0.1698
   54MOL   H39831244   5.454   1.598   6.211  1.3693 -0.3394  0.7916
   54MOL   H39931245   5.472   1.478   6.086 -1.0504  1.7827 -1.7748
   54MOL   H40031246   5.527   1.618   5.911 -1.1402  1.5188 -0.9649
   54MOL   H40131247   5.571   1.756   6.009 -1.1438  0.9474  1.7762
   54MOL   H40231248   5.292   1.644   5.958  0.5068 -1.1006  1.0370
   54MOL   H40331249   5.332   1.800   6.044  0.0833 -1.0632  0.5914
   54MOL   H40431250   5.172   1.798   5.801  1.4987 -0.9632 -2.1021
   54MOL   H40531251   5.167   2.030   5.860 -0.9875 -0.4146  0.8901
   54MOL   H40631252   5.316   2.032   5.669 -1.0154 -0.6776 -0.9705
   54MOL   H40731253   5.331   1.874   5.594  2.5137  0.9715  1.0304
   54MOL   C40831254   5.162   1.958   5.452  0.3070 -0.6402  0.8226
   54MOL   C40931255   5.168   2.095   5.388  0.3720  0.4806 -0.3410
   54MOL   O41031256   5.066   2.174   5.436  0.0399 -0.2219  0.5571
   54MOL   C41131257   5.157   2.080   5.238  0.0855  0.0232  0.2704
   54MOL   O41231258   5.234   2.175   5.170  0.5819 -0.4339  0.1108
   54MOL   C41331259   5.182   2.302   5.183 -0.1552 -0.4121  0.0204
   54MOL   C41431260   5.230   2.392   5.067 -0.1388  0.7882 -0.3117
   54MOL   C41531261   5.188   2.539   5.068  0.0286  0.7467 -0.6190
   54MOL   O41631262   5.228   2.613   5.181 -0.1539 -0.4595 -0.3226
   54MOL   C41731263   5.346   2.693   5.173 -0.2738  0.1712  0.3669
   54MOL   O41831264   5.449   2.617   5.217 -0.4661  0.7010 -0.1584
   54MOL   C41931265   5.327   2.815   5.259 -0.1084  0.5694  0.4932
   54MOL   O42031266   5.239   2.902   5.193 -0.2876 -0.0802 -0.3822
   54MOL   H42131267   5.075   1.901   5.421 -0.6982  1.3412 -0.1310
   54MOL   H42231268   5.251   1.907   5.415 -0.0791 -1.4139  0.9505
   54MOL   H42331269   5.264   2.143   5.412  1.0910 -2.0905  2.2440
   54MOL   H42431270   5.073   2.170   5.530  1.7123  2.4871  0.6216
   54MOL   H42531271   5.209   1.989   5.205  0.8617  0.4005  0.4365
   54MOL   H42631272   5.054   2.087   5.204 -0.2122 -2.1152  0.6357
   54MOL   H42731273   5.076   2.299   5.160 -0.3792 -2.9000  1.2333
   54MOL   H42831274   5.190   2.338   5.285 -2.5732  1.5778 -0.4621
   54MOL   H42931275   5.196   2.344   4.975  1.4204 -0.0117 -0.4961
   54MOL   H43031276   5.339   2.387   5.065 -0.0601  1.1693  1.9729
   54MOL   H43131277   5.225   2.581   4.974  0.2538 -1.0305 -1.3500
   54MOL   H43231278   5.080   2.546   5.058  0.0156  0.1415 -0.9853
   54MOL   H43331279   5.377   2.724   5.073 -0.5607 -1.1647 -0.1449
   54MOL   H43431280   5.493   2.593   5.137 -1.0431 -0.7107 -0.0699
   54MOL   H43531281   5.289   2.776   5.353  2.5112 -1.0050  0.9600
   54MOL   H43631282   5.427   2.858   5.268 -0.1986  0.8720  0.0689
   54MOL   C43731283   5.160   2.976   5.288  0.0891  0.3172 -0.6306
   54MOL   C43831284   5.079   3.085   5.220 -0.8193 -0.5907  0.0299
   54MOL   O43931285   5.169   3.189   5.187 -0.2642 -0.4538  0.4009
   54MOL   C44031286   4.967   3.146   5.309  0.2834 -0.0043 -0.3490
   54MOL   O44131287   4.896   3.242   5.234 -0.3049  0.0905  0.4726
   54MOL   C44231288   4.759   3.259   5.261  0.5174  0.5216 -1.1182
   54MOL   C44331289   4.698   3.353   5.151  0.6183 -0.2630  0.6336
   54MOL   C44431290   4.778   3.483   5.129  0.1679 -0.3498  0.5038
   54MOL   O44531291   4.741   3.543   5.008 -0.7107 -0.3641 -0.2029
   54MOL   C44631292   4.779   3.678   4.994  0.3268 -0.3593 -0.5070
   54MOL   O44731293   4.718   3.770   5.082  0.2605  0.3935  0.0230
   54MOL   C44831294   4.719   3.715   4.856  0.9743 -0.4309  0.1037
   54MOL   O44931295   4.767   3.834   4.802  0.5846 -0.8882  0.3313
   54MOL   H45031296   5.087   2.902   5.323 -0.6644  0.4492 -1.8741
   54MOL   H45131297   5.229   3.011   5.365 -0.0623 -2.5395  0.9085
   54MOL   H45231298   5.033   3.053   5.127 -1.3082  1.9939 -0.6416
   54MOL   H45331299   5.117   3.266   5.169 -1.3305 -1.2186  0.1763
   54MOL   H45431300   4.903   3.066   5.346 -1.7716  2.5643  1.9050
   54MOL   H45531301   4.998   3.208   5.393 -1.7359  2.0839 -1.0915
   54MOL   H45631302   4.752   3.301   5.361  1.3728 -0.1857 -0.7481
   54MOL   H45731303   4.714   3.160   5.267  0.3011  0.7694  2.2259
   54MOL   H45831304   4.600   3.383   5.187  0.2283 -0.5289 -0.1850
   54MOL   H45931305   4.702   3.308   5.052  2.5660 -1.9744  1.4517
   54MOL   H46031306   4.761   3.553   5.211 -0.6388 -1.4063  1.2640
   54MOL   H46131307   4.887   3.476   5.127  0.0681 -1.8550  0.3443
   54MOL   H46231308   4.887   3.692   4.987 -0.0570  1.2979 -4.7270
   54MOL   H46331309   4.626   3.747   5.085 -0.0404  1.4555 -0.7909
   54MOL   H46431310   4.734   3.630   4.789 -2.1536 -0.6460 -0.4015
   54MOL   H46531311   4.611   3.712   4.872  0.4313 -3.0694 -3.4833
   54MOL   C46631312   4.897   3.818   4.742 -1.3395 -0.7907 -0.1822
   54MOL   C46731313   4.940   3.946   4.673  0.4006  0.3162  0.4790
   54MOL   O46831314   4.926   4.044   4.776 -0.0510  0.4643 -0.1906
   54MOL   C46931315   5.084   3.935   4.614 -0.0477  0.7576  0.1760
   54MOL   O47031316   5.075   3.833   4.510 -0.2231 -0.4538  0.0364
   54MOL   C47131317   5.189   3.850   4.425 -0.1993  0.7326  0.7748
   54MOL   C47231318   5.214   3.734   4.331 -0.6862  0.6859 -0.2960
   54MOL   C47331319   5.100   3.721   4.234 -0.1653  0.5222 -0.2697
   54MOL   O47431320   5.089   3.599   4.156  0.5785 -0.6286 -0.1952
   54MOL   C47531321   5.195   3.568   4.072  0.1580 -0.5022  0.2262
   54MOL   O47631322   5.179   3.629   3.946  0.0919  0.4237  0.2422
   54MOL   C47731323   5.197   3.417   4.050 -0.5190 -0.0071 -0.2316
   54MOL   O47831324   5.079   3.373   3.988 -0.0048 -0.5204  0.3312
   54MOL   H47931325   4.876   3.742   4.666 -1.6819 -0.3972 -0.4864
   54MOL   H48031326   4.978   3.784   4.806 -1.3288 -0.2965  0.0628
   54MOL   H48131327   4.860   3.961   4.600 -0.1979  1.1489  1.2880
   54MOL   H48231328   4.845   4.012   4.811  0.1557  0.2046  0.0457
   54MOL   H48331329   5.117   4.033   4.580  1.0034  1.0034  1.8320
   54MOL   H48431330   5.137   3.893   4.700 -0.6629 -0.7931 -0.1767
   54MOL   H48531331   5.275   3.861   4.491  0.4643  1.8652 -0.2640
   54MOL   H48631332   5.168   3.940   4.367 -1.1015  0.8031  1.2092
   54MOL   H48731333   5.226   3.640   4.384 -2.3312  0.2932 -0.6174
   54MOL   H48831334   5.313   3.752   4.289 -0.2263 -1.5478 -0.2054
   54MOL   H48931335   5.009   3.743   4.291  1.2667  1.2823  1.7977
   54MOL   H49031336   5.098   3.810   4.171  1.7371  0.0947 -0.9411
   54MOL   H49131337   5.294   3.596   4.109 -0.7422  0.4316  2.0117
   54MOL   H49231338   5.097   3.591   3.919 -0.3114  1.7900 -0.4835
   54MOL   H49331339   5.292   3.397   4.000  0.1864  3.4559 -0.3709
   54MOL   H49431340   5.208   3.366   4.146  1.9476 -0.6624 -0.8331
   54MOL   C49531341   5.055   3.236   3.995  0.2652  0.0272  0.3708
   54MOL   C49631342   5.109   3.153   3.865 -0.4266 -0.4996 -0.3972
   54MOL   O49731343   5.250   3.140   3.875 -0.5287 -0.1957 -0.4363
   54MOL   C49831344   5.042   3.013   3.856 -0.2907 -0.0823  0.4185
   54MOL   O49931345   5.044   2.957   3.729 -0.1581 -0.2124  0.0916
   54MOL   C50031346   5.168   2.903   3.685 -0.2553 -0.2612  0.0477
   54MOL   C50131347   5.147   2.848   3.548 -0.5529  0.4089 -0.0671
   54MOL   C50231348   5.061   2.720   3.551  0.7053 -0.2144  0.0423
   54MOL   O50331349   5.032   2.667   3.417  0.1947  0.0572 -0.9156
   54MOL   C50431350   4.902   2.687   3.376  0.1717  0.2256  0.6464
   54MOL   O50531351   4.867   2.599   3.270 -0.1239 -0.4693  0.0357
   54MOL   C50631352   4.881   2.836   3.329  0.4765  0.4600 -0.7332
   54MOL   O50731353   4.879   2.931   3.442  0.0206  0.6416  0.0158
   54MOL   H50831354   4.947   3.224   3.990  0.0004  2.0666  0.5231
   54MOL   H50931355   5.085   3.193   4.090  2.2481  0.4733 -0.0312
   54MOL   H51031356   5.083   3.210   3.776 -0.0245 -2.3226 -1.7127
   54MOL   H51131357   5.272   3.075   3.941 -1.7031  1.3633  1.5322
   54MOL   H51231358   5.074   2.947   3.937  1.0327 -0.3432 -0.3056
   54MOL   H51331359   4.937   3.035   3.877 -0.2184  1.7283 -0.9506
   54MOL   H51431360   5.204   2.814   3.736 -0.5428  0.2475  1.1650
   54MOL   H51531361   5.251   2.974   3.682 -0.0287 -0.3761  2.6628
   54MOL   H51631362   5.248   2.821   3.517 -0.8824 -1.5046  0.4292
   54MOL   H51731363   5.106   2.923   3.480 -0.7956 -0.3835 -0.8077
   54MOL   H51831364   5.120   2.644   3.601  0.2419 -0.8623 -0.3898
   54MOL   H51931365   4.968   2.731   3.607  1.4996  0.5545  1.2230
   54MOL   H52031366   4.826   2.667   3.452 -0.4687  0.8149  0.1713
   54MOL   H52131367   4.863   2.512   3.307  0.1216  0.3833  2.1542
   54MOL   H52231368   4.956   2.867   3.256  0.8598  0.6148 -0.2762
   54MOL   H52331369   4.780   2.838   3.288  0.0593 -2.1931  0.0215
   54MOL   C52431370   4.863   3.065   3.399  0.8062 -0.7224 -0.4010
   54MOL   C52531371   4.894   3.161   3.520 -0.5032  0.1972 -0.2784
   54MOL   O52631372   4.817   3.112   3.622  0.7435 -0.2419  0.4444
   54MOL   C52731373   4.850   3.299   3.477 -0.3872 -0.2846  0.0304
   54MOL   O52831374   4.909   3.401   3.553 -0.0305 -0.5474  0.0561
   54MOL   C52931375   4.870   3.537   3.523  0.4969 -0.5181 -0.3628
   54MOL   C53031376   4.729   3.558   3.565 -0.4037  0.0860  1.1591
   54MOL   C53131377   4.684   3.704   3.582 -0.2011 -0.2590  0.0909
   54MOL   O53231378   4.549   3.702   3.624  0.2919 -0.2572  0.4211
   54MOL   C53331379   4.508   3.827   3.665  0.4697  0.0273 -0.1520
   54MOL   O53431380   4.465   3.913   3.568 -0.8571 -0.7116  0.4492
   54MOL   C53531381   4.395   3.811   3.768 -0.1873  0.2627  0.6423
   54MOL   O53631382   4.400   3.919   3.868  0.5248  0.4385  0.4845
   54MOL   H53731383   4.763   3.086   3.361  1.5169  3.2919 -0.1977
   54MOL   H53831384   4.930   3.092   3.317  0.1155 -4.5041 -2.3208
   54MOL   H53931385   4.997   3.153   3.554 -0.4310  0.2203 -0.4927
   54MOL   H54031386   4.834   3.019   3.625  2.2240  0.0285  1.1716
   54MOL   H54131387   4.875   3.324   3.375 -1.7464  1.3179  0.0652
   54MOL   H54231388   4.741   3.301   3.473 -0.3998  0.6879  0.6339
   54MOL   H54331389   4.892   3.563   3.420  3.1633  0.4030  0.3903
   54MOL   H54431390   4.943   3.595   3.581 -0.7853  1.6413 -0.8764
   54MOL   H54531391   4.708   3.502   3.656  1.4511 -0.0514  1.5111
   54MOL   H54631392   4.669   3.515   3.484  0.0969  0.7418  0.4383
   54MOL   H54731393   4.761   3.740   3.650  0.2481  2.0810 -1.6215
   54MOL   H54831394   4.704   3.762   3.492 -1.3443 -0.5263 -0.3400
   54MOL   H54931395   4.591   3.873   3.719  0.9311 -1.0619  0.0808
   54MOL   H55031396   4.463   4.001   3.603 -1.2741 -2.1037  4.1566
   54MOL   H55131397   4.299   3.811   3.716  1.5744  1.4641 -2.8380
   54MOL   H55231398   4.419   3.720   3.822 -1.6225 -0.0655  0.7536
   54MOL   C55331399   4.330   3.892   3.992 -0.1306  0.9712 -0.7445
   54MOL   C55431400   4.313   4.028   4.066 -0.5495  0.0556  0.1527
   54MOL   O55531401   4.441   4.093   4.056  0.1241 -0.7459 -0.3110
   54MOL   C55631402   4.246   4.029   4.205  0.5327  0.6580  0.2248
   54MOL   O55731403   4.106   4.005   4.180 -0.4832  0.0079  0.3942
   54MOL   C55831404   4.066   3.881   4.227 -0.5144  0.1638  0.2402
   54MOL   C55931405   3.915   3.854   4.187  0.2792  0.3028  0.1357
   54MOL   C56031406   3.852   3.730   4.263 -0.6480  0.1442  0.2368
   54MOL   O56131407   3.710   3.742   4.265  0.7578  0.5891  0.3749
   54MOL   C56231408   3.636   3.639   4.321 -0.9011  0.0701  0.1249
   54MOL   O56331409   3.658   3.618   4.457 -0.0056 -0.5728 -0.0754
   54MOL   C56431410   3.483   3.664   4.299 -0.3245  0.1481  0.8408
   54MOL   O56531411   3.456   3.646   4.156  0.3705  0.0819 -0.2746
   54MOL   H56631412   4.392   3.822   4.048 -0.0805 -0.2015 -2.2303
   54MOL   H56731413   4.234   3.843   3.977 -0.0904  1.1180 -1.4889
   54MOL   H56831414   4.257   4.096   4.002  2.9884  2.2509 -0.7485
   54MOL   H56931415   4.461   4.084   3.964 -0.0942 -2.3732 -0.2270
   54MOL   H57031416   4.288   3.963   4.282  1.3984  0.6959 -0.2171
   54MOL   H57131417   4.245   4.128   4.250 -0.3698  1.2656 -1.0972
   54MOL   H57231418   4.125   3.800   4.185  1.0652  1.8417 -0.8581
   54MOL   H57331419   4.071   3.883   4.336 -0.9630 -3.2777  0.3698
   54MOL   H57431420   3.912   3.843   4.079  0.2663 -0.3552  0.1992
   54MOL   H57531421   3.850   3.941   4.200 -0.3682 -0.0523 -0.6740
   54MOL   H57631422   3.881   3.636   4.216  1.2371  0.6491  0.3223
   54MOL   H57731423   3.891   3.724   4.365  0.9620  1.9106 -0.2380
   54MOL   H57831424   3.666   3.541   4.285  0.1721  1.0915 -1.8568
   54MOL   H57931425   3.748   3.590   4.463  0.7219  1.5909 -0.5729
   54MOL   H58031426   3.439   3.600   4.375 -3.4688  1.5004  0.2394
   54MOL   H58131427   3.463   3.768   4.323 -0.5996 -0.4776  3.5174
   54MOL   H58231428   3.508   3.575   4.122  2.1558  0.6491  1.2109
   55MOL     C131429   7.512   0.668   1.358 -0.9800  0.2137  0.1404
   55MOL     C231430   7.660   0.653   1.387  0.1123  0.4789 -0.2537
   55MOL     O331431   7.667   0.652   1.523  0.2781 -0.6052 -0.5409
   55MOL     C431432   0.048   0.536   1.335  0.1087 -0.2584 -0.8466
   55MOL     O531433   0.071   0.547   1.192 -0.4636 -0.0271  0.4979
   55MOL     C631434   0.158   0.443   1.142 -0.6748 -0.7350  0.1356
   55MOL     C731435   0.173   0.458   0.991 -0.1151  0.2928 -0.1162
   55MOL     C831436   0.056   0.402   0.911 -0.4780  0.1326 -0.1602
   55MOL     O931437   0.115   0.344   0.799  0.1780  0.2096  0.3517
   55MOL    C1031438   0.011   0.311   0.709  0.2123  0.2067  0.7208
   55MOL    O1131439   7.642   0.198   0.764 -0.5366 -0.1377  0.0220
   55MOL    C1231440   0.069   0.280   0.571 -0.5645  0.2707  0.3883
   55MOL    O1331441   0.198   0.232   0.579 -0.7403 -0.2134  0.9325
   55MOL    H1431442   7.466   0.759   1.396  1.1473  1.1129  0.5844
   55MOL    H1531443   7.458   0.590   1.411  1.5130 -2.4474 -1.0762
   55MOL    H1631444   0.012   0.747   1.357 -0.7894  0.8503 -0.4960
   55MOL    H1731445   0.059   0.673   1.557  0.1738  2.7666 -2.1376
   55MOL    H1831446   0.147   0.551   1.378  0.9137 -0.0883 -2.6754
   55MOL    H1931447   0.009   0.434   1.339 -0.4101 -0.0144  0.2378
   55MOL    H2031448   0.119   0.343   1.161 -1.4565 -0.5447 -0.4577
   55MOL    H2131449   0.258   0.456   1.185 -0.5214 -2.1566  0.2275
   55MOL    H2231450   0.264   0.398   0.979 -1.4519 -1.4628 -1.8354
   55MOL    H2331451   0.210   0.555   0.958  1.4394  0.0606  0.8870
   55MOL    H2431452   0.004   0.331   0.975  2.1222 -1.4369  0.2841
   55MOL    H2531453   7.688   0.487   0.884 -0.0535  0.2237 -0.8703
   55MOL    H2631454   7.636   0.394   0.697 -2.3420 -1.8343  1.0224
   55MOL    H2731455   0.005   0.128   0.788  0.2860  0.2522 -0.7830
   55MOL    H2831456   0.008   0.218   0.506  0.3281 -2.6740  2.2750
   55MOL    H2931457   0.075   0.377   0.521 -2.1464 -0.3559 -1.0420
   55MOL    H3031458   7.490   0.658   1.251  0.5848  0.7670 -0.2495
   55MOL    C3131459   0.215   0.104   0.636 -0.2574 -0.0144 -0.0860
   55MOL    C3231460   0.364   0.078   0.641  0.0039 -0.1134  0.0039
   55MOL    O3331461   0.402   7.644   0.697  0.2507  0.2267 -0.1235
   55MOL    C3431462   0.427   0.167   0.741 -0.3432 -0.2351 -0.6020
   55MOL    O3531463   0.571   0.146   0.741  0.4866  0.2254 -0.4596
   55MOL    C3631464   0.637   0.204   0.626 -0.2557 -0.8641  0.4458
   55MOL    C3731465   0.788   0.166   0.612 -0.2997 -0.3340  0.4863
   55MOL    C3831466   0.856   0.235   0.484 -0.2555  0.7740  0.1211
   55MOL    O3931467   0.990   0.184   0.480 -0.2530 -0.0335  0.0155
   55MOL    C4031468   1.078   0.266   0.550 -0.2499 -0.6312 -0.3749
   55MOL    O4131469   1.123   0.370   0.468  0.1926  0.0405 -0.3866
   55MOL    C4231470   1.193   0.177   0.585 -0.4621  0.1072  0.0604
   55MOL    O4331471   1.264   0.221   0.701  0.6813  0.2004 -0.5113
   55MOL    H4431472   0.178   0.097   0.739  0.5213  1.1259  0.2776
   55MOL    H4531473   0.158   0.026   0.585 -0.9393  0.7479 -0.5043
   55MOL    H4631474   0.413   0.086   0.544  0.8940  0.5064  0.5002
   55MOL    H4731475   0.487   7.657   0.735 -0.6987  0.3831  2.0692
   55MOL    H4831476   0.397   0.271   0.727  1.6416  0.1514 -2.2695
   55MOL    H4931477   0.388   0.150   0.841 -0.8648 -0.0217 -0.7689
   55MOL    H5031478   0.630   0.312   0.639  1.4235 -0.7215  0.3073
   55MOL    H5131479   0.599   0.172   0.529 -0.6968 -4.8168  1.8492
   55MOL    H5231480   0.804   0.059   0.600  0.0369 -0.1360 -0.9381
   55MOL    H5331481   0.839   0.190   0.706  1.2151 -0.5543 -0.2517
   55MOL    H5431482   0.811   0.203   0.390 -3.1686 -0.2105  1.7913
   55MOL    H5531483   0.870   0.343   0.481  0.5372  0.6439 -1.3527
   55MOL    H5631484   1.033   0.306   0.641 -1.4498 -0.4858 -1.0224
   55MOL    H5731485   1.198   0.332   0.423  0.7045 -0.5287  0.9187
   55MOL    H5831486   1.158   0.081   0.622 -0.3499 -0.3125 -0.9320
   55MOL    H5931487   1.253   0.167   0.495  0.7887 -1.3771  1.0309
   55MOL    C6031488   1.379   0.144   0.717 -0.3075 -0.1664 -0.6263
   55MOL    C6131489   1.393   0.118   0.863 -0.4045  0.1124 -0.2188
   55MOL    O6231490   1.427   0.234   0.927 -0.0993 -0.1535  0.2756
   55MOL    C6331491   1.503   0.020   0.907  0.1770 -0.6618 -0.2833
   55MOL    O6431492   1.483   7.664   1.041  0.0507 -0.0010  0.0069
   55MOL    C6531493   1.598   7.606   1.101  0.0701  0.0864  0.8037
   55MOL    C6631494   1.574   7.613   1.256 -0.4061 -0.2013  0.1363
   55MOL    C6731495   1.518   0.040   1.323  0.3898 -0.0504 -0.4964
   55MOL    O6831496   1.511   0.004   1.465 -0.2147 -0.2809  0.0591
   55MOL    C6931497   1.460   0.103   1.541 -0.1313 -0.5807  0.1187
   55MOL    O7031498   1.323   0.123   1.523  0.4480 -0.0605  0.2052
   55MOL    C7131499   1.487   0.052   1.686  0.1617  0.1825  0.1941
   55MOL    O7231500   1.393   7.646   1.716  0.3577 -0.8386  0.2685
   55MOL    H7331501   1.461   0.207   0.683  1.0197 -1.2505  0.5098
   55MOL    H7431502   1.375   0.053   0.657 -2.1118 -0.3239 -0.2782
   55MOL    H7531503   1.296   0.091   0.903 -0.8780  0.2843 -1.2372
   55MOL    H7631504   1.510   0.262   0.891  0.0616 -0.9976 -0.0285
   55MOL    H7731505   1.512   7.640   0.829 -3.0262 -1.8597  0.4356
   55MOL    H7831506   1.603   0.064   0.900  0.2145 -1.0733 -2.7435
   55MOL    H7931507   1.677   7.678   1.082  2.1154 -2.1211  0.7199
   55MOL    H8031508   1.623   7.506   1.067  1.4669  1.1222 -1.3078
   55MOL    H8131509   1.668   7.602   1.312 -0.8164  0.6892  1.0215
   55MOL    H8231510   1.523   7.526   1.298 -1.3061 -0.1186 -0.7856
   55MOL    H8331511   1.421   0.066   1.280  0.1151  2.7115  1.6622
   55MOL    H8431512   1.577   0.129   1.305 -0.6480  0.9837  1.1103
   55MOL    H8531513   1.507   0.201   1.526 -3.9047  1.3491  0.1635
   55MOL    H8631514   1.282   0.043   1.555 -2.1029  2.3695  3.3329
   55MOL    H8731515   1.590   0.015   1.687 -0.7595 -2.4799 -0.1087
   55MOL    H8831516   1.471   0.134   1.756 -1.2841 -0.6372  0.8251
   55MOL    C8931517   1.445   7.577   1.823 -0.4171  0.3947  0.4647
   55MOL    C9031518   1.365   7.449   1.832  0.4080 -0.0546 -0.0510
   55MOL    O9131519   1.412   7.362   1.732  0.0700 -0.0523  0.1764
   55MOL    C9231520   1.366   7.372   1.967  0.2246 -0.6079 -0.1625
   55MOL    O9331521   1.271   7.441   2.047  0.4548  0.0140 -0.0020
   55MOL    C9431522   1.237   7.368   2.171 -0.1870 -0.8357  0.0924
   55MOL    C9531523   1.123   7.438   2.245 -0.0617  0.5804  0.3259
   55MOL    C9631524   1.056   7.349   2.347 -0.2188 -0.0809 -0.3054
   55MOL    O9731525   0.986   7.428   2.439 -0.6805  0.1859  0.7170
   55MOL    C9831526   0.927   7.358   2.541 -0.0009 -0.3479 -1.0299
   55MOL    O9931527   1.022   7.319   2.644  0.1783  0.3200  0.0838
   55MOL   C10031528   0.810   7.437   2.586  0.1587 -0.6995 -0.9860
   55MOL   O10131529   0.684   7.386   2.538  0.1359 -0.3071 -0.3134
   55MOL   H10231530   1.441   7.637   1.914 -1.6275 -2.1090  2.1247
   55MOL   H10331531   1.544   7.534   1.804 -1.1099 -1.4355  0.9704
   55MOL   H10431532   1.263   7.483   1.811 -0.2573 -0.4813  2.2794
   55MOL   H10531533   1.339   7.330   1.681 -0.2000 -0.4977  0.8213
   55MOL   H10631534   1.333   7.271   1.944  3.4910 -0.7564 -4.8013
   55MOL   H10731535   1.463   7.368   2.016 -0.3718 -0.5113  1.0579
   55MOL   H10831536   1.331   7.365   2.225 -0.5617 -3.0154  0.6922
   55MOL   H10931537   1.198   7.270   2.142 -0.7149 -0.3820 -0.7719
   55MOL   H11031538   1.055   7.486   2.175  2.1759  0.9264 -1.6817
   55MOL   H11131539   1.172   7.523   2.293  0.9183  0.2381 -0.0503
   55MOL   H11231540   0.980   7.292   2.294  0.6432 -1.4632 -0.0752
   55MOL   H11331541   1.123   7.283   2.401  0.6375  0.3572 -0.8207
   55MOL   H11431542   0.891   7.261   2.506  1.7195 -1.1357 -0.6314
   55MOL   H11531543   1.028   7.392   2.704 -2.8824 -0.4398  1.4365
   55MOL   H11631544   0.803   7.429   2.694  1.5037  0.0054 -0.8374
   55MOL   H11731545   0.827   7.542   2.564  0.9299 -0.8970 -1.3454
   55MOL   C11831546   0.677   7.411   2.396  0.8216  0.4969 -0.6417
   55MOL   C11931547   0.538   7.371   2.350 -0.1560 -0.2789 -0.1744
   55MOL   O12031548   0.533   7.402   2.215  0.0738 -0.0094 -0.7285
   55MOL   C12131549   0.423   7.451   2.408 -0.5651 -0.4769 -0.5502
   55MOL   O12231550   0.298   7.402   2.367 -0.5152  0.9969 -0.2096
   55MOL   C12331551   0.196   7.433   2.460  0.0837 -0.1333 -0.2590
   55MOL   C12431552   0.126   7.563   2.418  0.2781 -0.4850 -0.3456
   55MOL   C12531553   7.685   7.580   2.480  0.4304  0.7277 -0.5241
   55MOL   O12631554   7.635   0.022   2.451  0.1982  0.3360  0.0430
   55MOL   C12731555   7.532   0.063   2.534  0.3454  0.1619  0.1108
   55MOL   O12831556   7.420   7.668   2.534 -0.0547  0.1251 -0.3283
   55MOL   C12931557   7.478   0.187   2.470  0.2398  0.4759 -0.3659
   55MOL   O13031558   7.398   0.252   2.559  0.0180  0.0805  0.3426
   55MOL   H13131559   0.698   7.514   2.366 -0.2283  1.6064  2.2527
   55MOL   H13231560   0.753   7.354   2.342 -1.0171 -0.3692 -2.4001
   55MOL   H13331561   0.525   7.267   2.379 -1.1525  0.1444  0.9422
   55MOL   H13431562   0.452   7.359   2.190 -0.5166 -0.0926  1.2143
   55MOL   H13531563   0.443   7.449   2.515  1.6482 -0.4610 -0.9387
   55MOL   H13631564   0.446   7.552   2.374  0.9380 -0.3812  0.7025
   55MOL   H13731565   0.227   7.441   2.564  3.1471 -3.6663 -0.7550
   55MOL   H13831566   0.118   7.357   2.459 -2.3517  2.1765  3.2211
   55MOL   H13931567   0.109   7.569   2.311  0.6080  0.5005 -0.3410
   55MOL   H14031568   0.187   7.649   2.445  0.3433 -1.3099  2.3819
   55MOL   H14131569   7.614   7.509   2.435  1.3873 -0.3784 -0.3111
   55MOL   H14231570   7.673   7.557   2.586 -0.5236 -0.0066 -0.7818
   55MOL   H14331571   7.578   0.077   2.632  0.4296 -2.7860  0.5381
   55MOL   H14431572   7.365   0.003   2.605  0.5032  0.1973  0.0783
   55MOL   H14531573   7.558   0.258   2.451 -0.8688  1.5718 -0.9928
   55MOL   H14631574   7.427   0.164   2.377 -1.4819  0.9905  0.4202
   55MOL   C14731575   7.287   0.310   2.494  0.2479  0.6463  0.0903
   55MOL   C14831576   7.184   0.363   2.585  0.0348  0.1656  0.2020
   55MOL   O14931577   7.113   0.266   2.654 -0.1840  0.2880 -0.2570
   55MOL   C15031578   7.092   0.443   2.500  0.4153  0.6436 -0.0632
   55MOL   O15131579   7.008   0.506   2.589  0.0663  0.1060 -0.5976
   55MOL   C15231580   6.870   0.513   2.554 -0.4705 -0.6669  0.3629
   55MOL   C15331581   6.790   0.608   2.644 -0.0842 -0.3271  0.1938
   55MOL   C15431582   6.669   0.673   2.580  0.2743  0.5997 -0.2740
   55MOL   O15531583   6.608   0.757   2.671  0.3063 -0.9385 -0.2580
   55MOL   C15631584   6.489   0.806   2.634 -0.2331  0.2495  0.3426
   55MOL   O15731585   6.479   0.840   2.497 -0.0359 -0.4071  0.0213
   55MOL   C15831586   6.470   0.938   2.711  0.4515  0.3610 -0.2739
   55MOL   O15931587   6.336   0.983   2.700  0.5252  0.2496  0.1353
   55MOL   H16031588   7.245   0.238   2.424  0.7782  0.0476  0.3858
   55MOL   H16131589   7.327   0.389   2.429  0.4205  1.3151  0.9991
   55MOL   H16231590   7.232   0.434   2.653  2.0889 -0.2885 -0.7624
   55MOL   H16331591   7.169   0.231   2.722 -1.0409 -0.0275  0.3051
   55MOL   H16431592   7.139   0.524   2.444  2.4485 -1.2931 -1.1866
   55MOL   H16531593   7.042   0.371   2.435  0.5800  0.4738  0.0002
   55MOL   H16631594   6.825   0.414   2.542 -1.4033  0.0046 -2.0831
   55MOL   H16731595   6.871   0.555   2.453  0.6137  1.9705  1.4220
   55MOL   H16831596   6.858   0.689   2.669 -0.1915 -0.5048  1.1138
   55MOL   H16931597   6.772   0.569   2.745 -0.1801  1.3826  0.8676
   55MOL   H17031598   6.707   0.724   2.491 -1.0464  2.7623  0.3682
   55MOL   H17131599   6.604   0.591   2.547  1.2416 -0.9144  1.4872
   55MOL   H17231600   6.417   0.731   2.666 -0.4643 -0.3796 -1.5910
   55MOL   H17331601   6.509   0.930   2.496 -1.2559  0.0025  0.1637
   55MOL   H17431602   6.479   0.921   2.819 -2.5619  4.3234  0.7086
   55MOL   H17531603   6.558   0.998   2.690 -0.1085  0.2061 -3.3087
   55MOL   C17631604   6.322   1.121   2.725  0.5715 -0.2033 -0.3257
   55MOL   C17731605   6.175   1.161   2.694  0.1227  0.2336  0.8303
   55MOL   O17831606   6.172   1.159   2.549  0.2523 -0.5746 -0.2286
   55MOL   C17931607   6.146   1.304   2.740  0.5086  0.0961  0.3467
   55MOL   O18031608   6.162   1.321   2.879  0.1332  0.9122  0.2816
   55MOL   C18131609   6.153   1.458   2.920 -0.0457  0.0535  0.2674
   55MOL   C18231610   6.166   1.469   3.069 -0.5169  0.1309 -0.4860
   55MOL   C18331611   6.038   1.434   3.152 -0.2479  0.5062 -0.0057
   55MOL   O18431612   6.069   1.438   3.294 -0.0857  0.5672 -0.0297
   55MOL   C18531613   5.973   1.366   3.379  0.3555 -0.5642 -0.1018
   55MOL   O18631614   5.840   1.420   3.383  0.4042  0.1319  0.0573
   55MOL   C18731615   6.031   1.371   3.516  0.0041  0.6121  0.3074
   55MOL   O18831616   5.962   1.289   3.610  0.5556  0.3065 -0.7471
   55MOL   H18931617   6.393   1.180   2.667 -1.2536  1.1522 -1.2212
   55MOL   H19031618   6.337   1.139   2.831 -0.6295 -0.2173 -0.1498
   55MOL   H19131619   6.101   1.093   2.734  1.5189 -2.0212 -0.3491
   55MOL   H19231620   6.259   1.176   2.518  0.3523 -2.6472 -1.1543
   55MOL   H19331621   6.208   1.378   2.690 -1.0861  1.6153  0.5635
   55MOL   H19431622   6.044   1.336   2.718  0.7872  2.7008  2.5535
   55MOL   H19531623   6.053   1.489   2.890  0.3583  2.6026  1.4502
   55MOL   H19631624   6.221   1.513   2.855 -0.0593 -0.6008 -0.3034
   55MOL   H19731625   6.203   1.566   3.101 -0.8778  0.7169 -1.8236
   55MOL   H19831626   6.252   1.411   3.103 -0.5221  0.3746 -0.0467
   55MOL   H19931627   5.955   1.499   3.127 -0.9000 -0.4990 -0.4544
   55MOL   H20031628   6.004   1.334   3.128 -1.6068  0.1658  3.0448
   55MOL   H20131629   5.954   1.265   3.342  0.6061 -0.7523  0.2860
   55MOL   H20231630   5.777   1.354   3.407  0.6828  0.4015  1.5501
   55MOL   H20331631   6.132   1.333   3.503  0.1244  1.8169 -2.7257
   55MOL   H20431632   6.038   1.474   3.550 -0.1907  0.3590  1.1432
   55MOL   C20531633   6.041   1.260   3.723  0.1928 -0.0391  0.1719
   55MOL   C20631634   5.954   1.214   3.841  0.0539  0.1131 -0.0222
   55MOL   O20731635   5.897   1.103   3.783 -0.2627 -0.3272 -0.0219
   55MOL   C20831636   6.032   1.170   3.963 -0.1250  0.3200  0.4952
   55MOL   O20931637   6.157   1.105   3.922 -0.1949 -0.3396 -0.0468
   55MOL   C21031638   6.227   1.048   4.033 -0.8920  0.9553  0.0250
   55MOL   C21131639   6.354   0.976   3.984 -0.1194 -0.0506  0.2278
   55MOL   C21231640   6.435   0.910   4.099 -1.1523  0.8420 -0.1906
   55MOL   O21331641   6.549   0.839   4.050  0.2290  0.0784 -0.6809
   55MOL   C21431642   6.636   0.780   4.141  0.1922 -0.2989 -0.4146
   55MOL   O21531643   6.697   0.883   4.220 -0.3801 -0.1299 -0.1165
   55MOL   C21631644   6.738   0.710   4.046 -0.3169 -0.1589 -0.4353
   55MOL   O21731645   6.786   0.816   3.967 -0.6123  0.2215 -0.0176
   55MOL   H21831646   6.097   1.351   3.748  1.4058 -0.5226 -0.7592
   55MOL   H21931647   6.110   1.184   3.688 -1.2661 -0.5807 -1.6148
   55MOL   H22031648   5.877   1.286   3.868 -0.3580  0.3227 -1.7129
   55MOL   H22131649   5.936   1.110   3.697 -0.2760 -1.0640 -0.0873
   55MOL   H22231650   6.064   1.247   4.033 -1.2702  0.5737  0.7439
   55MOL   H22331651   5.958   1.113   4.019 -0.3499  0.4495  0.3306
   55MOL   H22431652   6.166   0.974   4.085  1.1122  0.3684  1.5809
   55MOL   H22531653   6.254   1.129   4.100 -0.5549 -0.7815  2.0546
   55MOL   H22631654   6.421   1.030   3.917  0.3881 -0.3572  0.4827
   55MOL   H22731655   6.313   0.896   3.922  0.2038 -0.6598  0.7977
   55MOL   H22831656   6.460   0.979   4.180 -1.8947 -0.0810  0.8507
   55MOL   H22931657   6.371   0.836   4.148 -0.6551  1.1530  0.9415
   55MOL   H23031658   6.580   0.709   4.201  2.2327  0.5488  2.5765
   55MOL   H23131659   6.750   0.933   4.159 -1.0475 -0.1731 -0.7436
   55MOL   H23231660   6.815   0.657   4.102 -0.1737  0.3498 -0.1550
   55MOL   H23331661   6.677   0.639   3.990 -0.7216 -0.1152 -0.0557
   55MOL   C23431662   6.792   0.783   3.835  0.4661  0.1052  0.1537
   55MOL   C23531663   6.827   0.905   3.756 -0.2180 -0.0721 -0.8977
   55MOL   O23631664   6.705   0.984   3.765 -0.3438 -0.4915 -0.2958
   55MOL   C23731665   6.855   0.864   3.610  0.1345 -0.5186 -0.4788
   55MOL   O23831666   6.983   0.793   3.599  0.5738 -0.1182  0.1622
   55MOL   C23931667   7.019   0.747   3.471 -0.4369 -0.6754 -1.3901
   55MOL   C24031668   7.168   0.700   3.476  0.0037  0.5475  0.1829
   55MOL   C24131669   7.194   0.589   3.573 -0.5406 -0.3468 -0.2045
   55MOL   O24231670   7.334   0.573   3.574 -0.1487 -0.5922 -0.3900
   55MOL   C24331671   7.384   0.467   3.660 -0.4731 -0.1395 -0.5447
   55MOL   O24431672   7.383   0.490   3.798 -0.1048 -0.3023  0.5430
   55MOL   C24531673   7.521   0.438   3.608  0.3771  0.3169  0.1199
   55MOL   O24631674   7.522   0.363   3.484 -0.6085 -0.0227 -0.0800
   55MOL   H24731675   6.876   0.718   3.812 -0.4257 -0.2533 -2.2897
   55MOL   H24831676   6.704   0.729   3.800 -0.8810  2.2628  0.0883
   55MOL   H24931677   6.922   0.940   3.796  1.3466 -4.0657 -0.8881
   55MOL   H25031678   6.684   0.994   3.857  0.6030  2.2183 -0.3218
   55MOL   H25131679   6.775   0.812   3.558 -0.0389  2.2410 -3.1227
   55MOL   H25231680   6.868   0.953   3.549  1.2267 -2.0840 -2.5774
   55MOL   H25331681   7.013   0.827   3.397 -2.1752  0.5114 -0.0314
   55MOL   H25431682   6.951   0.667   3.441 -0.4566 -1.6466  1.1082
   55MOL   H25531683   7.227   0.791   3.490  1.2547 -0.2158 -0.0925
   55MOL   H25631684   7.182   0.670   3.372 -3.1506 -0.3498 -0.0522
   55MOL   H25731685   7.169   0.624   3.673  0.1999 -1.3389  0.3432
   55MOL   H25831686   7.139   0.498   3.552 -0.3734  0.3000 -3.7078
   55MOL   H25931687   7.314   0.384   3.650 -0.7975  0.1212 -0.4396
   55MOL   H26031688   7.292   0.492   3.826 -0.4560 -1.1344 -0.5151
   55MOL   H26131689   7.582   0.528   3.599 -1.2982  1.4596 -0.0585
   55MOL   H26231690   7.584   0.387   3.680 -1.3501 -2.5382 -0.3015
   55MOL   C26331691   7.514   0.438   3.361  0.0537 -0.1140 -0.2249
   55MOL   C26431692   7.554   0.341   3.248 -0.0835 -0.5753  0.4041
   55MOL   O26531693   7.466   0.232   3.263  0.0346 -0.0937  0.4243
   55MOL   C26631694   7.542   0.407   3.108 -0.0419 -0.6492 -0.2246
   55MOL   O26731695   7.625   0.341   3.011 -0.0793  0.5564  0.0452
   55MOL   C26831696   7.623   0.386   2.878  0.8198 -0.8582  0.2758
   55MOL   C26931697   0.034   0.321   2.781 -0.1765  0.2401  0.4625
   55MOL   C27031698   0.052   0.401   2.659  0.3016 -0.3018  0.8617
   55MOL   O27131699   0.152   0.334   2.583  0.6070 -0.8404  0.0673
   55MOL   C27231700   0.173   0.378   2.450  0.6831 -0.1595 -0.2571
   55MOL   O27331701   0.231   0.508   2.441 -0.0841  0.1925  0.0373
   55MOL   C27431702   0.254   0.268   2.384 -0.8572  0.1732  0.6551
   55MOL   O27531703   0.390   0.291   2.431  0.1031 -0.0265  0.3756
   55MOL   H27631704   7.564   0.534   3.358  0.5273 -0.3087  1.1776
   55MOL   H27731705   7.408   0.466   3.363 -0.1152 -0.7133 -0.8202
   55MOL   H27831706   7.658   0.312   3.259 -0.6998 -2.9939  0.0830
   55MOL   H27931707   7.485   0.189   3.345 -4.3768 -0.6442  1.3091
   55MOL   H28031708   7.437   0.412   3.080  0.0568  0.3462 -0.4393
   55MOL   H28131709   7.578   0.509   3.116  1.4567 -1.3314  2.2163
   55MOL   H28231710   7.643   0.494   2.875 -0.6766 -0.5739  0.1596
   55MOL   H28331711   7.519   0.382   2.846  0.9780  0.0300 -0.3565
   55MOL   H28431712   0.006   0.218   2.758  0.4043  0.1419  0.1864
   55MOL   H28531713   0.129   0.324   2.834  0.5245  0.8757 -0.7945
   55MOL   H28631714   7.653   0.397   2.602  0.5360 -2.3882  0.5539
   55MOL   H28731715   0.079   0.505   2.677 -0.1958  0.2963 -1.5616
   55MOL   H28831716   0.071   0.394   2.414  0.1194  0.7564  1.6780
   55MOL   H28931717   0.324   0.490   2.443 -0.1305 -0.2864 -1.6420
   55MOL   H29031718   0.215   0.170   2.412 -0.4640 -0.3313 -0.5331
   55MOL   H29131719   0.232   0.279   2.278  2.0769  0.6835  0.0556
   55MOL   C29231720   0.481   0.221   2.348  0.3406 -0.7246  0.3984
   55MOL   C29331721   0.628   0.220   2.408 -0.3047 -0.5873 -0.7617
   55MOL   O29431722   0.624   0.125   2.513  0.1411  0.0332 -0.0987
   55MOL   C29531723   0.747   0.182   2.319 -0.7646 -0.3794 -0.0907
   55MOL   O29631724   0.852   0.262   2.370  0.5540  0.0613  0.1543
   55MOL   C29731725   0.980   0.206   2.373  0.1420 -0.3825  0.1425
   55MOL   C29831726   1.000   0.111   2.489 -0.1349 -0.2162 -0.1770
   55MOL   C29931727   1.151   0.070   2.493 -0.2469 -0.3274  0.7802
   55MOL   O30031728   1.227   0.179   2.533 -0.2642  0.0142  0.0861
   55MOL   C30131729   1.363   0.152   2.547 -0.9297 -0.3588 -0.4270
   55MOL   O30231730   1.426   0.120   2.423  0.8516  0.3442 -0.2196
   55MOL   C30331731   1.427   0.278   2.602  0.0774 -1.2333  0.5491
   55MOL   O30431732   1.405   0.292   2.741  0.2258 -0.2044 -0.4123
   55MOL   H30531733   0.456   0.115   2.346 -0.2320 -0.5797 -0.6654
   55MOL   H30631734   0.480   0.261   2.246 -0.7471 -1.2060  0.2147
   55MOL   H30731735   0.636   0.315   2.461  0.8253 -0.5679 -0.9737
   55MOL   H30831736   0.604   0.172   2.592 -1.7245  1.5779 -1.4632
   55MOL   H30931737   0.768   0.076   2.303  0.8197 -0.1496  0.3649
   55MOL   H31031738   0.729   0.205   2.214  0.2237 -0.4665 -0.2820
   55MOL   H31131739   1.045   0.293   2.380 -0.0584 -0.2418  0.2411
   55MOL   H31231740   1.006   0.161   2.276  0.5546 -0.6116  0.3570
   55MOL   H31331741   0.954   0.016   2.463 -2.5918  1.3240 -1.7008
   55MOL   H31431742   0.968   0.146   2.587 -0.7247  0.2197 -0.5149
   55MOL   H31531743   1.157   7.684   2.567 -0.9442 -0.1021  1.0825
   55MOL   H31631744   1.181   0.035   2.394 -1.8322  0.9375 -0.1652
   55MOL   H31731745   1.374   0.073   2.622 -0.6630  0.5884  0.5389
   55MOL   H31831746   1.427   0.197   2.369 -0.1186  1.0264  0.7145
   55MOL   H31931747   1.400   0.354   2.528  3.5742  0.5303  0.9966
   55MOL   H32031748   1.534   0.280   2.581  0.5063  1.0061  2.7143
   55MOL   C32131749   1.281   0.351   2.778 -0.7106 -0.4780  0.4794
   55MOL   C32231750   1.254   0.484   2.706  0.1341 -0.2681 -0.4567
   55MOL   O32331751   1.165   0.460   2.595  0.0318 -0.2804 -0.1833
   55MOL   C32431752   1.200   0.593   2.798  0.2105 -0.4109 -0.3337
   55MOL   O32531753   1.214   0.710   2.717  0.4717 -0.4977  0.5865
   55MOL   C32631754   1.159   0.832   2.776  0.2322  0.0183  0.8016
   55MOL   C32731755   1.260   0.897   2.868 -0.1981 -0.2136 -0.1358
   55MOL   C32831756   1.201   1.019   2.942  0.1965  0.1898 -0.2753
   55MOL   O32931757   1.088   0.970   3.014 -0.2791  0.5155  0.0980
   55MOL   C33031758   0.989   1.068   3.041 -0.0161  0.6344 -0.7636
   55MOL   O33131759   0.921   1.118   2.929  1.0963  0.2929 -0.5269
   55MOL   C33231760   0.884   1.000   3.128 -0.3480 -0.0495 -0.2504
   55MOL   O33331761   0.846   0.876   3.079 -0.4272 -0.8992  0.2036
   55MOL   H33431762   1.290   0.380   2.883 -0.5811  0.6442  0.1676
   55MOL   H33531763   1.204   0.276   2.762  0.3911 -1.1260 -1.9815
   55MOL   H33631764   1.349   0.527   2.676  1.0697 -0.3095  2.2433
   55MOL   H33731765   1.121   0.378   2.612  2.8828 -1.9806 -0.5784
   55MOL   H33831766   1.249   0.619   2.891 -0.1869  0.1832 -0.2848
   55MOL   H33931767   1.096   0.572   2.823  0.1731 -1.2289 -1.1532
   55MOL   H34031768   1.064   0.802   2.821 -1.1837  0.5886 -1.7306
   55MOL   H34131769   1.142   0.911   2.702  0.4838 -1.8058 -1.2464
   55MOL   H34231770   1.297   0.826   2.942 -0.2901 -1.5114 -1.3247
   55MOL   H34331771   1.347   0.927   2.811 -1.2660  4.7938  0.6150
   55MOL   H34431772   1.266   1.068   3.014  0.6853  0.6862 -1.0565
   55MOL   H34531773   1.179   1.101   2.873  1.0720  1.1272  0.5616
   55MOL   H34631774   1.036   1.151   3.095  1.7418  1.7767 -3.8483
   55MOL   H34731775   0.887   1.041   2.886 -0.6848  0.6405  0.2148
   55MOL   H34831776   0.931   0.992   3.226 -0.5025  0.4429 -0.1321
   55MOL   H34931777   0.803   1.071   3.146  1.8212  2.8634 -1.5593
   55MOL   C35031778   0.744   0.793   3.148 -0.3003  1.0463  0.7474
   55MOL   C35131779   0.771   0.641   3.134  0.3070 -0.6742  0.5108
   55MOL   O35231780   0.890   0.629   3.202 -0.4660 -0.2374 -0.2891
   55MOL   C35331781   0.663   0.544   3.197  0.0273  0.1744  0.0764
   55MOL   O35431782   0.543   0.555   3.123 -0.1494 -0.1355 -0.5400
   55MOL   C35531783   0.426   0.527   3.188 -0.1606  0.3047 -0.1810
   55MOL   C35631784   0.307   0.562   3.099  0.4317 -0.4384 -0.3813
   55MOL   C35731785   0.168   0.558   3.162 -0.3522  0.6288 -0.4325
   55MOL   O35831786   0.164   0.634   3.284  0.2778 -0.6472  0.4433
   55MOL   C35931787   0.163   0.769   3.264  0.8501  0.2713  0.6396
   55MOL   O36031788   0.031   0.812   3.232 -0.4721  0.2180 -0.2479
   55MOL   C36131789   0.211   0.840   3.390 -0.1282  0.1556 -0.4893
   55MOL   O36231790   0.351   0.865   3.376 -0.1248 -0.3974 -1.2824
   55MOL   H36331791   0.653   0.804   3.090 -1.4463 -3.5233  1.4306
   55MOL   H36431792   0.743   0.831   3.250  1.2554  1.4121  0.6325
   55MOL   H36531793   0.797   0.610   3.032  1.4488  1.5793  0.0907
   55MOL   H36631794   0.953   0.679   3.151 -1.5125 -0.0762 -1.4428
   55MOL   H36731795   0.702   0.442   3.197  2.0351  0.9030 -2.0143
   55MOL   H36831796   0.637   0.558   3.302 -0.8338 -3.2738  0.3981
   55MOL   H36931797   0.423   0.590   3.277 -1.0127 -1.3410  0.9865
   55MOL   H37031798   0.425   0.426   3.227 -0.0992 -0.3867 -1.9521
   55MOL   H37131799   0.306   0.495   3.013 -2.2114  0.0531 -0.7632
   55MOL   H37231800   0.320   0.658   3.050 -0.9069  0.0697  0.2286
   55MOL   H37331801   0.090   0.595   3.094 -1.4225  1.1536  1.0572
   55MOL   H37431802   0.151   0.452   3.181  0.9580  0.2800 -1.1842
   55MOL   H37531803   0.226   0.801   3.181  0.6434  1.1188  0.8118
   55MOL   H37631804   7.684   0.851   3.308 -0.0322 -1.6772  0.9950
   55MOL   H37731805   0.165   0.938   3.402 -0.7382  0.0911 -2.1813
   55MOL   H37831806   0.173   0.780   3.472 -1.5773 -0.4381 -1.5842
   55MOL   C37931807   0.414   0.847   3.501  0.0122 -0.3836 -0.3973
   55MOL   C38031808   0.567   0.860   3.485 -0.8692 -0.0038  0.7302
   55MOL   O38131809   0.609   0.995   3.456  0.3267  0.0506 -0.1732
   55MOL   C38231810   0.650   0.818   3.608 -0.5672  0.1786  0.2390
   55MOL   O38331811   0.625   0.922   3.700  0.1462  0.0794  0.3705
   55MOL   C38431812   0.700   0.916   3.819 -0.5019 -0.2363  1.1946
   55MOL   C38531813   0.640   1.019   3.911 -0.3643 -0.3329 -0.1366
   55MOL   C38631814   0.681   0.996   4.057 -0.7805  0.0209  0.9246
   55MOL   O38731815   0.600   0.891   4.117 -0.2072 -0.2323  0.6572
   55MOL   C38831816   0.597   0.867   4.251 -0.1278 -0.4808  0.0645
   55MOL   O38931817   0.519   0.972   4.310 -0.2903  0.5282 -0.1426
   55MOL   C39031818   0.525   0.733   4.267  0.1022 -0.1317 -0.5429
   55MOL   O39131819   0.390   0.737   4.211 -0.0561 -0.2555  0.3009
   55MOL   H39231820   0.392   0.748   3.541  0.9848  0.3485  2.0305
   55MOL   H39331821   0.371   0.921   3.569  2.0328 -1.2453  1.9035
   55MOL   H39431822   0.595   0.792   3.405 -0.5401  0.1297  0.7308
   55MOL   H39531823   0.594   1.045   3.534  1.1139 -0.0820  0.0686
   55MOL   H39631824   0.624   0.716   3.639 -4.0628  0.7612 -0.5534
   55MOL   H39731825   0.756   0.825   3.585 -0.5075 -0.6087  0.2394
   55MOL   H39831826   0.805   0.935   3.793 -0.2698 -1.6224  1.0697
   55MOL   H39931827   0.681   0.817   3.860 -3.1569 -1.0476 -1.8186
   55MOL   H40031828   0.531   1.010   3.907 -0.8131  2.1802  3.3825
   55MOL   H40131829   0.652   1.125   3.889  1.1770 -0.4212  0.2466
   55MOL   H40231830   0.788   0.980   4.055 -0.5734  1.3961 -2.0906
   55MOL   H40331831   0.672   1.088   4.114  0.1884  0.4838  0.3358
   55MOL   H40431832   0.697   0.866   4.294  0.1456 -0.9191 -0.5755
   55MOL   H40531833   0.427   0.953   4.297 -0.3717  1.9999 -1.9116
   55MOL   H40631834   0.576   0.645   4.228 -1.6758 -1.1519 -0.6227
   55MOL   H40731835   0.506   0.715   4.373 -0.0678  0.5975 -0.4503
   55MOL   C40831836   0.376   0.668   4.089  0.5280 -0.2788 -0.1925
   55MOL   C40931837   0.242   0.688   4.023  0.3240 -0.2233  0.4935
   55MOL   O41031838   0.200   0.568   3.957 -0.2852  0.7881  0.0750
   55MOL   C41131839   0.245   0.805   3.920  0.3344 -0.0464  0.3519
   55MOL   O41231840   0.110   0.826   3.884 -0.8293  0.3143  0.3811
   55MOL   C41331841   0.076   0.826   3.744  0.2498  0.1457 -0.1141
   55MOL   C41431842   7.620   0.836   3.719 -0.2923  0.1602  0.1870
   55MOL   C41531843   7.563   0.827   3.574  0.6117 -0.2935 -0.7290
   55MOL   O41631844   7.613   0.918   3.477 -0.4033  0.3688 -0.6168
   55MOL   C41731845   7.553   1.042   3.470 -0.0138 -0.5739  0.0087
   55MOL   O41831846   7.414   1.034   3.431  0.5780 -0.0975 -0.4980
   55MOL   C41931847   7.619   1.125   3.352  0.6208 -0.3893  0.8758
   55MOL   O42031848   0.057   1.155   3.390 -0.1939  0.2702 -0.6622
   55MOL   H42131849   0.392   0.563   4.117 -1.7512 -0.8262 -0.8974
   55MOL   H42231850   0.457   0.706   4.026 -0.1632  0.7062 -0.4802
   55MOL   H42331851   0.167   0.714   4.098  1.3662 -0.5342  1.6726
   55MOL   H42431852   0.128   0.594   3.902 -1.6260  2.1052  2.4058
   55MOL   H42531853   0.286   0.897   3.963 -1.2798  1.7369 -1.8103
   55MOL   H42631854   0.323   0.778   3.848 -1.9648 -2.8686 -1.1836
   55MOL   H42731855   0.124   0.908   3.691 -1.8372  0.1122 -2.1656
   55MOL   H42831856   0.116   0.744   3.685  1.7735  0.8990 -0.1422
   55MOL   H42931857   7.585   0.934   3.754 -1.2536  0.2975 -1.1428
   55MOL   H43031858   7.560   0.759   3.766 -0.6781  0.4723  0.2115
   55MOL   H43131859   7.585   0.724   3.543  1.0816 -0.1403 -0.9020
   55MOL   H43231860   7.454   0.830   3.566  0.6673  0.4417 -1.2492
   55MOL   H43331861   7.554   1.107   3.558 -1.4875  1.9279 -1.7302
   55MOL   H43431862   7.358   1.035   3.507  2.0054 -3.1192  0.6624
   55MOL   H43531863   7.613   1.062   3.264  2.1187  0.8409 -0.1399
   55MOL   H43631864   7.562   1.215   3.331  0.6713 -0.5112  0.2197
   55MOL   C43731865   0.133   1.187   3.270  0.6103  0.4304  0.1488
   55MOL   C43831866   0.288   1.199   3.303 -0.6506  0.1177 -0.0970
   55MOL   O43931867   0.318   1.338   3.334 -0.0765  0.3336  0.6027
   55MOL   C44031868   0.384   1.163   3.186 -0.0801 -0.6177 -0.0640
   55MOL   O44131869   0.361   1.030   3.140 -0.4899  0.3133 -0.1408
   55MOL   C44231870   0.471   0.969   3.078 -0.3966  0.1918 -0.0395
   55MOL   C44331871   0.470   1.019   2.933  0.2253 -0.1305 -0.3330
   55MOL   C44431872   0.602   1.001   2.853  0.4689 -0.1865  0.2622
   55MOL   O44531873   0.574   1.025   2.714 -0.0962  0.0551  0.9382
   55MOL   C44631874   0.657   0.977   2.616  0.0612 -0.2758  0.0193
   55MOL   O44731875   0.774   1.055   2.609  0.2540 -0.1538 -0.2026
   55MOL   C44831876   0.582   0.971   2.478  0.0439  0.8390 -0.4504
   55MOL   O44931877   0.478   0.874   2.489  0.0468 -0.5127 -0.1811
   55MOL   H45031878   0.125   1.104   3.199 -1.6763  1.2356 -0.5865
   55MOL   H45131879   0.099   1.276   3.218  3.5541  0.8907 -1.1177
   55MOL   H45231880   0.309   1.145   3.396 -0.0003  0.3786 -0.0909
   55MOL   H45331881   0.297   1.388   3.256  2.1047 -2.1202 -1.6327
   55MOL   H45431882   0.352   1.230   3.105  1.3426  0.8259  0.5344
   55MOL   H45531883   0.489   1.187   3.204 -0.4723  1.0849  0.0653
   55MOL   H45631884   0.454   0.861   3.081  0.2409  0.0980  0.2055
   55MOL   H45731885   0.562   1.002   3.127 -0.7535  2.2912 -0.7536
   55MOL   H45831886   0.455   1.127   2.942 -1.3748 -0.3300 -0.4948
   55MOL   H45931887   0.382   0.990   2.876 -0.1555 -1.6925  1.0006
   55MOL   H46031888   0.686   1.054   2.898  0.6498 -1.1038  1.0369
   55MOL   H46131889   0.640   0.899   2.862  3.7823  0.9634  0.0663
   55MOL   H46231890   0.680   0.876   2.649  0.7698  0.8257  3.1155
   55MOL   H46331891   0.744   1.134   2.566 -3.5504 -1.2696  0.1805
   55MOL   H46431892   0.535   1.063   2.445  1.1229  2.4267  2.1954
   55MOL   H46531893   0.651   0.945   2.398 -1.7642  1.8496 -2.3794
   55MOL   C46631894   0.417   0.816   2.370  0.2829  0.4518  0.1799
   55MOL   C46731895   0.515   0.721   2.309 -1.2323  0.0144 -0.2919
   55MOL   O46831896   0.537   0.607   2.393  0.0622 -0.1175 -0.2048
   55MOL   C46931897   0.470   0.672   2.176  0.6468 -0.6621  0.3613
   55MOL   O47031898   0.546   0.715   2.064 -0.1365 -0.5732 -0.2491
   55MOL   C47131899   0.645   0.619   2.020  0.7624  0.8451 -0.3693
   55MOL   C47231900   0.746   0.682   1.924 -0.6207  0.2419  0.8319
   55MOL   C47331901   0.853   0.759   1.996 -0.6272  0.1952  1.0880
   55MOL   O47431902   0.928   0.842   1.901  0.8421  0.0596 -0.2604
   55MOL   C47531903   1.028   0.917   1.961  0.1043  0.3501  0.2318
   55MOL   O47631904   0.979   1.042   2.003  0.0866  0.0364 -0.1586
   55MOL   C47731905   1.144   0.937   1.857  0.1591  0.7002  0.5265
   55MOL   O47831906   1.272   0.966   1.908  0.3490  0.3019 -0.1288
   55MOL   H47931907   0.376   0.892   2.304 -0.7049  1.1981  1.6323
   55MOL   H48031908   0.332   0.755   2.402  0.1773  0.6166  0.2140
   55MOL   H48131909   0.611   0.769   2.291 -1.1941  0.8977  2.0681
   55MOL   H48231910   0.567   0.641   2.476 -1.2405 -0.8837  0.5902
   55MOL   H48331911   0.468   0.564   2.175 -0.7513 -0.6573  0.8040
   55MOL   H48431912   0.368   0.703   2.149  2.0539  2.3241 -1.8064
   55MOL   H48531913   0.595   0.539   1.964  0.3090  2.1441 -1.8381
   55MOL   H48631914   0.688   0.560   2.101 -0.2757 -0.3739 -0.6825
   55MOL   H48731915   0.701   0.738   1.843 -0.6471  1.3347  1.6036
   55MOL   H48831916   0.792   0.605   1.862 -0.9122  2.3785 -2.1404
   55MOL   H48931917   0.804   0.837   2.055  2.4280  2.4892  0.7197
   55MOL   H49031918   0.908   0.700   2.070 -1.7902  1.6144  3.1382
   55MOL   H49131919   1.066   0.873   2.053  1.4372  1.4083  0.2082
   55MOL   H49231920   1.003   1.108   1.940 -0.4148  0.8161  0.4744
   55MOL   H49331921   1.174   0.846   1.805  1.3374  0.8749  0.8936
   55MOL   H49431922   1.098   0.999   1.779 -2.1842 -2.5448 -0.7759
   55MOL   C49531923   1.279   1.096   1.972  0.1084  0.4010  0.5529
   55MOL   C49631924   1.250   1.214   1.876 -0.4931 -0.2021 -0.1095
   55MOL   O49731925   1.112   1.240   1.894 -0.7000 -0.1176  0.4778
   55MOL   C49831926   1.325   1.348   1.906  0.4535 -0.2011  0.0034
   55MOL   O49931927   1.296   1.388   2.041 -0.3865  0.3853  0.2221
   55MOL   C50031928   1.365   1.502   2.084 -0.3733 -0.0356  0.2736
   55MOL   C50131929   1.302   1.554   2.220  0.0552 -0.0141  0.4105
   55MOL   C50231930   1.340   1.702   2.250 -0.2790  0.2731 -0.0786
   55MOL   O50331931   1.276   1.740   2.372  0.0608 -0.3049 -0.5474
   55MOL   C50431932   1.274   1.874   2.401  0.0075 -0.1867  0.0083
   55MOL   O50531933   1.395   1.924   2.441  0.2809  0.1592  0.4224
   55MOL   C50631934   1.172   1.896   2.510 -0.3694 -0.2642 -0.4121
   55MOL   O50731935   1.130   2.029   2.490 -0.0165 -0.4181  0.8863
   55MOL   H50831936   1.387   1.108   1.984  0.3547 -0.2530 -0.9632
   55MOL   H50931937   1.230   1.111   2.068 -1.5590  2.8461 -0.6316
   55MOL   H51031938   1.281   1.192   1.774  2.3011  0.3537  0.5837
   55MOL   H51131939   1.104   1.308   1.959 -0.2034  0.9191 -0.5360
   55MOL   H51231940   1.431   1.323   1.898  0.8685  1.2071  0.9414
   55MOL   H51331941   1.297   1.433   1.845  0.2535  0.6418  1.2474
   55MOL   H51431942   1.360   1.576   2.004 -1.9687 -0.5217 -0.0971
   55MOL   H51531943   1.472   1.481   2.088 -0.9981 -3.5311  0.7314
   55MOL   H51631944   1.332   1.491   2.304  0.9041  1.7125  1.4362
   55MOL   H51731945   1.194   1.546   2.209  0.0952 -0.7527  0.5468
   55MOL   H51831946   1.445   1.729   2.244 -1.0381  3.1839 -1.0027
   55MOL   H51931947   1.287   1.754   2.171  0.6127 -1.0378 -1.5644
   55MOL   H52031948   1.242   1.930   2.312  2.2832  0.2216 -0.5726
   55MOL   H52131949   1.419   1.999   2.389  1.8517 -1.4244 -1.2102
   55MOL   H52231950   1.083   1.837   2.489 -0.1355 -0.4535 -0.8910
   55MOL   H52331951   1.210   1.880   2.611  0.0341 -0.8203 -0.6503
   55MOL   C52431952   1.063   2.080   2.610 -0.2962 -0.6524 -0.5320
   55MOL   C52531953   1.010   2.217   2.570  0.3406 -0.3907 -1.0485
   55MOL   O52631954   1.107   2.320   2.585  0.2597 -0.0321 -0.2216
   55MOL   C52731955   0.889   2.253   2.654  0.1186  0.3725  0.9794
   55MOL   O52831956   0.946   2.295   2.784 -0.0973 -0.2977 -0.6687
   55MOL   C52931957   0.857   2.308   2.890  0.0682  0.5154  0.8657
   55MOL   C53031958   0.926   2.336   3.025 -0.1931  0.7343  0.2120
   55MOL   C53131959   0.822   2.352   3.137 -0.2445 -0.0107 -0.0953
   55MOL   O53231960   0.730   2.452   3.101 -0.1131  0.1599 -0.2297
   55MOL   C53331961   0.603   2.449   3.164 -0.4162 -0.9050 -0.6560
   55MOL   O53431962   0.564   2.576   3.190 -0.3192  0.0872 -0.4181
   55MOL   C53531963   0.510   2.372   3.065  0.2480 -0.0725 -0.3783
   55MOL   O53631964   0.536   2.228   3.066  0.0264  0.3156  0.0227
   55MOL   H53731965   1.117   2.086   2.704 -0.5086 -0.8671 -0.3955
   55MOL   H53831966   0.975   2.022   2.638  0.6036 -1.4096  0.7937
   55MOL   H53931967   0.971   2.210   2.469  0.6893 -2.3538 -1.0675
   55MOL   H54031968   1.113   2.339   2.677 -0.7658 -0.0971 -0.1377
   55MOL   H54131969   0.831   2.335   2.611  0.8846  0.7306  0.6329
   55MOL   H54231970   0.815   2.173   2.665  0.1503  0.1959 -0.0858
   55MOL   H54331971   0.797   2.218   2.905  1.4499 -1.1016 -2.9275
   55MOL   H54431972   0.790   2.391   2.866  1.7961  1.2303 -1.6015
   55MOL   H54531973   0.986   2.426   3.014  0.7238  0.1705  0.5542
   55MOL   H54631974   1.004   2.261   3.041  0.9103  2.1586  1.5638
   55MOL   H54731975   0.772   2.256   3.154  0.0847  0.1145  1.7651
   55MOL   H54831976   0.868   2.390   3.228  2.2835 -3.0202 -0.0455
   55MOL   H54931977   0.609   2.400   3.262  2.3322 -0.2443 -0.4472
   55MOL   H55031978   0.628   2.609   3.251 -1.1382  1.2962 -0.1911
   55MOL   H55131979   0.407   2.396   3.089 -0.2789 -1.0118 -1.6710
   55MOL   H55231980   0.523   2.415   2.965  1.9302  0.1631 -0.0731
   55MOL   C55331981   0.494   2.155   2.956  0.3212  0.1910 -0.2797
   55MOL   C55431982   0.339   2.158   2.959 -0.2511  0.1268 -0.1197
   55MOL   O55531983   0.299   2.067   3.062  0.1079  0.5479  0.1219
   55MOL   C55631984   0.280   2.102   2.830  0.0443  0.4237 -0.0962
   55MOL   O55731985   0.152   2.153   2.803 -0.4393  0.0663 -0.2223
   55MOL   C55831986   0.085   2.092   2.692  0.6575 -0.8842  0.4270
   55MOL   C55931987   7.638   2.138   2.679 -0.1334 -0.5962 -0.4166
   55MOL   C56031988   7.559   2.108   2.547 -0.0283  0.5107  0.3688
   55MOL   O56131989   7.426   2.143   2.570 -0.0321 -0.1314 -0.0040
   55MOL   C56231990   7.341   2.124   2.461  0.1464  0.4488  1.3134
   55MOL   O56331991   7.317   1.990   2.431  0.1115  0.0997  0.7413
   55MOL   C56431992   7.216   2.184   2.507 -0.2559  0.3877 -0.1861
   55MOL   O56531993   7.223   2.318   2.520 -1.1964  0.0647  0.2814
   55MOL   H56631994   0.518   2.049   2.963 -1.5293 -0.3282 -1.3503
   55MOL   H56731995   0.545   2.185   2.864 -0.8785  0.3549 -0.9049
   55MOL   H56831996   0.296   2.257   2.978 -2.4023 -0.4050 -1.9189
   55MOL   H56931997   0.332   2.092   3.147 -0.2133 -0.0227  0.4248
   55MOL   H57031998   0.345   2.139   2.750  1.3229 -2.4415 -0.4287
   55MOL   H57131999   0.286   1.993   2.827 -1.4880  0.3089  0.7615
   55MOL   H57232000   0.142   2.126   2.606 -0.1027 -0.2736  0.1492
   55MOL   H57332001   0.092   1.984   2.697 -2.7204 -1.2040 -0.2487
   55MOL   H57432002   7.647   2.244   2.704  1.4020 -0.6813 -0.5504
   55MOL   H57532003   7.583   2.095   2.763 -0.4193 -0.0794 -0.3366
   55MOL   H57632004   7.610   2.162   2.467  0.8681 -0.5288  0.2312
   55MOL   H57732005   7.560   2.001   2.528  1.5774  0.8509 -1.7197
   55MOL   H57832006   7.380   2.170   2.370 -1.9134  0.3875  0.3916
   55MOL   H57932007   7.273   1.990   2.347  4.0212 -2.1956 -1.4619
   55MOL   H58032008   7.140   2.164   2.431 -0.3520  0.8409 -0.2111
   55MOL   H58132009   7.184   2.134   2.598  0.2267  0.0077 -0.2230
   55MOL   H58232010   7.311   2.342   2.544 -1.2448  0.8299 -0.2753
   56MOL     C132011   2.567   1.637   2.630 -0.3470 -0.3057 -0.1698
   56MOL     C232012   2.677   1.716   2.551 -0.4809 -0.2514  0.7707
   56MOL     O332013   2.780   1.625   2.512  0.2203  0.5041 -0.0900
   56MOL     C432014   2.627   1.798   2.422 -0.1691  0.4999 -0.0724
   56MOL     O532015   2.569   1.912   2.480  0.2005 -0.1412  0.0376
   56MOL     C632016   2.633   2.033   2.456 -0.5233 -0.1439 -0.2634
   56MOL     C732017   2.556   2.142   2.534  0.7268  0.1469 -0.1406
   56MOL     C832018   2.624   2.275   2.508  0.1917 -0.3682 -0.4944
   56MOL     O932019   2.751   2.288   2.571  0.0557  0.3536 -0.5688
   56MOL    C1032020   2.818   2.404   2.540 -0.5887  0.3931  0.1175
   56MOL    O1132021   2.843   2.428   2.403  0.1588  0.6716 -0.2750
   56MOL    C1232022   2.947   2.386   2.623  0.3420 -0.4604  0.0886
   56MOL    O1332023   2.934   2.456   2.743 -0.3068  0.7301  0.1275
   56MOL    H1432024   2.495   1.715   2.655 -0.3781  0.1766 -1.7089
   56MOL    H1532025   2.595   1.583   2.720 -1.8507 -1.8025 -0.5640
   56MOL    H1632026   2.726   1.790   2.615  1.9675  0.2870 -1.6277
   56MOL    H1732027   2.759   1.581   2.432 -2.3276  0.7292  0.3917
   56MOL    H1832028   2.719   1.815   2.367  1.0046 -0.4259  1.5403
   56MOL    H1932029   2.550   1.757   2.357 -0.1318 -0.9767  0.7951
   56MOL    H2032030   2.643   2.058   2.350  0.8960 -2.8132 -0.8169
   56MOL    H2132031   2.739   2.028   2.482 -0.1088 -0.6070 -1.9186
   56MOL    H2232032   2.550   2.106   2.637 -2.2489 -0.2407 -0.3970
   56MOL    H2332033   2.457   2.147   2.489  0.6435 -0.4723 -0.0272
   56MOL    H2432034   2.633   2.298   2.402 -1.9221 -2.3765 -1.1499
   56MOL    H2532035   2.567   2.357   2.553  0.7868 -0.0612 -0.2886
   56MOL    H2632036   2.756   2.481   2.587  0.3976 -0.0360  2.1752
   56MOL    H2732037   2.811   2.515   2.387 -1.4385  0.2623  0.5491
   56MOL    H2832038   2.967   2.280   2.633 -0.3280 -0.6205 -0.2006
   56MOL    H2932039   3.031   2.435   2.574 -0.3844  0.4516 -0.2802
   56MOL    H3032040   2.528   1.572   2.551 -0.0274 -0.5164 -0.1552
   56MOL    C3132041   3.050   2.440   2.820 -0.7265  0.5981 -0.0902
   56MOL    C3232042   3.147   2.559   2.805 -0.2245 -0.1186  0.2499
   56MOL    O3332043   3.244   2.521   2.706 -0.3577 -0.0868 -0.0299
   56MOL    C3432044   3.218   2.576   2.940 -0.3974 -0.0746  0.2247
   56MOL    O3532045   3.266   2.713   2.939 -0.2559  0.2632  0.4017
   56MOL    C3632046   3.304   2.762   3.068 -0.0279 -0.2414  0.1690
   56MOL    C3732047   3.407   2.871   3.057  0.6152  0.3033  0.1730
   56MOL    C3832048   3.448   2.913   3.201  0.1736  0.3282  0.6999
   56MOL    O3932049   3.549   3.015   3.199  0.2570  0.4140 -0.4771
   56MOL    C4032050   3.676   2.994   3.156  0.1743 -0.3596 -0.0269
   56MOL    O4132051   3.754   2.921   3.244  0.2831  0.1351  0.2354
   56MOL    C4232052   3.737   3.137   3.137 -0.0003  0.7172  0.8075
   56MOL    O4332053   3.762   3.172   2.999 -0.3226  0.0264 -0.0584
   56MOL    H4432054   3.017   2.430   2.923 -2.2036  0.4138 -0.5703
   56MOL    H4532055   3.108   2.349   2.801 -1.2323  0.2695 -0.0500
   56MOL    H4632056   3.093   2.647   2.773 -1.2990 -1.2839 -1.2077
   56MOL    H4732057   3.299   2.594   2.684  0.1430 -0.2421  0.6774
   56MOL    H4832058   3.157   2.567   3.029 -0.3823  0.3780  0.2816
   56MOL    H4932059   3.304   2.511   2.952 -0.7367 -0.5195  0.2355
   56MOL    H5032060   3.350   2.690   3.136 -0.3273 -0.7212 -0.1290
   56MOL    H5132061   3.214   2.788   3.123  0.5360 -0.7429  1.3439
   56MOL    H5232062   3.374   2.956   2.996  0.8793 -0.2938 -0.8179
   56MOL    H5332063   3.498   2.830   3.013 -0.4989 -0.9708 -1.0084
   56MOL    H5432064   3.360   2.951   3.255 -0.7998 -0.8944 -0.0144
   56MOL    H5532065   3.495   2.833   3.259  1.8952  1.0484  0.3151
   56MOL    H5632066   3.669   2.937   3.062  2.5399  0.0597 -0.4807
   56MOL    H5732067   3.843   2.942   3.221 -0.2065 -1.2297 -3.2310
   56MOL    H5832068   3.682   3.214   3.192 -0.5108  1.4970 -0.7655
   56MOL    H5932069   3.837   3.140   3.180  1.8429  0.8217 -3.2098
   56MOL    C6032070   3.651   3.223   2.928 -0.2807 -0.0960  0.2221
   56MOL    C6132071   3.668   3.206   2.774  0.6947  1.1601 -0.0032
   56MOL    O6232072   3.546   3.220   2.712 -0.0798 -0.5532  0.6438
   56MOL    C6332073   3.715   3.062   2.736  0.5195 -0.6822  0.2954
   56MOL    O6432074   3.618   2.969   2.788 -0.0417  0.1183  0.3140
   56MOL    C6532075   3.625   2.835   2.744  0.1376 -0.2766 -0.5582
   56MOL    C6632076   3.493   2.783   2.691  0.3316  0.3891 -0.2596
   56MOL    C6732077   3.448   2.854   2.569 -0.0968 -0.1985  0.6990
   56MOL    O6832078   3.325   2.789   2.532  0.0391  0.6373  0.2134
   56MOL    C6932079   3.281   2.809   2.397  0.2778 -0.1493 -0.6868
   56MOL    O7032080   3.375   2.756   2.313 -0.3187 -0.0432  0.0959
   56MOL    C7132081   3.146   2.736   2.376  0.1970  0.5597  0.3547
   56MOL    O7232082   3.052   2.820   2.449 -0.0292  0.6377  0.8228
   56MOL    H7332083   3.650   3.330   2.953  2.3098 -0.5467  2.4572
   56MOL    H7432084   3.559   3.172   2.956 -0.3484 -1.9218 -3.0939
   56MOL    H7532085   3.729   3.282   2.724  0.9601  0.1718 -1.2203
   56MOL    H7632086   3.480   3.160   2.743 -3.7365  2.2917 -1.1628
   56MOL    H7732087   3.712   3.051   2.628 -0.8979  0.7907  0.1590
   56MOL    H7832088   3.817   3.050   2.772  1.0411  0.9328 -0.5936
   56MOL    H7932089   3.653   2.768   2.825 -0.2968  0.3886  0.1406
   56MOL    H8032090   3.702   2.823   2.667  2.5771  4.4186  0.9273
   56MOL    H8132091   3.415   2.805   2.764  2.2583  1.8469  1.4189
   56MOL    H8232092   3.507   2.678   2.668  0.8547  0.2411  0.7279
   56MOL    H8332093   3.522   2.842   2.490 -0.1489  2.4082  0.2035
   56MOL    H8432094   3.426   2.960   2.584  1.1729  0.0778  0.6828
   56MOL    H8532095   3.271   2.916   2.379 -1.0964  0.1585  1.6981
   56MOL    H8632096   3.349   2.669   2.289  0.0434  0.2463 -1.4059
   56MOL    H8732097   3.119   2.726   2.272  0.6290 -0.6597  0.3529
   56MOL    H8832098   3.139   2.640   2.426 -0.0163  0.1682 -0.4261
   56MOL    C8932099   2.922   2.772   2.449  0.3826  0.1507 -0.4240
   56MOL    C9032100   2.827   2.876   2.508  0.3794 -0.2155  0.7628
   56MOL    O9132101   2.869   2.909   2.645  0.4736  0.2056  0.0899
   56MOL    C9232102   2.814   3.002   2.421  0.2272  1.0294 -0.2178
   56MOL    O9332103   2.683   3.055   2.406  0.6014  0.5148 -0.4959
   56MOL    C9432104   2.634   3.129   2.516  0.5726  0.0970 -0.1494
   56MOL    C9532105   2.490   3.158   2.496 -0.0681  0.3570  0.0151
   56MOL    C9632106   2.396   3.049   2.536 -0.0223  0.3194 -0.0933
   56MOL    O9732107   2.267   3.079   2.481 -0.4181 -0.1084 -0.3589
   56MOL    C9832108   2.163   2.997   2.527 -0.8766 -0.7025 -0.5297
   56MOL    O9932109   2.170   2.862   2.482 -0.1031 -0.6666  0.6743
   56MOL   C10032110   2.128   3.003   2.679  0.4180 -0.7189 -0.4588
   56MOL   O10132111   2.096   3.137   2.716 -0.4397 -0.3058  0.0206
   56MOL   H10232112   2.929   2.680   2.507 -1.1333  0.0216 -0.4123
   56MOL   H10332113   2.895   2.752   2.345  0.5293  2.4384 -0.9388
   56MOL   H10432114   2.733   2.821   2.514 -0.5435  1.3576  0.8622
   56MOL   H10532115   2.945   2.963   2.632 -1.0727  3.1616  2.7796
   56MOL   H10632116   2.882   3.083   2.447 -0.4092  0.9709  1.6809
   56MOL   H10732117   2.833   2.979   2.316 -0.6762 -1.0008  0.0313
   56MOL   H10832118   2.696   3.219   2.520 -3.1693  2.7951 -0.5835
   56MOL   H10932119   2.647   3.075   2.610 -1.0322 -0.4593 -0.2411
   56MOL   H11032120   2.486   3.183   2.390  0.7646  0.6866  0.0593
   56MOL   H11132121   2.462   3.244   2.557 -1.6250 -1.1756  1.5411
   56MOL   H11232122   2.425   2.948   2.506 -0.0341 -0.3684  2.1345
   56MOL   H11332123   2.382   3.051   2.644  1.4864 -2.3712  0.1889
   56MOL   H11432124   2.078   3.043   2.476 -1.2916 -1.1339 -0.2307
   56MOL   H11532125   2.087   2.820   2.500 -0.8501  0.7877  0.7135
   56MOL   H11632126   2.049   2.930   2.696  0.4197 -1.5661 -3.7753
   56MOL   H11732127   2.206   2.963   2.743  1.4459 -0.5893 -1.6071
   56MOL   C11832128   2.052   3.161   2.845  0.2618  0.1686 -0.5656
   56MOL   C11932129   2.024   3.316   2.857  0.3211  0.0733  0.7235
   56MOL   O12032130   2.004   3.350   2.983  0.0375 -0.4274  0.1024
   56MOL   C12132131   1.900   3.361   2.768  0.1423 -0.9513  0.3530
   56MOL   O12232132   1.927   3.489   2.715 -0.1123  0.4372 -0.1768
   56MOL   C12332133   1.822   3.541   2.636 -0.2406  0.1481  0.0248
   56MOL   C12432134   1.857   3.680   2.574  0.2363 -0.4722 -0.6104
   56MOL   C12532135   1.737   3.747   2.515 -0.1983  0.3915 -0.1476
   56MOL   O12632136   1.765   3.877   2.459  0.1524 -0.1993  0.4734
   56MOL   C12732137   1.775   3.991   2.541 -0.5145 -0.2749 -0.0973
   56MOL   O12832138   1.655   4.009   2.614 -0.6357 -0.0493  0.4608
   56MOL   C12932139   1.799   4.116   2.451  0.8557 -0.0168  0.3998
   56MOL   O13032140   1.936   4.141   2.439  0.4579 -0.1403  0.4306
   56MOL   H13132141   1.958   3.112   2.869  0.5243 -0.5547 -0.9954
   56MOL   H13232142   2.127   3.135   2.920 -0.3463  0.7736  0.2625
   56MOL   H13332143   2.104   3.369   2.807 -0.1626 -0.6673 -0.9067
   56MOL   H13432144   2.086   3.348   3.031 -0.0044 -1.1751  0.1361
   56MOL   H13532145   1.888   3.299   2.679  1.4538 -1.1576  0.3104
   56MOL   H13632146   1.809   3.358   2.828 -0.2812 -2.9059 -0.3309
   56MOL   H13732147   1.736   3.543   2.704  0.1375  1.5354  0.4991
   56MOL   H13832148   1.805   3.469   2.557  1.6006  0.4511 -0.6610
   56MOL   H13932149   1.947   3.682   2.512  0.9265  0.6402  0.4051
   56MOL   H14032150   1.887   3.745   2.657 -0.7601 -1.6025  0.6407
   56MOL   H14132151   1.688   3.681   2.443  0.9859 -0.2265 -0.3964
   56MOL   H14232152   1.663   3.760   2.594  0.2788 -0.9014  0.5364
   56MOL   H14332153   1.856   3.986   2.613 -0.6754 -3.7470 -0.0893
   56MOL   H14432154   1.668   3.955   2.690  0.2282 -0.8959 -0.2725
   56MOL   H14532155   1.727   4.119   2.369  0.6905  0.4994  0.5612
   56MOL   H14632156   1.768   4.200   2.513 -1.0363 -1.0730  0.9395
   56MOL   C14732157   1.991   4.056   2.330 -0.2162 -0.1632 -0.4916
   56MOL   C14832158   2.141   4.085   2.306  0.1955  0.0465  0.2931
   56MOL   O14932159   2.162   4.104   2.170 -0.6347  0.2408 -0.6140
   56MOL   C15032160   2.224   3.973   2.386 -0.6474  0.4599 -0.1323
   56MOL   O15132161   2.198   3.989   2.522  0.3286  0.2889 -0.1527
   56MOL   C15232162   2.230   3.880   2.604  0.1169 -0.1712 -0.4020
   56MOL   C15332163   2.210   3.918   2.751  0.6985 -0.9450 -0.0478
   56MOL   C15432164   2.220   3.801   2.849  0.4999 -0.2566  0.3340
   56MOL   O15532165   2.196   3.825   2.987  0.2477 -0.3398 -0.0124
   56MOL   C15632166   2.189   3.712   3.070 -0.6065 -0.8179  0.2728
   56MOL   O15732167   2.146   3.756   3.203 -0.2609  0.4320  0.4695
   56MOL   C15832168   2.326   3.636   3.081  0.5728  0.2054  0.2976
   56MOL   O15932169   2.324   3.538   2.974  0.0804 -0.3171 -0.0988
   56MOL   H16032170   1.936   4.090   2.242 -1.7466 -0.2195  0.4138
   56MOL   H16132171   1.979   3.947   2.326 -0.0582 -0.1709 -0.7759
   56MOL   H16232172   2.167   4.175   2.362  0.9965  0.3289 -0.5318
   56MOL   H16332173   2.148   4.020   2.128  2.2578 -1.0209  0.7712
   56MOL   H16432174   2.195   3.872   2.357 -0.6581 -0.3104  2.4832
   56MOL   H16532175   2.333   3.979   2.376 -0.4728 -2.8107 -0.7677
   56MOL   H16632176   2.335   3.855   2.587 -0.4520 -3.2252  0.1543
   56MOL   H16732177   2.171   3.790   2.587 -1.2658  0.6226  0.2115
   56MOL   H16832178   2.111   3.965   2.753  1.1697  0.0186  2.6182
   56MOL   H16932179   2.279   3.996   2.784  3.3117 -4.2415  2.6841
   56MOL   H17032180   2.152   3.722   2.817  0.0859  0.3826 -0.3804
   56MOL   H17132181   2.324   3.768   2.839  0.6599 -0.0510  1.2102
   56MOL   H17232182   2.113   3.644   3.032 -0.8302 -0.1940 -0.4087
   56MOL   H17332183   2.227   3.785   3.243  0.5295  0.6597 -1.2451
   56MOL   H17432184   2.416   3.696   3.070  1.4496 -0.7253  2.1622
   56MOL   H17532185   2.337   3.588   3.179  1.9948 -0.5555 -0.2267
   56MOL   C17632186   2.447   3.461   2.981  0.1546  0.5975  0.1696
   56MOL   C17732187   2.467   3.376   2.860  0.2038  0.0045 -0.3300
   56MOL   O17832188   2.378   3.264   2.871 -0.2259 -0.1302  0.1214
   56MOL   C17932189   2.604   3.321   2.836 -0.7995  0.4231  0.2386
   56MOL   O18032190   2.700   3.419   2.798  0.2210 -0.5330  0.5150
   56MOL   C18132191   2.834   3.367   2.788 -0.5215  0.2387  0.0130
   56MOL   C18232192   2.919   3.399   2.916  0.1890 -0.3023 -0.4827
   56MOL   C18332193   3.066   3.350   2.908  0.9729 -0.8839 -0.2418
   56MOL   O18432194   3.135   3.370   3.031  0.2718  0.2695 -0.3736
   56MOL   C18532195   3.270   3.320   3.030 -0.2661  0.2977 -0.0208
   56MOL   O18632196   3.280   3.177   3.019 -0.0796 -0.1286  0.1368
   56MOL   C18732197   3.335   3.352   3.168 -0.1839  0.5483 -0.5165
   56MOL   O18832198   3.247   3.313   3.273  0.4727 -0.4372 -0.4014
   56MOL   H18932199   2.447   3.407   3.076  0.0001 -0.7603 -0.5931
   56MOL   H19032200   2.532   3.529   2.992  1.2412 -0.8381  0.7016
   56MOL   H19132201   2.435   3.437   2.776 -1.1569  0.6410  0.6362
   56MOL   H19232202   2.310   3.280   2.807  1.5228  0.9877 -1.5163
   56MOL   H19332203   2.642   3.276   2.928  0.0087  0.0202 -0.2777
   56MOL   H19432204   2.598   3.254   2.750 -1.4668  1.3771 -0.4621
   56MOL   H19532205   2.884   3.410   2.701  0.4274 -1.2617 -0.1915
   56MOL   H19632206   2.834   3.261   2.765  0.0428  0.2026  0.1650
   56MOL   H19732207   2.876   3.358   3.008  0.5999  1.7405  0.6544
   56MOL   H19832208   2.929   3.506   2.933  1.6274 -0.4653 -0.2570
   56MOL   H19932209   3.075   3.247   2.874 -0.5408 -0.8248 -0.8683
   56MOL   H20032210   3.110   3.394   2.818 -0.5952  1.6796  0.1798
   56MOL   H20132211   3.325   3.366   2.948  2.1755 -1.4516  0.5843
   56MOL   H20232212   3.285   3.145   3.108  0.7866 -1.5723 -0.4121
   56MOL   H20332213   3.435   3.309   3.170  0.2674  1.5151 -1.4349
   56MOL   H20432214   3.349   3.461   3.164 -1.7701  0.7999  0.6091
   56MOL   C20532215   3.264   3.378   3.395 -0.4796 -0.6547  0.5172
   56MOL   C20632216   3.323   3.279   3.501  0.3408  0.0776 -0.0797
   56MOL   O20732217   3.236   3.169   3.514 -0.7221 -0.2336 -0.2940
   56MOL   C20832218   3.458   3.223   3.449 -0.4859  0.4139  0.0997
   56MOL   O20932219   3.537   3.177   3.555  0.0053  0.3521  0.6970
   56MOL   C21032220   3.655   3.122   3.501  0.5899 -0.6443  0.4900
   56MOL   C21132221   3.764   3.114   3.605  0.0236 -0.0394 -0.0790
   56MOL   C21232222   3.738   3.005   3.700  0.5051 -0.0753 -0.0148
   56MOL   O21332223   3.852   2.970   3.781  0.3297 -0.1332  0.1197
   56MOL   C21432224   3.905   3.072   3.865 -0.1780  0.0833  1.0679
   56MOL   O21532225   4.036   3.034   3.903 -0.5812  0.2259 -0.3735
   56MOL   C21632226   3.826   3.090   3.994  0.7560 -0.0646  0.2966
   56MOL   O21732227   3.722   3.175   3.974  0.1660  0.0394 -0.0345
   56MOL   H21832228   3.176   3.429   3.434 -0.3853 -1.1452  1.3992
   56MOL   H21932229   3.337   3.458   3.385  0.6915 -1.5456  1.7402
   56MOL   H22032230   3.335   3.334   3.594 -3.4550 -0.6897  0.9502
   56MOL   H22132231   3.155   3.195   3.473 -1.4493  0.9372  1.7920
   56MOL   H22232232   3.438   3.158   3.363 -2.0224  2.0426 -0.8198
   56MOL   H22332233   3.518   3.302   3.405 -0.3269  0.6446  0.7350
   56MOL   H22432234   3.696   3.188   3.425  0.9461 -0.5302  0.7794
   56MOL   H22532235   3.631   3.023   3.461 -1.6025 -0.4764  1.3312
   56MOL   H22632236   3.791   3.210   3.647  0.7839 -0.3437  0.1376
   56MOL   H22732237   3.858   3.095   3.553 -0.1896  0.3492 -0.6191
   56MOL   H22832238   3.651   3.035   3.759 -1.1333 -1.9226 -1.4634
   56MOL   H22932239   3.714   2.913   3.647  1.0376 -0.3952  0.2911
   56MOL   H23032240   3.912   3.171   3.822 -0.6112  0.5184  1.9823
   56MOL   H23132241   4.078   3.096   3.960 -0.1176 -1.3917  1.1006
   56MOL   H23232242   3.788   2.992   4.022  1.9301 -0.1655  1.5875
   56MOL   H23332243   3.889   3.124   4.076 -1.9191  3.5479  0.9910
   56MOL   C23432244   3.742   3.315   3.957 -0.6054 -0.2811  0.4254
   56MOL   C23532245   3.614   3.392   3.983  0.2109  0.3182  0.5414
   56MOL   O23632246   3.592   3.397   4.123 -0.0449 -0.5395  0.2038
   56MOL   C23732247   3.493   3.326   3.924 -0.8564 -0.5938 -0.7364
   56MOL   O23832248   3.396   3.430   3.915  0.0806 -0.6261  0.6208
   56MOL   C23932249   3.259   3.378   3.895 -0.5171  0.0263  0.1420
   56MOL   C24032250   3.182   3.488   3.814 -0.0646  0.5921 -0.0992
   56MOL   C24132251   3.052   3.433   3.765 -0.4320  0.6424 -0.2382
   56MOL   O24232252   2.973   3.540   3.712 -0.2547 -0.1665 -0.0797
   56MOL   C24332253   2.845   3.560   3.752  0.1057  1.0685  0.1027
   56MOL   O24432254   2.764   3.467   3.690 -0.0228 -0.1372  0.1119
   56MOL   C24532255   2.806   3.698   3.707 -0.2457  0.1773 -0.7706
   56MOL   O24632256   2.873   3.789   3.789 -0.0307 -0.4455 -0.3485
   56MOL   H24732257   3.832   3.348   4.009 -0.6525 -0.5531  0.6772
   56MOL   H24832258   3.764   3.327   3.851 -0.3513  0.1489  0.5258
   56MOL   H24932259   3.613   3.496   3.951 -0.0769  0.5128  1.1689
   56MOL   H25032260   3.548   3.318   4.149  0.4942 -0.7417  0.5127
   56MOL   H25132261   3.510   3.291   3.822  0.9337  1.3680 -1.1429
   56MOL   H25232262   3.473   3.238   3.985  1.4855 -0.8966 -0.3863
   56MOL   H25332263   3.215   3.332   3.983  0.1364  0.8098  0.8818
   56MOL   H25432264   3.260   3.293   3.827 -0.2168 -0.1309  0.3387
   56MOL   H25532265   3.240   3.530   3.731 -0.7952  0.0426 -0.8940
   56MOL   H25632266   3.168   3.577   3.876  0.0554  1.2983 -1.0644
   56MOL   H25732267   3.065   3.350   3.696 -0.8908  0.5830 -0.2566
   56MOL   H25832268   2.996   3.389   3.848  1.7699 -0.7383  0.5656
   56MOL   H25932269   2.823   3.546   3.858 -1.4425 -0.4631 -0.3841
   56MOL   H26032270   2.804   3.381   3.686 -1.8760 -1.0305  0.0584
   56MOL   H26132271   2.846   3.701   3.606  0.5585 -1.5516 -0.5368
   56MOL   H26232272   2.700   3.712   3.726 -0.2932  0.9632 -1.6223
   56MOL   C26332273   2.863   3.920   3.748 -0.4952 -0.8859 -0.1874
   56MOL   C26432274   2.939   3.951   3.615  0.0907 -0.1897 -0.7658
   56MOL   O26532275   2.950   4.092   3.615  0.3522  0.2837 -0.2046
   56MOL   C26632276   3.083   3.902   3.610  0.0373 -0.4397  0.3138
   56MOL   O26732277   3.153   3.929   3.492 -0.1106 -0.0875 -0.6079
   56MOL   C26832278   3.288   3.890   3.492  0.4437  0.0781 -0.4887
   56MOL   C26932279   3.345   3.904   3.352  0.3735  0.2164 -0.0462
   56MOL   C27032280   3.341   4.045   3.296 -0.7523 -0.1637  0.6016
   56MOL   O27132281   3.389   4.038   3.162  0.6264  0.3278  0.1874
   56MOL   C27232282   3.364   4.155   3.080  0.1191  0.0330 -0.0723
   56MOL   O27332283   3.449   4.260   3.124  0.5265 -0.5145  0.3511
   56MOL   C27432284   3.398   4.126   2.937  0.0222 -0.2458  0.1506
   56MOL   O27532285   3.279   4.126   2.858  0.3485  0.2445  0.6304
   56MOL   H27632286   2.910   3.977   3.829  1.3394  1.5616 -2.8580
   56MOL   H27732287   2.760   3.956   3.743  0.0807  1.3333  2.4501
   56MOL   H27832288   2.891   3.907   3.527  1.3135  1.7221 -2.4489
   56MOL   H27932289   2.997   4.106   3.695  0.5688  0.0140 -0.2847
   56MOL   H28032290   3.143   3.934   3.695  1.1038  1.4902 -1.1012
   56MOL   H28132291   3.075   3.794   3.613 -3.2015 -0.2367  1.3829
   56MOL   H28232292   3.299   3.789   3.531 -1.5345  0.7223  1.9236
   56MOL   H28332293   3.334   3.956   3.566 -0.0873 -0.1205  0.0302
   56MOL   H28432294   3.284   3.841   3.287  2.9165 -1.2685 -1.0588
   56MOL   H28532295   3.444   3.860   3.340 -0.3433 -1.4191 -0.1120
   56MOL   H28632296   3.238   4.081   3.291 -0.0772  1.6676 -0.7171
   56MOL   H28732297   3.404   4.119   3.346 -1.6593  1.5692 -0.7621
   56MOL   H28832298   3.260   4.186   3.082  0.1223  0.1029 -0.7084
   56MOL   H28932299   3.388   4.311   3.175  0.2849 -0.0795 -0.3608
   56MOL   H29032300   3.479   4.190   2.901  0.1960 -0.6180 -0.1262
   56MOL   H29132301   3.448   4.030   2.941 -0.2591 -0.3986 -0.0342
   56MOL   C29232302   3.305   4.089   2.729 -0.6703  0.5958  0.8717
   56MOL   C29332303   3.318   4.210   2.634 -0.4242 -0.3826 -0.5385
   56MOL   O29432304   3.445   4.267   2.653 -0.5645 -0.0045  0.8666
   56MOL   C29532305   3.313   4.160   2.491  0.1971 -0.2748  0.9526
   56MOL   O29632306   3.407   4.059   2.472 -0.0123  0.8160  0.2304
   56MOL   C29732307   3.356   3.967   2.384  0.0096  0.6857  0.0623
   56MOL   C29832308   3.462   3.876   2.322 -0.7153 -0.8793  0.0630
   56MOL   C29932309   3.397   3.762   2.239  0.4869 -0.0263 -0.4984
   56MOL   O30032310   3.494   3.682   2.169 -0.1592 -0.6613  0.0624
   56MOL   C30132311   3.438   3.595   2.084 -0.1801  0.5528 -1.0111
   56MOL   O30232312   3.376   3.661   1.971  0.0822 -0.2029  0.1396
   56MOL   C30332313   3.550   3.506   2.024  0.0520 -0.3660  0.2421
   56MOL   O30432314   3.554   3.385   2.097  0.3930 -0.3163  0.7281
   56MOL   H30532315   3.387   4.019   2.718  0.6532  1.8923  2.2183
   56MOL   H30632316   3.215   4.036   2.698 -0.8923  1.6442 -0.3126
   56MOL   H30732317   3.247   4.285   2.666  2.8186  2.3378  0.6026
   56MOL   H30832318   3.501   4.192   2.668  0.6327  0.8082  0.5379
   56MOL   H30932319   3.212   4.124   2.470 -0.3288  0.2079  2.5790
   56MOL   H31032320   3.342   4.243   2.427 -0.6576 -1.5936 -1.1874
   56MOL   H31132321   3.311   4.019   2.299  0.3635  0.9048  0.0098
   56MOL   H31232322   3.279   3.909   2.435 -1.1585  1.0708 -1.2140
   56MOL   H31332323   3.529   3.836   2.399 -1.6311  1.2491  2.0485
   56MOL   H31432324   3.531   3.921   2.252 -3.2354  0.4805 -1.6158
   56MOL   H31532325   3.325   3.699   2.292  1.4092 -1.1139 -0.5183
   56MOL   H31632326   3.331   3.818   2.173 -2.0585 -0.8984  1.2400
   56MOL   H31732327   3.362   3.536   2.135  0.2243  1.5345  0.7341
   56MOL   H31832328   3.444   3.714   1.932  0.6435 -0.6667  0.4766
   56MOL   H31932329   3.645   3.558   2.023  0.4005 -0.9069  2.2598
   56MOL   H32032330   3.524   3.483   1.920 -0.5720  2.0791 -0.1660
   56MOL   C32132331   3.611   3.387   2.229 -0.5288 -0.2292 -0.4832
   56MOL   C32232332   3.599   3.242   2.287  0.2694 -0.0861  0.3465
   56MOL   O32332333   3.671   3.241   2.412 -0.3212 -0.6501 -0.1639
   56MOL   C32432334   3.460   3.194   2.320  0.3417  0.2657  0.4066
   56MOL   O32532335   3.406   3.275   2.421  0.1191  0.2611  0.5777
   56MOL   C32632336   3.260   3.277   2.431  0.3760 -0.4274 -0.0177
   56MOL   C32732337   3.223   3.354   2.557  0.6583  0.6971 -0.4315
   56MOL   C32832338   3.242   3.504   2.550 -0.3601 -0.3475 -0.9077
   56MOL   O32932339   3.234   3.562   2.677 -0.2249 -0.3720  0.3354
   56MOL   C33032340   3.255   3.700   2.683  0.4770 -0.1702 -0.0836
   56MOL   O33132341   3.148   3.773   2.627 -0.1089 -0.7308 -0.1682
   56MOL   C33232342   3.280   3.737   2.828  0.4894 -0.0383  0.8380
   56MOL   O33332343   3.163   3.698   2.902  0.4587 -0.0362 -0.5271
   56MOL   H33432344   3.555   3.464   2.283 -1.1435 -1.4556  0.6621
   56MOL   H33532345   3.716   3.416   2.235 -0.6582  0.1305  0.0747
   56MOL   H33632346   3.642   3.171   2.216  0.3204  0.8167 -0.5346
   56MOL   H33732347   3.600   3.223   2.472 -1.7255 -0.6534 -1.7840
   56MOL   H33832348   3.458   3.089   2.351 -1.2807  0.3826  0.7765
   56MOL   H33932349   3.393   3.202   2.235  2.3261  2.7214 -0.9786
   56MOL   H34032350   3.222   3.175   2.436 -0.6948 -0.2906 -3.4629
   56MOL   H34132351   3.219   3.322   2.340 -0.8162 -0.1097  0.6690
   56MOL   H34232352   3.116   3.343   2.574  0.9602 -0.7599  0.5927
   56MOL   H34332353   3.263   3.313   2.650  0.1132 -4.3662 -2.2636
   56MOL   H34432354   3.337   3.533   2.505  1.7733 -2.2331  2.1939
   56MOL   H34532355   3.166   3.540   2.481 -1.1509 -0.3640 -0.0475
   56MOL   H34632356   3.340   3.736   2.625  3.0155 -0.2301  3.4392
   56MOL   H34732357   3.078   3.765   2.690  1.9463  0.1129  2.3303
   56MOL   H34832358   3.366   3.680   2.862  2.5729  2.1717 -0.5590
   56MOL   H34932359   3.300   3.844   2.840 -0.1912  0.1524  0.2959
   56MOL   C35032360   3.161   3.779   3.018  0.2258  0.2360  0.6146
   56MOL   C35132361   3.052   3.726   3.116  0.1696 -0.0207 -0.2387
   56MOL   O35232362   3.090   3.611   3.191 -0.0541  0.0981 -0.5057
   56MOL   C35332363   2.997   3.834   3.217  0.6928  0.4109 -0.4802
   56MOL   O35432364   2.946   3.937   3.144 -0.3846 -0.1214 -0.1874
   56MOL   C35532365   2.895   4.043   3.218 -0.1145 -0.2966 -0.0842
   56MOL   C35632366   2.915   4.173   3.146 -0.4999  0.1271 -0.3166
   56MOL   C35732367   2.844   4.282   3.212 -0.5147 -0.1662  0.1307
   56MOL   O35832368   2.857   4.392   3.123  0.4993 -0.1137 -0.2031
   56MOL   C35932369   2.829   4.508   3.186 -0.5174  0.1004 -0.0666
   56MOL   O36032370   2.933   4.532   3.274 -0.1039  0.5126 -0.6506
   56MOL   C36132371   2.832   4.618   3.082  0.8831  0.1212 -0.0005
   56MOL   O36232372   2.766   4.731   3.128 -0.1438 -0.5533  0.4059
   56MOL   H36332373   3.130   3.882   2.997  1.0041  0.4985  0.6997
   56MOL   H36432374   3.259   3.785   3.066  0.4026  1.2310  0.1545
   56MOL   H36532375   2.972   3.689   3.051 -1.4857  1.1001  1.1205
   56MOL   H36632376   3.108   3.545   3.126  1.1793  0.3672 -0.4385
   56MOL   H36732377   2.917   3.799   3.282  0.6573  1.6052  0.1318
   56MOL   H36832378   3.085   3.858   3.276  0.9102  2.9673 -1.7825
   56MOL   H36932379   2.952   4.046   3.311 -0.2657  0.1632 -0.0075
   56MOL   H37032380   2.795   4.014   3.249 -0.0245  0.2008  0.6700
   56MOL   H37132381   2.877   4.158   3.045 -3.0607 -1.3251  0.8159
   56MOL   H37232382   3.019   4.205   3.144 -0.0679 -1.2480 -0.0124
   56MOL   H37332383   2.738   4.263   3.229 -0.7645  1.2000  0.1681
   56MOL   H37432384   2.882   4.308   3.311  3.1622  0.1911 -1.3039
   56MOL   H37532385   2.739   4.495   3.246 -1.2041  1.1037 -0.8522
   56MOL   H37632386   2.909   4.609   3.324 -1.0978 -0.4127  0.3304
   56MOL   H37732387   2.938   4.643   3.076  1.0751 -0.1328  1.9748
   56MOL   H37832388   2.793   4.590   2.984  1.3916  0.4103 -0.2902
   56MOL   C37932389   2.794   4.853   3.065 -0.0932  0.0095  0.4752
   56MOL   C38032390   2.714   4.974   3.124  0.3037  0.5080  0.2103
   56MOL   O38132391   2.761   5.001   3.258 -0.0191  0.3846 -0.3995
   56MOL   C38232392   2.725   5.102   3.045 -0.0874  0.4379 -0.6424
   56MOL   O38332393   2.688   5.088   2.908 -0.0392  0.4309  0.2731
   56MOL   C38432394   2.635   5.207   2.860  0.4444 -0.0261  0.8115
   56MOL   C38532395   2.737   5.321   2.858 -0.1164  0.5806 -0.1159
   56MOL   C38632396   2.863   5.284   2.775 -0.8318  0.0361 -0.3231
   56MOL   O38732397   2.962   5.388   2.783  0.3207 -0.0065 -0.1229
   56MOL   C38832398   3.077   5.343   2.720 -0.3598  0.7636 -1.0381
   56MOL   O38932399   3.055   5.339   2.582 -0.2795 -0.0712 -0.1396
   56MOL   C39032400   3.189   5.443   2.751 -0.3569 -0.6905  0.0859
   56MOL   O39132401   3.285   5.384   2.835  0.1808  0.2519  0.1361
   56MOL   H39232402   2.786   4.843   2.956 -0.0120 -0.5011  0.5159
   56MOL   H39332403   2.902   4.865   3.078  0.1000  0.0609 -1.0669
   56MOL   H39432404   2.608   4.950   3.134  0.0633  1.4334 -0.1196
   56MOL   H39532405   2.713   5.070   3.299 -1.1749 -1.0068  0.6360
   56MOL   H39632406   2.673   5.180   3.100 -2.4728  1.2499 -3.9014
   56MOL   H39732407   2.832   5.124   3.044  0.4638 -2.1140 -0.2581
   56MOL   H39832408   2.548   5.220   2.924 -0.4989  0.9116 -0.6371
   56MOL   H39932409   2.607   5.188   2.757  1.1922 -1.5583  0.8783
   56MOL   H40032410   2.765   5.357   2.957 -3.3179 -1.8372  1.7650
   56MOL   H40132411   2.702   5.412   2.811  3.1659  0.2161 -3.4706
   56MOL   H40232412   2.912   5.194   2.813  1.4138  0.6824 -1.5919
   56MOL   H40332413   2.840   5.270   2.670  0.7799  1.6786 -0.9198
   56MOL   H40432414   3.103   5.241   2.748 -2.7564  0.0833 -1.1447
   56MOL   H40532415   3.131   5.303   2.538  0.3366  1.0167  0.0427
   56MOL   H40632416   3.241   5.470   2.659  0.1616  1.8155  1.0468
   56MOL   H40732417   3.148   5.538   2.787  0.9815  0.8418 -2.2825
   56MOL   C40832418   3.379   5.474   2.871  0.0548  0.0850  0.3415
   56MOL   C40932419   3.486   5.385   2.927 -0.7821 -0.3685 -0.6153
   56MOL   O41032420   3.446   5.343   3.057  0.2645  0.6370  0.1224
   56MOL   C41132421   3.617   5.462   2.973  0.1793 -0.6740  0.0395
   56MOL   O41232422   3.726   5.402   2.914 -0.4416 -0.1145 -0.3779
   56MOL   C41332423   3.842   5.460   2.955  0.4065 -0.6335  0.2276
   56MOL   C41432424   3.967   5.391   2.905  0.2386  0.2635 -0.4328
   56MOL   C41532425   4.089   5.411   2.999  0.3842  1.1686  0.1919
   56MOL   O41632426   4.189   5.311   2.961 -0.6927  0.5140 -0.3934
   56MOL   C41732427   4.306   5.314   3.041 -0.3974 -0.2213  0.3709
   56MOL   O41832428   4.384   5.432   3.017 -0.2255 -1.0134 -0.1140
   56MOL   C41932429   4.391   5.197   3.007  0.0689 -0.0950  0.1598
   56MOL   O42032430   4.344   5.088   3.083 -0.2408  0.1503  0.0044
   56MOL   H42132431   3.337   5.541   2.946 -0.4826 -0.8268  0.8809
   56MOL   H42232432   3.418   5.521   2.781 -2.1900 -1.3540 -1.4591
   56MOL   H42332433   3.516   5.299   2.868  0.8102 -3.3830  4.2758
   56MOL   H42432434   3.353   5.327   3.051  0.5332 -1.5807  1.3665
   56MOL   H42532435   3.604   5.562   2.931 -0.1549 -0.4801  0.6028
   56MOL   H42632436   3.627   5.472   3.081  1.4460  0.0925 -0.1368
   56MOL   H42732437   3.849   5.565   2.927  1.6430 -0.6426  0.4778
   56MOL   H42832438   3.843   5.451   3.064 -1.9345 -2.4781  0.1299
   56MOL   H42932439   3.998   5.446   2.816  3.6075  2.5294  2.0525
   56MOL   H43032440   3.944   5.285   2.888  1.8187 -0.1220 -0.2249
   56MOL   H43132441   4.128   5.510   2.975  0.2467  1.0084 -0.7243
   56MOL   H43232442   4.059   5.404   3.104 -0.0696 -0.3861 -0.0313
   56MOL   H43332443   4.288   5.319   3.148 -2.0096  0.3844  0.0929
   56MOL   H43432444   4.403   5.438   2.925 -2.0808  0.3798 -0.4472
   56MOL   H43532445   4.386   5.181   2.899 -1.3119 -1.2773  0.3799
   56MOL   H43632446   4.491   5.230   3.036  0.2479  1.7628 -2.3363
   56MOL   C43732447   4.419   4.968   3.058  0.2867 -0.1008  0.0717
   56MOL   C43832448   4.370   4.863   3.147  0.0492  0.7299 -0.2134
   56MOL   O43932449   4.240   4.835   3.116 -0.1926 -0.4317  0.1082
   56MOL   C44032450   4.380   4.890   3.299 -0.3927 -0.0359  0.2382
   56MOL   O44132451   4.459   4.791   3.365  0.4297  0.1083 -0.3607
   56MOL   C44232452   4.395   4.670   3.384  0.3827  0.0768 -0.5010
   56MOL   C44332453   4.489   4.569   3.449 -0.0317 -0.3784  0.0665
   56MOL   C44432454   4.596   4.507   3.351 -0.3931  0.0310  0.6223
   56MOL   O44532455   4.697   4.429   3.419  0.6836 -0.8117  0.6061
   56MOL   C44632456   4.832   4.437   3.367 -0.0861 -0.0313 -0.0116
   56MOL   O44732457   4.903   4.319   3.405  0.4600  0.5877  0.1465
   56MOL   C44832458   4.893   4.561   3.429 -0.5403 -0.2434 -0.8656
   56MOL   O44932459   4.872   4.672   3.348  0.2622  0.3048 -0.2969
   56MOL   H45032460   4.417   4.940   2.952  0.7101 -1.2853  0.3626
   56MOL   H45132461   4.523   4.978   3.090  1.0271  0.5412 -2.3949
   56MOL   H45232462   4.423   4.774   3.114  2.7214  1.6590  1.4221
   56MOL   H45332463   4.213   4.925   3.126  3.5956  0.8846 -0.5325
   56MOL   H45432464   4.435   4.983   3.311  1.9538 -1.2505 -0.7471
   56MOL   H45532465   4.283   4.909   3.344  0.7725 -0.5406  3.0808
   56MOL   H45632466   4.360   4.630   3.289  0.7056 -1.3225 -0.0501
   56MOL   H45732467   4.321   4.687   3.462 -0.0210  2.1802 -1.3159
   56MOL   H45832468   4.417   4.494   3.483 -0.7755  0.9609  1.4586
   56MOL   H45932469   4.538   4.623   3.529 -1.9222  2.8461 -0.8660
   56MOL   H46032470   4.543   4.446   3.277 -0.4299  1.2613 -0.3850
   56MOL   H46132471   4.642   4.588   3.295 -2.5242 -0.0961 -1.4333
   56MOL   H46232472   4.837   4.441   3.258  1.3111  2.4127  0.0893
   56MOL   H46332473   4.995   4.341   3.405  0.5663  0.2928 -2.2517
   56MOL   H46432474   4.858   4.582   3.530  1.8780  2.2938 -0.4954
   56MOL   H46532475   4.999   4.542   3.446 -0.2481  2.8095  1.1351
   56MOL   C46632476   4.821   4.789   3.422  0.2255  0.3334  0.3118
   56MOL   C46732477   4.797   4.903   3.320  0.5163 -0.1787 -0.4622
   56MOL   O46832478   4.713   4.845   3.224  0.1137 -0.1264 -0.5644
   56MOL   C46932479   4.744   5.031   3.386  0.0596  0.1733 -0.0533
   56MOL   O47032480   4.746   5.129   3.296  0.2274 -0.0182  0.8332
   56MOL   C47132481   4.707   5.253   3.351 -0.3573 -0.0711 -0.5394
   56MOL   C47232482   4.785   5.375   3.284  0.2771 -0.3713  0.3230
   56MOL   C47332483   4.731   5.404   3.143 -0.3417  0.0118  0.2264
   56MOL   O47432484   4.770   5.539   3.102  0.8368  0.2602 -0.2712
   56MOL   C47532485   4.723   5.573   2.978 -0.7829 -0.4533 -0.3103
   56MOL   O47632486   4.775   5.510   2.868  0.1252 -0.2854  0.1932
   56MOL   C47732487   4.775   5.710   2.945  0.0078 -0.5055  0.4089
   56MOL   O47832488   4.911   5.699   2.910  0.2135 -0.2782  0.4402
   56MOL   H47932489   4.883   4.812   3.509  0.7378  0.1307  0.0045
   56MOL   H48032490   4.724   4.760   3.461  0.4203 -1.5207 -0.5321
   56MOL   H48132491   4.890   4.934   3.272 -0.0606 -0.7808 -1.9904
   56MOL   H48232492   4.727   4.752   3.226 -1.1264 -0.3081 -0.0382
   56MOL   H48332493   4.644   5.021   3.430  0.6755 -1.5555  0.9864
   56MOL   H48432494   4.815   5.053   3.466 -0.6488  0.2808  0.5546
   56MOL   H48532495   4.744   5.261   3.453 -0.1703  1.5315 -0.7126
   56MOL   H48632496   4.598   5.249   3.351 -0.3996  0.6708  0.8013
   56MOL   H48732497   4.883   5.329   3.272 -0.7311 -1.9792 -2.1733
   56MOL   H48832498   4.793   5.460   3.352 -2.5250  0.8191 -0.7381
   56MOL   H48932499   4.770   5.331   3.072  2.5562  1.9030 -0.2278
   56MOL   H49032500   4.623   5.396   3.149 -0.4944  0.4041 -1.8937
   56MOL   H49132501   4.615   5.566   2.984 -0.7375 -1.2791 -0.4914
   56MOL   H49232502   4.853   5.561   2.857  0.7881 -1.3935 -0.2835
   56MOL   H49332503   4.726   5.749   2.856 -0.6967 -0.8645  0.6427
   56MOL   H49432504   4.781   5.780   3.029 -0.2375  0.0654 -0.0512
   56MOL   C49532505   4.988   5.819   2.915 -0.0235  0.6247  0.1498
   56MOL   C49632506   5.122   5.807   2.832 -0.0315 -0.2648  0.5690
   56MOL   O49732507   5.189   5.935   2.850 -0.5939 -0.5886 -0.2402
   56MOL   C49832508   5.223   5.718   2.897  0.1186  0.0238  0.1050
   56MOL   O49932509   5.346   5.728   2.826 -0.6184  0.1631 -0.1660
   56MOL   C50032510   5.418   5.607   2.835  0.1823 -0.2733 -0.5117
   56MOL   C50132511   5.549   5.625   2.774  0.2468 -0.2384  0.4053
   56MOL   C50232512   5.652   5.711   2.843  0.0345  0.3200 -0.0825
   56MOL   O50332513   5.778   5.692   2.774  0.8623 -0.0976 -0.5363
   56MOL   C50432514   5.879   5.757   2.835 -0.4850 -0.0307 -0.0959
   56MOL   O50532515   5.885   5.889   2.791 -0.3609  0.3321  0.2831
   56MOL   C50632516   6.010   5.684   2.794  0.2754 -0.6070 -0.4115
   56MOL   O50732517   6.070   5.605   2.895  0.3015 -0.8211  0.2705
   56MOL   H50832518   5.010   5.836   3.020  0.8998  1.2394 -0.1370
   56MOL   H50932519   4.925   5.899   2.877  0.1218  0.0404 -1.3577
   56MOL   H51032520   5.098   5.779   2.730  1.7626  3.7085 -1.0432
   56MOL   H51132521   5.280   5.910   2.844  0.3821  2.5951  0.1595
   56MOL   H51232522   5.239   5.747   3.001 -0.3884  0.8446 -0.0356
   56MOL   H51332523   5.191   5.614   2.887 -0.0273  0.1590 -0.8701
   56MOL   H51432524   5.363   5.526   2.785 -1.9135  0.0364  1.1848
   56MOL   H51532525   5.431   5.590   2.942  1.4348  1.9961 -0.2823
   56MOL   H51632526   5.530   5.659   2.672 -0.9800 -1.1512  0.3212
   56MOL   H51732527   5.593   5.525   2.770  1.0998  0.1629 -0.6004
   56MOL   H51832528   5.626   5.817   2.846  0.1137  0.3372  0.0119
   56MOL   H51932529   5.672   5.675   2.944  3.0254 -1.4324 -1.2484
   56MOL   H52032530   5.870   5.762   2.943  0.9728 -1.5247  0.1049
   56MOL   H52132531   5.919   5.888   2.702  0.7459 -1.0190  0.7038
   56MOL   H52232532   5.990   5.626   2.704 -1.7111  1.9655 -1.6857
   56MOL   H52332533   6.081   5.760   2.761 -1.8813  1.5625 -0.1445
   56MOL   C52432534   6.159   5.511   2.837 -0.5207 -0.7045 -0.1805
   56MOL   C52532535   6.221   5.423   2.943 -0.5191 -0.4232 -0.4242
   56MOL   O52632536   6.306   5.518   3.014 -0.2259 -0.5502 -0.1185
   56MOL   C52732537   6.296   5.309   2.883 -0.0425  0.0609  0.2242
   56MOL   O52832538   6.201   5.220   2.817 -0.4940  0.0667  0.0132
   56MOL   C52932539   6.248   5.100   2.763  0.4882 -0.2299  0.3277
   56MOL   C53032540   6.130   5.007   2.740  0.1172 -0.0769 -0.5912
   56MOL   C53132541   6.166   4.916   2.615  0.2335  0.2678 -0.6797
   56MOL   O53232542   6.071   4.812   2.626 -0.6338  0.0680 -0.1556
   56MOL   C53332543   6.112   4.686   2.670 -0.0396 -0.0950 -0.3657
   56MOL   O53432544   6.147   4.704   2.801 -0.4895  0.0505  0.3456
   56MOL   C53532545   5.994   4.594   2.659 -0.2031 -0.2037 -0.9091
   56MOL   O53632546   6.032   4.456   2.676 -0.4454 -0.7676  0.2929
   56MOL   H53732547   6.229   5.568   2.776 -0.9532  1.2494  1.1087
   56MOL   H53832548   6.109   5.443   2.768 -1.6752 -1.1604  1.1059
   56MOL   H53932549   6.143   5.390   3.010 -1.6587 -3.0747 -2.9648
   56MOL   H54032550   6.258   5.538   3.093 -1.6068 -0.6158 -0.9321
   56MOL   H54132551   6.366   5.349   2.810 -1.0019  2.5776  0.6279
   56MOL   H54232552   6.350   5.254   2.960 -2.0918 -1.2376  0.7776
   56MOL   H54332553   6.321   5.059   2.833  0.0828  0.7702  1.3648
   56MOL   H54432554   6.300   5.127   2.671  3.1222  1.7534  2.3073
   56MOL   H54532555   6.035   5.052   2.711 -1.0638 -1.1346  1.5286
   56MOL   H54632556   6.109   4.951   2.831  0.5676 -0.5832 -0.7960
   56MOL   H54732557   6.151   4.975   2.524  1.4997  1.0083 -0.4125
   56MOL   H54832558   6.265   4.872   2.613  0.4606  0.6665  1.5181
   56MOL   H54932559   6.202   4.653   2.619 -0.8263 -0.8944 -1.2385
   56MOL   H55032560   6.143   4.624   2.851 -0.0007 -0.1075  0.1351
   56MOL   H55132561   5.926   4.614   2.742  1.1496  2.8167 -0.4886
   56MOL   H55232562   5.938   4.623   2.569 -1.1928 -3.8713 -1.5648
   56MOL   C55332563   6.081   4.392   2.567  0.3661 -0.3708  0.3966
   56MOL   C55432564   6.086   4.234   2.603  0.1936  0.1624  0.4440
   56MOL   O55532565   6.212   4.203   2.653 -0.2690 -0.2782  0.4379
   56MOL   C55632566   6.069   4.142   2.479 -1.5225  0.1062 -0.2151
   56MOL   O55732567   6.088   4.002   2.512 -0.0491  0.0135 -0.1338
   56MOL   C55832568   6.058   3.922   2.400 -0.2892  0.3396 -0.0183
   56MOL   C55932569   6.064   3.774   2.429 -0.3412 -0.3445  0.2366
   56MOL   C56032570   6.013   3.705   2.301  0.4951  0.1200 -0.3589
   56MOL   O56132571   6.100   3.734   2.190  0.1915 -0.3866 -0.1352
   56MOL   C56232572   6.072   3.694   2.063 -0.8089  0.3599  0.3842
   56MOL   O56332573   6.089   3.557   2.042  0.4642 -0.3200  0.8199
   56MOL   C56432574   5.935   3.735   2.014  0.0500 -0.6299  0.0226
   56MOL   O56532575   5.851   3.619   2.035  0.7441  0.6371 -0.9097
   56MOL   H56632576   6.185   4.416   2.542 -0.1679  1.0283 -0.5411
   56MOL   H56732577   6.015   4.422   2.486  0.7537 -0.2489  0.1247
   56MOL   H56832578   6.016   4.204   2.680  0.0777  2.4167  1.2370
   56MOL   H56932579   6.226   4.111   2.638 -2.9083 -0.6423 -0.1007
   56MOL   H57032580   5.974   4.166   2.432 -1.0143  2.7540  0.0178
   56MOL   H57132581   6.146   4.174   2.409 -0.3464  1.4116  1.6264
   56MOL   H57232582   5.961   3.960   2.367  0.7310  1.7308 -1.5083
   56MOL   H57332583   6.127   3.946   2.319  0.8788 -1.8093  0.2989
   56MOL   H57432584   6.005   3.748   2.517 -3.1227  0.4256 -1.3371
   56MOL   H57532585   6.164   3.736   2.449  1.4857  3.7903 -0.5490
   56MOL   H57632586   6.022   3.598   2.320  2.8156  0.4355  0.5119
   56MOL   H57732587   5.909   3.728   2.281  0.4467  0.1934 -0.0217
   56MOL   H57832588   6.142   3.742   1.995 -0.0812  1.2154  1.7193
   56MOL   H57932589   6.181   3.550   2.022  0.9227  0.1410  2.7310
   56MOL   H58032590   5.892   3.817   2.071  0.5980  0.7202 -1.4914
   56MOL   H58132591   5.939   3.758   1.908  1.8530  2.2103  0.6594
   56MOL   H58232592   5.912   3.555   2.067 -2.0383 -1.6593 -0.0106
   57MOL     C132593   7.266   3.544   1.480  0.0343 -0.5748 -0.3638
   57MOL     C232594   7.179   3.622   1.577 -0.1210  0.4718 -0.3270
   57MOL     O332595   7.216   3.759   1.569 -0.0680 -0.4068  0.1189
   57MOL     C432596   7.024   3.612   1.566  0.1644  0.4084 -0.4552
   57MOL     O532597   6.992   3.634   1.433 -0.1531 -0.2856  0.1731
   57MOL     C632598   6.857   3.663   1.402  0.6016  0.6685 -0.2629
   57MOL     C732599   6.770   3.527   1.396 -0.5557 -0.1540 -0.4281
   57MOL     C832600   6.820   3.421   1.289 -0.1505  0.3730  0.4554
   57MOL     O932601   6.789   3.291   1.337  0.4875  0.7622 -0.0248
   57MOL    C1032602   6.838   3.192   1.251  0.8763  0.5145 -0.2984
   57MOL    O1132603   6.749   3.174   1.143 -0.0200  0.3083 -0.4156
   57MOL    C1232604   6.855   3.068   1.343 -0.3114  0.0840  0.4939
   57MOL    O1332605   6.980   3.064   1.411  0.1062 -0.3628 -0.1325
   57MOL    H1432606   7.259   3.587   1.380 -1.5596 -0.4244 -0.1930
   57MOL    H1532607   7.242   3.438   1.475 -0.8672 -0.3748 -0.2562
   57MOL    H1632608   7.211   3.589   1.676 -2.4567  1.1564  0.6864
   57MOL    H1732609   7.155   3.791   1.504 -0.1707  1.1497  0.9549
   57MOL    H1832610   6.982   3.515   1.590  3.0435 -1.6512 -3.2683
   57MOL    H1932611   6.966   3.682   1.626 -1.8038 -1.1479 -0.5044
   57MOL    H2032612   6.843   3.700   1.300 -3.2017 -0.5153 -0.2607
   57MOL    H2132613   6.802   3.723   1.475  1.3901  1.5985 -0.4256
   57MOL    H2232614   6.666   3.555   1.382 -0.7410  0.1523  1.4453
   57MOL    H2332615   6.770   3.491   1.499 -0.7519 -0.6714 -0.6084
   57MOL    H2432616   6.765   3.446   1.198 -2.2011  1.3558  1.9103
   57MOL    H2532617   6.926   3.441   1.277 -0.1299  0.8790  1.4350
   57MOL    H2632618   6.929   3.230   1.205 -0.1787  3.0626 -0.3744
   57MOL    H2732619   6.666   3.212   1.165 -0.1783  0.9935 -2.1315
   57MOL    H2832620   6.769   3.067   1.410 -1.5693 -0.5029 -1.1164
   57MOL    H2932621   6.858   2.981   1.278  0.0239 -0.2490  0.9446
   57MOL    H3032622   7.370   3.563   1.508  0.4331 -0.4654 -1.9058
   57MOL    C3132623   7.001   2.946   1.477  0.4211  1.2221  0.2999
   57MOL    C3232624   7.119   2.939   1.574  0.3654  0.3198  0.0825
   57MOL    O3332625   7.140   2.801   1.601  0.3876 -0.0020 -0.1997
   57MOL    C3432626   7.077   2.987   1.711  0.5707 -0.5492  0.2696
   57MOL    O3532627   7.171   2.992   1.816  0.5972  0.0584  0.4109
   57MOL    C3632628   7.251   3.105   1.833 -0.3016  0.0397  0.1580
   57MOL    C3732629   7.169   3.212   1.905 -0.1081  0.6329  0.1821
   57MOL    C3832630   7.234   3.345   1.928  0.3811 -0.1660  0.2637
   57MOL    O3932631   7.363   3.336   1.981  0.4794  0.1473 -0.2975
   57MOL    C4032632   7.431   3.461   1.990  0.1455  0.2436 -0.2530
   57MOL    O4132633   7.462   3.525   1.867 -0.4554 -0.1359  0.4643
   57MOL    C4232634   7.568   3.444   2.066 -0.7751  0.2561  0.4813
   57MOL    O4332635   7.660   3.375   1.982  0.3336 -0.0241 -0.3052
   57MOL    H4432636   6.907   2.917   1.525  0.0361  1.5293 -0.2658
   57MOL    H4532637   7.022   2.874   1.398  1.1209  2.0696 -0.2947
   57MOL    H4632638   7.212   2.979   1.532 -0.5808  0.5739 -1.7866
   57MOL    H4732639   7.188   2.810   1.682  0.8563 -0.4770 -0.4201
   57MOL    H4832640   7.035   3.086   1.696  2.1676  0.1090  0.0673
   57MOL    H4932641   6.997   2.919   1.739 -0.8828  0.0848 -2.2383
   57MOL    H5032642   7.293   3.140   1.739 -1.2707  0.0209 -0.2889
   57MOL    H5132643   7.332   3.082   1.902 -0.6601 -2.2073 -0.1651
   57MOL    H5232644   7.146   3.169   2.003  1.8611  0.9539  0.8107
   57MOL    H5332645   7.077   3.221   1.848 -0.1946 -0.1168  0.1913
   57MOL    H5432646   7.242   3.409   1.840 -2.4308  0.5209  0.4705
   57MOL    H5532647   7.164   3.401   1.990  2.4853  1.7903  0.9484
   57MOL    H5632648   7.380   3.530   2.057  0.1418  0.3689 -0.3859
   57MOL    H5732649   7.535   3.478   1.829  0.8589  1.6639  0.6748
   57MOL    H5832650   7.612   3.541   2.089  1.5746 -0.4912 -0.6819
   57MOL    H5932651   7.552   3.396   2.162  2.0168  0.0555  0.8680
   57MOL    C6032652   7.639   3.230   1.997 -0.4391  0.2956  0.0740
   57MOL    C6132653   0.059   3.170   1.920 -0.1641  0.1223  0.1233
   57MOL    O6232654   0.170   3.211   2.000  0.1711 -0.3321  0.1317
   57MOL    C6332655   0.074   3.213   1.774  0.0597 -0.1791 -0.3925
   57MOL    O6432656   7.650   3.183   1.709 -0.1108 -0.0382  0.2298
   57MOL    C6532657   7.649   3.233   1.577  0.0062 -0.4169 -0.5717
   57MOL    C6632658   7.507   3.214   1.520  0.3092 -0.5792  0.8288
   57MOL    C6732659   7.501   3.242   1.370  0.2326 -0.0021  0.4375
   57MOL    O6832660   7.360   3.236   1.329 -0.4254  0.1410  0.0316
   57MOL    C6932661   7.343   3.299   1.200  0.3908 -0.0537 -1.1024
   57MOL    O7032662   7.419   3.232   1.096 -0.1310 -0.2278  0.5075
   57MOL    C7132663   7.190   3.294   1.179  0.2017  0.0760 -0.6665
   57MOL    O7232664   7.148   3.422   1.166 -0.1616 -0.1932  0.1981
   57MOL    H7332665   7.554   3.192   1.940 -1.3494 -0.9048  2.1580
   57MOL    H7432666   7.649   3.183   2.095  0.6012 -1.1900 -0.7379
   57MOL    H7532667   0.056   3.061   1.925  1.1382  0.1099  1.0433
   57MOL    H7632668   0.138   3.281   2.055  0.3874 -1.3474  1.5850
   57MOL    H7732669   0.105   3.317   1.782  2.4700 -0.8969  0.0456
   57MOL    H7832670   0.159   3.155   1.740 -1.6066 -0.9514 -3.4164
   57MOL    H7932671   0.025   3.175   1.516  1.8463 -0.9089  1.9159
   57MOL    H8032672   7.678   3.338   1.585 -1.5674  0.0903 -1.4593
   57MOL    H8132673   7.449   3.288   1.575 -0.7746 -0.3664 -0.5858
   57MOL    H8232674   7.464   3.120   1.554 -0.9407 -0.0325  0.7846
   57MOL    H8332675   7.551   3.165   1.311 -0.0728  0.4489 -0.4114
   57MOL    H8432676   7.545   3.338   1.342  0.7858 -0.4664 -0.3221
   57MOL    H8532677   7.379   3.401   1.213 -1.1489  0.4812 -0.9388
   57MOL    H8632678   7.421   3.140   1.120  1.7926  0.2270  2.1966
   57MOL    H8732679   7.162   3.233   1.093 -1.8075  0.2687 -0.1563
   57MOL    H8832680   7.145   3.267   1.274  0.9492  1.7666  0.1884
   57MOL    C8932681   7.137   3.472   1.036  0.0566 -0.1536  0.4427
   57MOL    C9032682   7.066   3.600   1.050 -0.5798  0.3763  0.3235
   57MOL    O9132683   7.120   3.694   1.144 -0.3150 -0.5297 -0.0878
   57MOL    C9232684   7.037   3.666   0.919  0.7822 -0.0574  0.1116
   57MOL    O9332685   6.916   3.619   0.861 -0.4546 -0.2439  0.2818
   57MOL    C9432686   6.868   3.691   0.755 -0.1025 -0.1537  0.8455
   57MOL    C9532687   6.921   3.647   0.619 -0.4479 -0.1031  0.6428
   57MOL    C9632688   6.858   3.725   0.500 -0.1102  1.2039  1.0671
   57MOL    O9732689   6.884   3.868   0.498 -0.1553  0.0148  0.4966
   57MOL    C9832690   7.017   3.901   0.454 -0.8082  0.7968 -0.5120
   57MOL    O9932691   7.027   3.881   0.319  0.1650  0.4558  0.1680
   57MOL   C10032692   7.042   4.048   0.484  0.7444  0.5044  0.0617
   57MOL   O10132693   7.169   4.090   0.429 -0.4375 -0.2339  0.0842
   57MOL   H10232694   7.071   3.412   0.974  1.6542 -1.4534 -0.0258
   57MOL   H10332695   7.237   3.478   0.993 -0.8413  0.6441 -1.5918
   57MOL   H10432696   6.973   3.585   1.104  0.6707  2.1777  3.1226
   57MOL   H10532697   7.116   3.653   1.229  0.0273  0.5024  0.4243
   57MOL   H10632698   7.024   3.773   0.935 -1.9780 -0.4316  0.5221
   57MOL   H10732699   7.119   3.650   0.848 -0.6176 -0.1804 -1.4973
   57MOL   H10832700   6.871   3.799   0.772 -2.8256  0.3205 -1.1142
   57MOL   H10932701   6.763   3.659   0.753 -0.9768  2.5457  0.6086
   57MOL   H11032702   6.912   3.539   0.608 -1.4388  0.0107  0.3172
   57MOL   H11132703   7.030   3.654   0.614 -0.3910  0.1799  2.1491
   57MOL   H11232704   6.897   3.680   0.409  0.8340 -0.6942  2.3673
   57MOL   H11332705   6.753   3.695   0.503 -0.0330  1.0597  3.4075
   57MOL   H11432706   7.089   3.839   0.506 -0.7494  0.1199 -1.4009
   57MOL   H11532707   7.070   3.959   0.287  2.7043 -0.8532  0.2878
   57MOL   H11632708   6.959   4.100   0.436 -1.5016 -0.4859  2.7417
   57MOL   H11732709   7.042   4.064   0.592  1.3603  0.3421  0.0844
   57MOL   C11832710   7.222   4.211   0.472 -0.1713 -0.3873  0.3848
   57MOL   C11932711   7.343   4.247   0.386 -1.2622 -0.0144  0.3872
   57MOL   O12032712   7.442   4.158   0.428 -0.2255  0.2757  0.2118
   57MOL   C12132713   7.410   4.382   0.420 -0.1564 -0.5349 -0.1615
   57MOL   O12232714   7.551   4.377   0.385 -0.5946  0.3981 -0.2558
   57MOL   C12332715   7.623   4.491   0.426 -0.6666 -0.7523  0.7847
   57MOL   C12432716   0.078   4.456   0.433  0.0989 -0.4622 -0.3315
   57MOL   C12532717   0.134   4.387   0.309 -0.0772  0.2222  0.4089
   57MOL   O12632718   0.274   4.374   0.295  0.2358  0.4989  0.0860
   57MOL   C12732719   0.325   4.264   0.367 -0.0957 -0.7729  0.4674
   57MOL   O12832720   0.322   4.285   0.503  0.1014 -0.0379  0.0053
   57MOL   C12932721   0.476   4.252   0.336  0.1974  0.5274  0.8327
   57MOL   O13032722   0.502   4.242   0.197 -0.1019  0.0836  0.3287
   57MOL   H13132723   7.141   4.282   0.456 -0.1612 -0.0817  1.6477
   57MOL   H13232724   7.238   4.194   0.578  0.9257  0.1590  0.3126
   57MOL   H13332725   7.337   4.232   0.278  0.2777 -0.4368  0.3410
   57MOL   H13432726   7.524   4.197   0.401  0.9181 -1.5022  1.0519
   57MOL   H13532727   7.368   4.470   0.370  0.4679 -0.2342 -0.1625
   57MOL   H13632728   7.398   4.404   0.526  1.3226  1.3497 -0.3592
   57MOL   H13732729   7.596   4.519   0.527 -1.6656  0.5762  0.1680
   57MOL   H13832730   7.602   4.583   0.372  0.1804 -0.4019  1.0410
   57MOL   H13932731   0.100   4.393   0.519  1.2553  0.4871  0.0866
   57MOL   H14032732   0.140   4.537   0.471 -0.4693 -0.8959  1.5991
   57MOL   H14132733   0.086   4.290   0.297  1.9292 -0.9468  1.4720
   57MOL   H14232734   0.108   4.451   0.225  0.1415 -1.3463 -0.8833
   57MOL   H14332735   0.262   4.184   0.327 -0.8523  0.6952 -1.4039
   57MOL   H14432736   0.353   4.372   0.526 -0.2217 -0.1596  0.9258
   57MOL   H14532737   0.545   4.322   0.383  0.6253  0.4646  0.3005
   57MOL   H14632738   0.516   4.161   0.381 -0.7131  0.0465  0.6796
   57MOL   C14732739   0.637   4.288   0.166  0.1463 -0.4224  0.6807
   57MOL   C14832740   0.716   4.161   0.153 -0.4172  0.4170  1.0650
   57MOL   O14932741   0.764   4.113   0.281  0.5695  0.4979 -0.2407
   57MOL   C15032742   0.843   4.184   0.065 -0.5955 -0.0885  0.3830
   57MOL   O15132743   0.912   4.286   0.136  0.1761 -0.0697  0.4299
   57MOL   C15232744   1.016   4.346   0.068  0.2035 -0.1445 -0.4302
   57MOL   C15332745   1.066   4.448   0.174  0.6519  0.7611  0.3260
   57MOL   C15432746   1.186   4.522   0.121 -0.3440  0.3767  0.3122
   57MOL   O15532747   1.182   4.658   0.180 -1.2221 -0.8018 -0.7747
   57MOL   C15632748   1.311   4.717   0.194 -0.2618  0.1299 -0.6668
   57MOL   O15732749   1.374   4.682   0.319  0.2391  0.2065  0.2789
   57MOL   C15832750   1.289   4.867   0.189 -0.4672  0.4983  1.0943
   57MOL   O15932751   1.251   4.908   0.321  0.4082  0.0618 -0.0327
   57MOL   H16032752   0.679   4.364   0.233 -0.8623  0.4602  0.3282
   57MOL   H16132753   0.628   4.329   0.066 -2.0747 -2.0752  0.1636
   57MOL   H16232754   0.660   4.078   0.111 -0.4534  1.0751 -0.1948
   57MOL   H16332755   0.807   4.185   0.324  2.8748 -1.3695  0.6618
   57MOL   H16432756   0.904   4.094   0.061  0.8206  0.9419 -1.9116
   57MOL   H16532757   0.815   4.213   7.658 -0.8941  0.1481  0.5331
   57MOL   H16632758   0.994   4.390   7.665 -1.2200  2.3220  0.9425
   57MOL   H16732759   1.095   4.272   0.057 -2.4782 -2.9137 -1.9943
   57MOL   H16832760   1.104   4.392   0.260 -0.0914 -0.5090 -0.1617
   57MOL   H16932761   0.988   4.514   0.211  1.2858  1.2847  0.7438
   57MOL   H17032762   1.267   4.450   0.132 -0.1832  0.4639 -0.2480
   57MOL   H17132763   1.178   4.545   0.014  1.1616 -0.4179  0.0172
   57MOL   H17232764   1.380   4.690   0.114  1.2688  0.5782  0.4771
   57MOL   H17332765   1.380   4.758   0.374 -0.2631  0.7906 -0.4722
   57MOL   H17432766   1.386   4.911   0.163 -0.2797  0.3504  1.5271
   57MOL   H17532767   1.216   4.887   0.111  0.3352  0.3713  0.2986
   57MOL   C17632768   1.223   5.046   0.331 -0.3675  0.5174 -0.1628
   57MOL   C17732769   1.070   5.068   0.311 -0.4254  0.4255 -0.5750
   57MOL   O17832770   1.042   5.061   0.171 -0.5259 -0.0286 -0.3653
   57MOL   C17932771   1.011   5.192   0.372  0.1445 -1.1651  0.3384
   57MOL   O18032772   0.874   5.174   0.359  0.2426  0.0341  0.1815
   57MOL   C18132773   0.803   5.284   0.413 -0.1837 -0.4536 -1.1611
   57MOL   C18232774   0.657   5.267   0.383  1.5408  0.4047 -0.1413
   57MOL   C18332775   0.588   5.401   0.402 -0.1072  0.5148  0.3108
   57MOL   O18432776   0.452   5.378   0.373  0.2796  0.1164 -0.2427
   57MOL   C18532777   0.379   5.490   0.329  0.0547  0.2236 -0.3326
   57MOL   O18632778   0.342   5.577   0.435  0.0853  0.0606  0.3201
   57MOL   C18732779   0.245   5.433   0.276  0.4805  0.0957  0.5127
   57MOL   O18832780   0.271   5.365   0.150 -0.5029 -0.3001 -0.1600
   57MOL   H18932781   1.277   5.112   0.263  0.3412 -2.4291 -2.5865
   57MOL   H19032782   1.239   5.080   0.434 -0.6692 -0.5706  0.2534
   57MOL   H19132783   1.021   4.982   0.356  0.2204  0.3833  0.0650
   57MOL   H19232784   0.955   5.027   0.155 -0.8192  0.2014  0.7256
   57MOL   H19332785   1.039   5.212   0.475  2.8386  0.2544 -0.6110
   57MOL   H19432786   1.048   5.284   0.326  0.5703 -0.7409  1.5176
   57MOL   H19532787   0.839   5.368   0.354 -0.4143  1.2589  1.0833
   57MOL   H19632788   0.820   5.300   0.519 -0.2959  0.5610 -1.2917
   57MOL   H19732789   0.621   5.189   0.450  0.1005  1.2567  0.0922
   57MOL   H19832790   0.646   5.233   0.280 -2.2887 -2.3196  1.0781
   57MOL   H19932791   0.595   5.441   0.503  0.8899  1.1894 -0.0269
   57MOL   H20032792   0.632   5.482   0.344  2.7829 -0.0944  1.6124
   57MOL   H20132793   0.426   5.547   0.248 -1.0470  0.8873 -0.5063
   57MOL   H20232794   0.307   5.655   0.394  1.4718  0.8494  0.5741
   57MOL   H20332795   0.210   5.362   0.351  0.9320 -0.8533 -0.1489
   57MOL   H20432796   0.169   5.509   0.258 -0.6277 -1.1967 -0.3799
   57MOL   C20532797   0.171   5.266   0.123  0.1117  0.6946 -1.1928
   57MOL   C20632798   0.196   5.207   7.679  0.2188 -0.0136 -0.5223
   57MOL   O20732799   0.193   5.315   7.583  0.7616  0.0611  0.5763
   57MOL   C20832800   0.331   5.130   7.671 -0.4274  0.1246  0.2580
   57MOL   O20932801   0.331   5.072   7.544  0.2750  0.0410  0.7779
   57MOL   C21032802   0.426   4.969   7.540 -0.8835  0.2305 -0.3712
   57MOL   C21132803   0.429   4.915   7.396 -0.0561 -0.4536  0.0129
   57MOL   C21232804   0.471   4.766   7.375 -0.0567  0.4408 -0.7765
   57MOL   O21332805   0.368   4.675   7.416  0.1928  0.1813 -0.6644
   57MOL   C21432806   0.398   4.539   7.395 -0.1416  0.1414 -0.4518
   57MOL   O21532807   0.384   4.497   7.262 -0.0636  0.4507  0.2050
   57MOL   C21632808   0.303   4.460   7.488 -0.3793 -0.0881 -0.0544
   57MOL   O21732809   0.356   4.332   7.534 -0.0191 -0.2474 -0.4212
   57MOL   H21832810   0.071   5.307   0.140  1.0248  3.3352 -1.9709
   57MOL   H21932811   0.196   5.188   0.194  1.4600  0.3172 -2.0757
   57MOL   H22032812   0.113   5.140   7.657 -0.9677  1.2532  0.0137
   57MOL   H22132813   0.261   5.376   7.607 -1.7107  2.4636  1.7273
   57MOL   H22232814   0.424   5.174   0.013 -1.3641  3.3635 -1.0617
   57MOL   H22332815   0.332   5.042   0.040  0.2253 -0.5251 -0.6388
   57MOL   H22432816   0.384   4.887   7.599  0.2003  0.4354  0.7137
   57MOL   H22532817   0.532   4.981   7.564 -0.8944 -0.4912  0.0829
   57MOL   H22632818   0.479   4.994   7.339  0.8987 -0.9381  0.1638
   57MOL   H22732819   0.329   4.913   7.352  0.5099  2.9483 -1.6463
   57MOL   H22832820   0.490   4.752   7.269  1.2330 -1.2770 -0.3455
   57MOL   H22932821   0.564   4.758   7.432  0.0160 -1.0000 -1.0665
   57MOL   H23032822   0.501   4.528   7.428 -0.3092  3.9432  1.6743
   57MOL   H23132823   0.474   4.483   7.239 -0.1579  1.0561 -0.5461
   57MOL   H23232824   0.295   4.520   7.579 -0.1293  0.8231 -0.6320
   57MOL   H23332825   0.209   4.447   7.434  0.1744  2.2711 -1.6675
   57MOL   C23432826   0.273   4.271   7.635  0.1910  0.2650  0.3576
   57MOL   C23532827   0.174   4.187   7.556 -0.1827  0.5917  0.0156
   57MOL   O23632828   0.057   4.256   7.513  0.0592  0.2704  0.3169
   57MOL   C23732829   0.113   4.067   7.630  0.5408 -0.3434 -0.3059
   57MOL   O23832830   0.061   4.111   0.063  0.2202 -0.6411  0.3854
   57MOL   C23932831   0.011   4.005   0.145 -0.1397  0.8776 -0.6842
   57MOL   C24032832   7.556   3.981   0.132 -0.1365 -0.0731  0.0500
   57MOL   C24132833   7.497   3.869   0.228  0.3322 -0.1964  0.8821
   57MOL   O24232834   7.551   3.874   0.357 -0.3433  0.6272 -0.1881
   57MOL   C24332835   7.540   3.760   0.433  0.4548  0.4791 -0.3496
   57MOL   O24432836   7.408   3.721   0.460 -0.1738 -0.2493  0.7781
   57MOL   C24532837   7.610   3.788   0.568 -0.5292 -0.5328 -0.1267
   57MOL   O24632838   0.055   3.758   0.566  0.2313  0.2516  0.7580
   57MOL   H24732839   0.332   4.200   7.693 -0.3361 -1.5369 -1.2374
   57MOL   H24832840   0.230   4.339   0.014 -1.3310 -0.0515 -0.2248
   57MOL   H24932841   0.217   4.144   7.466 -0.0167 -0.8256  0.7530
   57MOL   H25032842   0.009   4.277   7.592  0.4637 -2.2600  1.2775
   57MOL   H25132843   0.037   4.011   7.575 -1.6761  1.0485  1.2590
   57MOL   H25232844   0.199   4.005   7.652  0.6758 -1.3568 -3.4308
   57MOL   H25332845   0.032   4.028   0.249 -0.8205  0.5972 -0.4778
   57MOL   H25432846   0.071   3.918   0.120  1.6803  1.2905  2.0746
   57MOL   H25532847   7.516   3.966   0.032  1.1558 -0.7723 -0.3795
   57MOL   H25632848   7.501   4.070   0.163  1.5196  0.8171  0.5158
   57MOL   H25732849   7.389   3.876   0.234  0.4417 -0.2069  3.5620
   57MOL   H25832850   7.519   3.770   0.186  0.1919  1.1427 -2.4462
   57MOL   H25932851   7.580   3.672   0.383  1.0450  0.5403  0.0065
   57MOL   H26032852   7.405   3.630   0.433 -1.8400  0.3890 -1.3243
   57MOL   H26132853   7.576   3.878   0.619  0.1485  0.2789 -1.0826
   57MOL   H26232854   7.579   3.708   0.635 -0.3370 -1.4899 -1.1653
   57MOL   C26332855   0.128   3.864   0.507  0.3707  0.3890 -0.0942
   57MOL   C26432856   0.279   3.815   0.509  0.9826 -0.7970  0.5420
   57MOL   O26532857   0.299   3.747   0.380  0.0290  0.3877 -0.3117
   57MOL   C26632858   0.362   3.949   0.515  0.3358  0.3392 -0.1373
   57MOL   O26732859   0.490   3.911   0.542 -0.3083 -0.2611  0.9867
   57MOL   C26832860   0.575   4.021   0.582 -0.3766  0.4748  0.3686
   57MOL   C26932861   0.639   3.982   0.721 -0.1791  0.1059 -0.0350
   57MOL   C27032862   0.740   3.868   0.711  0.1595 -0.1355  0.5133
   57MOL   O27132863   0.676   3.744   0.695  0.1753  0.1510  0.4588
   57MOL   C27232864   0.762   3.643   0.653  0.7145  0.6948  0.1580
   57MOL   O27332865   0.829   3.584   0.764  0.1354  0.7121 -0.1508
   57MOL   C27432866   0.673   3.536   0.584  0.1679  0.4050 -0.1504
   57MOL   O27532867   0.595   3.463   0.674  0.2358  0.0499  0.0395
   57MOL   H27632868   0.111   3.955   0.564 -3.5685 -0.7441  0.7210
   57MOL   H27732869   0.084   3.891   0.411 -0.4418  0.3019  0.2488
   57MOL   H27832870   0.307   3.761   0.600 -0.4600 -2.5417 -0.0124
   57MOL   H27932871   0.391   3.761   0.367  0.5422 -2.4388 -0.0010
   57MOL   H28032872   0.358   4.004   0.421  0.9770  1.6764  0.6080
   57MOL   H28132873   0.318   4.018   0.587  0.0555  0.3897 -0.3556
   57MOL   H28232874   0.528   4.119   0.576  0.0992  0.5741 -1.9819
   57MOL   H28332875   0.650   4.031   0.503  0.6584  0.6643  1.3595
   57MOL   H28432876   0.563   3.966   0.797  1.2872  3.7761  2.2764
   57MOL   H28532877   0.686   4.075   0.753  1.6911 -1.3666  1.6370
   57MOL   H28632878   0.806   3.901   0.630 -3.2228  2.4510 -1.3207
   57MOL   H28732879   0.801   3.862   0.801  1.7456 -0.8485 -0.5742
   57MOL   H28832880   0.840   3.673   0.583  1.2412  0.4625  0.6403
   57MOL   H28932881   0.790   3.498   0.772  3.1081 -0.7702 -0.8335
   57MOL   H29032882   0.610   3.589   0.512 -0.7773 -0.1238  0.2845
   57MOL   H29132883   0.737   3.469   0.527  1.6300  2.0052 -0.4415
   57MOL   C29232884   0.468   3.522   0.695  0.4877  0.3637  0.4175
   57MOL   C29332885   0.369   3.410   0.736  0.1168  0.3486  0.5536
   57MOL   O29432886   0.407   3.361   0.867 -0.0570 -0.3136 -0.2037
   57MOL   C29532887   0.226   3.472   0.746  0.7808  0.3614  0.2517
   57MOL   O29632888   0.143   3.360   0.749  0.1403 -0.2631  1.0805
   57MOL   C29732889   0.009   3.416   0.756  0.7094  0.2648 -0.3967
   57MOL   C29832890   7.620   3.296   0.797  0.2528  0.4047  0.7465
   57MOL   C29932891   7.473   3.333   0.811 -0.2319 -0.3938  0.9906
   57MOL   O30032892   7.432   3.383   0.686  0.4523 -0.7604  0.5294
   57MOL   C30132893   7.316   3.449   0.685  0.5610 -0.6226  0.1336
   57MOL   O30232894   7.324   3.579   0.735 -0.4443  0.5168  0.3036
   57MOL   C30332895   7.258   3.445   0.546 -0.4390  0.0956  0.4919
   57MOL   O30432896   7.363   3.471   0.449  0.3327 -0.2918 -0.3148
   57MOL   H30532897   0.461   3.592   0.778  1.2123 -2.4743  2.9680
   57MOL   H30632898   0.435   3.558   0.598  1.5631 -3.5142 -1.5009
   57MOL   H30732899   0.370   3.328   0.664  0.0143 -0.3656  1.3527
   57MOL   H30832900   0.435   3.430   0.924  2.3344 -2.2578  1.0877
   57MOL   H30932901   0.220   3.529   0.838 -0.6467  0.9760 -0.1998
   57MOL   H31032902   0.198   3.535   0.661 -1.5697  0.4313  1.0334
   57MOL   H31132903   7.677   3.463   0.661  1.2589  2.7302  0.6360
   57MOL   H31232904   7.693   3.491   0.835  0.0024  0.4192 -0.6342
   57MOL   H31332905   7.672   3.261   0.886  2.5342  0.6048 -0.4866
   57MOL   H31432906   7.628   3.223   0.717 -1.2552 -1.4379  2.2396
   57MOL   H31532907   7.416   3.245   0.840 -1.1890 -0.1106  0.0163
   57MOL   H31632908   7.462   3.411   0.886  1.5825 -0.2486  1.1190
   57MOL   H31732909   7.246   3.391   0.745 -0.0733 -0.1097 -0.1072
   57MOL   H31832910   7.388   3.630   0.687 -2.2194  2.0325 -0.5383
   57MOL   H31932911   7.180   3.520   0.535  0.6493  0.9434 -1.9101
   57MOL   H32032912   7.213   3.349   0.524  2.7738 -0.7209 -3.0839
   57MOL   C32132913   7.405   3.345   0.389  0.5201  1.0112 -0.0590
   57MOL   C32232914   7.532   3.358   0.310  0.3339 -0.3951 -0.0248
   57MOL   O32332915   7.517   3.465   0.223  0.1303 -0.5167  0.0799
   57MOL   C32432916   7.659   3.379   0.398 -0.3150 -0.7605  0.1767
   57MOL   O32532917   0.069   3.378   0.313  0.0510 -0.5302 -0.0209
   57MOL   C32632918   0.200   3.390   0.370  0.4919  0.5199  0.2062
   57MOL   C32732919   0.311   3.379   0.261 -0.0353  0.5810 -0.1383
   57MOL   C32832920   0.458   3.403   0.315  0.4862  0.5598  1.1698
   57MOL   O32932921   0.538   3.342   0.220  0.4330 -0.2247 -0.0633
   57MOL   C33032922   0.670   3.333   0.259  0.8600 -0.2337  0.9362
   57MOL   O33132923   0.686   3.234   0.352  0.0659  0.3865 -0.1209
   57MOL   C33232924   0.762   3.315   0.135 -0.8563 -0.1264 -0.1438
   57MOL   O33332925   0.739   3.190   0.071  0.5930 -0.0765 -0.4340
   57MOL   H33432926   7.320   3.312   0.330  0.4986 -2.8922  1.9649
   57MOL   H33532927   7.410   3.268   0.466  0.3489 -0.7904 -1.8124
   57MOL   H33632928   7.545   3.266   0.253 -2.5728 -0.6123 -0.3838
   57MOL   H33732929   7.601   3.506   0.209 -0.4874  1.1769  1.1958
   57MOL   H33832930   7.671   3.302   0.474  2.4939  0.7845  1.3982
   57MOL   H33932931   7.664   3.471   0.456 -0.5441 -1.4196  1.2498
   57MOL   H34032932   0.220   3.316   0.448  1.6162  0.0531 -0.5160
   57MOL   H34132933   0.194   3.488   0.415 -0.7142 -0.2774  1.8397
   57MOL   H34232934   0.307   3.274   0.231 -1.5155  0.1130  1.5678
   57MOL   H34332935   0.290   3.443   0.176  0.5841  2.1582  0.8831
   57MOL   H34432936   0.477   3.509   0.333 -1.0991  0.7776  1.6338
   57MOL   H34532937   0.462   3.343   0.406  2.1415 -0.9947  0.1118
   57MOL   H34632938   0.699   3.429   0.300 -0.2487  1.6830 -2.5501
   57MOL   H34732939   0.649   3.153   0.320  0.1863 -0.8097  2.6356
   57MOL   H34832940   0.756   3.407   0.077 -0.6499 -0.1229 -0.1603
   57MOL   H34932941   0.867   3.310   0.164 -1.0463 -1.0079  0.4031
   57MOL   C35032942   0.698   3.186   7.626 -0.2254  0.5127  0.1148
   57MOL   C35132943   0.564   3.245   7.584 -0.9074  0.4084  0.0447
   57MOL   O35232944   0.563   3.276   7.451 -0.4459  0.1522  0.0022
   57MOL   C35332945   0.447   3.156   7.618 -0.5871 -0.3690  0.2132
   57MOL   O35432946   0.331   3.233   7.591 -0.5040 -0.0284 -0.1528
   57MOL   C35532947   0.213   3.165   7.607  0.5256 -0.0812 -0.3987
   57MOL   C35632948   0.104   3.269   7.632 -0.4399 -0.2429  0.6126
   57MOL   C35732949   7.658   3.219   7.634 -0.2168  0.4669 -0.0096
   57MOL   O35832950   7.570   3.322   7.619 -0.2914 -0.0710  0.5805
   57MOL   C35932951   7.436   3.277   7.611 -0.0432 -0.5242 -0.0997
   57MOL   O36032952   7.388   3.250   0.041 -0.5193 -0.1346 -0.1134
   57MOL   C36132953   7.352   3.396   7.558 -0.1129  0.2437 -0.6446
   57MOL   O36232954   7.222   3.348   7.524 -0.1403  0.1054  0.0637
   57MOL   H36332955   0.707   3.089   7.578 -1.2562  0.2127  0.5188
   57MOL   H36432956   0.778   3.250   7.589  0.4538  0.8371  2.0607
   57MOL   H36532957   0.561   3.345   7.627 -0.8059  0.6304 -0.4635
   57MOL   H36632958   0.504   3.348   7.434 -0.5428 -0.2231 -1.3662
   57MOL   H36732959   0.450   3.056   7.576 -0.8860 -0.6180  0.7826
   57MOL   H36832960   0.446   3.142   0.032  0.0294 -0.8740  0.1607
   57MOL   H36932961   0.226   3.095   7.689  1.1528  1.9063  1.2328
   57MOL   H37032962   0.198   3.103   7.518 -1.7404 -2.0517  1.2737
   57MOL   H37132963   0.108   3.348   7.557  1.4902 -2.5815 -1.9015
   57MOL   H37232964   0.127   3.320   0.030 -0.7879 -1.7355  1.5456
   57MOL   H37332965   7.644   3.152   7.549 -2.9109 -0.4639  1.1082
   57MOL   H37432966   7.637   3.170   0.035  3.3325  0.3128  0.7547
   57MOL   H37532967   7.423   3.190   7.546  1.5085 -1.6905  1.0716
   57MOL   H37632968   7.375   3.334   0.082 -0.2684 -0.7971  1.3612
   57MOL   H37732969   7.352   3.474   7.635  2.3449 -1.9762  1.7223
   57MOL   H37832970   7.399   3.439   7.470  0.9295 -2.2376 -1.3524
   57MOL   C37932971   7.156   3.426   7.427 -0.0593  0.3547  0.4526
   57MOL   C38032972   7.023   3.349   7.412 -0.1340 -0.5761 -0.0946
   57MOL   O38132973   6.924   3.400   7.496 -0.2751 -0.1795  0.2459
   57MOL   C38232974   6.974   3.354   7.261  0.4105  0.6115  0.5951
   57MOL   O38332975   7.067   3.280   7.184 -0.9262  0.2627 -0.7400
   57MOL   C38432976   7.045   3.317   7.049 -0.3830  0.2414 -0.3416
   57MOL   C38532977   7.152   3.255   6.952 -0.2661  0.7281 -0.3725
   57MOL   C38632978   7.134   3.315   6.814 -1.0152  0.3048 -0.8692
   57MOL   O38732979   7.137   3.457   6.819 -0.0188  0.0611  0.3436
   57MOL   C38832980   7.133   3.528   6.697 -0.2252  0.6918  0.0811
   57MOL   O38932981   7.018   3.503   6.621  0.0210 -0.4483  0.1813
   57MOL   C39032982   7.132   3.677   6.735  0.4420  1.0803  0.2281
   57MOL   O39132983   7.025   3.693   6.815 -0.1931 -0.6256  0.2535
   57MOL   H39232984   7.227   3.409   7.345  0.9210 -0.7548  1.5200
   57MOL   H39332985   7.145   3.534   7.436  2.9034  0.7160  0.4112
   57MOL   H39432986   7.042   3.243   7.428 -1.8695 -0.9125 -0.1105
   57MOL   H39532987   6.961   3.417   7.581 -0.6066  0.0079  0.3521
   57MOL   H39632988   6.871   3.319   7.261  0.3632  0.7288 -0.7864
   57MOL   H39732989   6.951   3.457   7.233  0.3449  1.0798  2.3162
   57MOL   H39832990   7.031   3.424   7.044 -3.8312 -0.2485 -2.7099
   57MOL   H39932991   6.950   3.275   7.016 -0.4756  1.3199 -1.4765
   57MOL   H40032992   7.120   3.151   6.955 -0.8841  0.9460  0.5905
   57MOL   H40132993   7.250   3.270   6.996 -0.4065  0.7558 -0.0706
   57MOL   H40232994   7.211   3.279   6.745 -0.4478  0.8713 -0.5364
   57MOL   H40332995   7.037   3.288   6.772 -0.0932  0.0933 -2.9502
   57MOL   H40432996   7.220   3.507   6.636 -1.0329 -0.9039 -0.5421
   57MOL   H40532997   6.974   3.585   6.636  0.7376 -0.0470  0.0662
   57MOL   H40632998   7.233   3.696   6.773  1.0839  0.2222 -0.9758
   57MOL   H40732999   7.126   3.738   6.645  0.0991  0.3328 -0.2614
   57MOL   C40833000   7.063   3.744   6.945  0.6477  0.3023 -0.0276
   57MOL   C40933001   6.929   3.745   7.016  0.1359  0.5432 -0.9708
   57MOL   O41033002   6.839   3.839   6.961 -0.5822  0.2045 -1.0721
   57MOL   C41133003   6.940   3.785   7.165  0.2061 -0.0222 -0.8789
   57MOL   O41233004   6.820   3.753   7.232 -0.3409 -0.2054 -0.4685
   57MOL   C41333005   6.840   3.741   7.374  0.7873 -0.1385  1.2067
   57MOL   C41433006   6.706   3.701   7.438  0.7188 -0.4050 -1.1654
   57MOL   C41533007   6.695   3.688   7.588  0.2336 -0.7766  0.3160
   57MOL   O41633008   6.703   3.817   7.645 -0.6400 -0.1503 -0.4975
   57MOL   C41733009   6.739   3.807   0.092  0.4236 -0.5909  0.1119
   57MOL   O41833010   6.653   3.729   0.169  0.3869  0.1970  0.0063
   57MOL   C41933011   6.740   3.958   0.144  0.1865  0.1004  0.3378
   57MOL   O42033012   6.619   4.022   0.107  0.0541 -0.0722  0.3640
   57MOL   H42133013   7.115   3.839   6.955 -1.2143  1.2310  1.1531
   57MOL   H42233014   7.128   3.664   6.980 -1.2206 -2.3408 -2.3562
   57MOL   H42333015   6.881   3.648   7.011 -0.6721  0.8011  1.2015
   57MOL   H42433016   6.779   3.859   7.032 -0.3020 -1.4457 -0.3280
   57MOL   H42533017   7.016   3.720   7.209  2.2995  0.0277 -4.2466
   57MOL   H42633018   6.957   3.892   7.180  0.9838 -0.1866 -0.5510
   57MOL   H42733019   6.902   3.653   7.387  2.6950  1.0386  0.3109
   57MOL   H42833020   6.874   3.830   7.428  1.0717  0.4249  0.1100
   57MOL   H42933021   6.675   3.609   7.388 -1.1081 -1.1980  1.3329
   57MOL   H43033022   6.624   3.769   7.412 -1.3841 -2.5118 -0.2118
   57MOL   H43133023   6.594   3.652   7.611 -0.1492 -0.4127 -0.7909
   57MOL   H43233024   6.761   3.608   7.621  0.7430  0.0297  1.2653
   57MOL   H43333025   6.837   3.762   0.107 -0.0556 -2.4847 -2.0945
   57MOL   H43433026   6.588   3.790   0.202  2.5222  2.0795  0.8080
   57MOL   H43533027   6.736   3.950   0.253  1.5149 -1.0528  0.3180
   57MOL   H43633028   6.832   4.005   0.108  0.3776  0.4107  1.2069
   57MOL   C43733029   6.635   4.158   0.068 -0.1222 -0.4393  0.1881
   57MOL   C43833030   6.692   4.244   0.184  0.1224 -1.0374 -0.4134
   57MOL   O43933031   6.580   4.256   0.271  0.2961  0.8186 -0.1876
   57MOL   C44033032   6.755   4.375   0.141  0.2574 -0.1964 -0.4624
   57MOL   O44133033   6.864   4.385   0.232  0.1286  0.4788 -0.2736
   57MOL   C44233034   6.921   4.511   0.223 -0.2437 -0.2361 -0.8895
   57MOL   C44333035   7.027   4.521   0.330  0.1482  0.5566 -0.6717
   57MOL   C44433036   7.092   4.657   0.339  0.0803 -0.4913 -0.3559
   57MOL   O44533037   7.169   4.664   0.458  0.3121  0.2451 -0.1732
   57MOL   C44633038   7.245   4.786   0.474  0.2413  0.5084 -0.1327
   57MOL   O44733039   7.363   4.775   0.402 -0.2260 -0.4146  0.2686
   57MOL   C44833040   7.287   4.810   0.619 -0.3091  0.0832 -0.2780
   57MOL   O44933041   7.345   4.695   0.680 -0.4855  0.1877  0.4241
   57MOL   H45033042   6.705   4.148   7.678 -1.5397 -1.5815 -0.8752
   57MOL   H45133043   6.548   4.206   0.025 -0.8493 -0.4030  1.6790
   57MOL   H45233044   6.765   4.184   0.238  0.5267  0.3320  0.5986
   57MOL   H45333045   6.528   4.323   0.230 -1.8335  0.2818  1.5595
   57MOL   H45433046   6.792   4.385   0.039  0.0483 -0.2845 -0.5450
   57MOL   H45533047   6.690   4.460   0.161 -1.0955 -1.6219  1.3133
   57MOL   H45633048   6.852   4.593   0.243 -2.8076 -3.2269  3.1665
   57MOL   H45733049   6.962   4.534   0.124 -0.2480  2.2358 -0.3532
   57MOL   H45833050   7.097   4.445   0.295 -0.6690 -0.4820 -0.0949
   57MOL   H45933051   6.982   4.498   0.427  1.3070 -1.4533 -0.5843
   57MOL   H46033052   7.151   4.687   0.252 -0.0676 -1.7011 -0.8745
   57MOL   H46133053   7.022   4.740   0.348  2.0879  1.2071  0.0264
   57MOL   H46233054   7.181   4.864   0.434 -0.2397  1.3554  2.1994
   57MOL   H46333055   7.423   4.726   0.455  2.5181  2.5880  0.0810
   57MOL   H46433056   7.358   4.890   0.636 -0.0218 -0.2362  0.0328
   57MOL   H46533057   7.191   4.836   0.664 -0.5165 -0.2275 -0.5368
   57MOL   C46633058   7.389   4.731   0.807 -0.1016  0.1658  0.1971
   57MOL   C46733059   7.458   4.614   0.871  0.5298  0.3675 -0.6372
   57MOL   O46833060   7.509   4.648   0.997  0.3410  0.2293  0.2289
   57MOL   C46933061   7.372   4.481   0.875 -0.4900 -0.4804  0.4874
   57MOL   O47033062   7.457   4.370   0.846 -0.5605 -0.4901  0.4514
   57MOL   C47133063   7.397   4.244   0.867 -0.6911  0.0067 -0.2502
   57MOL   C47233064   7.508   4.135   0.867 -0.2066 -0.4727  0.2957
   57MOL   C47333065   7.447   4.001   0.865  0.0662  0.7114  0.0457
   57MOL   O47433066   7.356   3.978   0.971  0.5071  0.2929 -0.1617
   57MOL   C47533067   7.402   3.891   1.071  0.9059 -0.1754 -1.0126
   57MOL   O47633068   7.400   3.753   1.033  0.2367 -0.2230 -0.3732
   57MOL   C47733069   7.321   3.915   1.205 -0.7715 -0.0155 -0.1513
   57MOL   O47833070   7.384   4.018   1.281  0.3063  0.1288 -0.4837
   57MOL   H47933071   7.296   4.764   0.853 -0.9718 -0.0591 -1.3554
   57MOL   H48033072   7.460   4.814   0.804  0.9203 -0.6598  1.0884
   57MOL   H48133073   7.543   4.597   0.805  0.6679 -0.1568 -0.3264
   57MOL   H48233074   7.576   4.584   1.017 -1.5031 -1.8711 -0.0939
   57MOL   H48333075   7.328   4.477   0.975  1.2981  2.4964  1.4848
   57MOL   H48433076   7.289   4.502   0.809  0.4990 -2.8516 -1.5704
   57MOL   H48533077   7.310   4.221   0.806 -0.4111 -2.1081  0.1237
   57MOL   H48633078   7.354   4.247   0.967 -3.6963  0.1651 -1.4942
   57MOL   H48733079   7.569   4.152   0.955  0.6450  0.0997 -0.3924
   57MOL   H48833080   7.565   4.146   0.775  0.7872  0.0840  0.9655
   57MOL   H48933081   7.396   3.993   0.769 -0.0532 -1.8348  0.2830
   57MOL   H49033082   7.526   3.925   0.859 -0.2307  0.3243  0.9850
   57MOL   H49133083   7.506   3.921   1.078  0.6768  0.5818 -0.8312
   57MOL   H49233084   7.313   3.723   1.053 -0.1667 -1.4373 -3.6990
   57MOL   H49333085   7.216   3.931   1.183 -0.3434  0.6744 -1.7942
   57MOL   H49433086   7.337   3.823   1.261  1.6158 -0.3015 -1.2176
   57MOL   C49533087   7.347   4.037   1.417  0.3078 -0.0413 -0.3539
   57MOL   C49633088   7.199   4.077   1.438 -0.4283 -0.1282 -0.1650
   57MOL   O49733089   7.109   3.967   1.421  0.2448  0.4885 -0.0969
   57MOL   C49833090   7.179   4.144   1.577 -0.0596 -1.1783  0.2170
   57MOL   O49933091   7.170   4.285   1.553 -0.2044  0.0233  0.3853
   57MOL   C50033092   7.121   4.370   1.654 -0.3847  0.0922  0.0233
   57MOL   C50133093   7.156   4.520   1.615 -0.7006 -0.1263  0.0472
   57MOL   C50233094   7.135   4.610   1.728 -0.4440  0.3929 -0.0503
   57MOL   O50333095   7.172   4.745   1.690  0.3507 -0.1859  0.3798
   57MOL   C50433096   7.307   4.790   1.717 -0.0021  0.6189 -0.1857
   57MOL   O50533097   7.327   4.817   1.853  0.3908  0.0908  0.5299
   57MOL   C50633098   7.333   4.918   1.627  0.1927  0.8025  0.1215
   57MOL   O50733099   7.406   4.875   1.513  0.5259 -0.3832  0.8416
   57MOL   H50833100   7.406   4.125   1.443  0.1344  0.3560 -1.2497
   57MOL   H50933101   7.373   3.947   1.472 -2.0538 -0.5500 -0.0115
   57MOL   H51033102   7.169   4.156   1.369  0.2064  0.8053  0.6025
   57MOL   H51133103   7.062   3.985   1.341  0.0083 -0.1036 -0.0955
   57MOL   H51233104   7.082   4.103   1.606  0.5206 -2.0573  0.9510
   57MOL   H51333105   7.249   4.105   1.651  0.4028 -0.1103  0.3498
   57MOL   H51433106   7.152   4.335   1.752  1.9399  0.8177 -0.4330
   57MOL   H51533107   7.012   4.366   1.647 -0.3585  1.1116 -1.1581
   57MOL   H51633108   7.092   4.554   1.534 -0.9842 -1.2379 -0.2106
   57MOL   H51733109   7.258   4.526   1.577 -1.1852  0.1882 -1.2275
   57MOL   H51833110   7.026   4.605   1.734 -0.7161  1.5241 -3.2412
   57MOL   H51933111   7.175   4.569   1.821 -1.1466  2.2679  1.1098
   57MOL   H52033112   7.379   4.711   1.698  0.5674  0.3463  2.8034
   57MOL   H52133113   7.285   4.899   1.876 -1.1362 -1.1838  2.4330
   57MOL   H52233114   7.244   4.979   1.618  0.8451  1.5949 -1.0856
   57MOL   H52333115   7.409   4.975   1.679 -0.6056  0.8964  1.1953
   57MOL   C52433116   7.322   4.835   1.407 -0.2508 -0.4651 -0.3600
   57MOL   C52533117   7.405   4.769   1.307  0.2994  0.0733  0.4315
   57MOL   O52633118   7.352   4.771   1.177 -0.2801  0.3961 -0.6287
   57MOL   C52733119   7.444   4.624   1.350 -0.0719  0.0996 -0.0275
   57MOL   O52833120   7.545   4.567   1.267  0.0651 -0.0307 -0.9675
   57MOL   C52933121   7.596   4.438   1.303  0.4151 -0.4361 -0.1438
   57MOL   C53033122   7.664   4.360   1.190  0.0145  0.5646 -0.5205
   57MOL   C53133123   0.081   4.449   1.128 -0.0029 -0.1159  0.3183
   57MOL   O53233124   0.165   4.351   1.060  0.4666  0.2239 -0.0268
   57MOL   C53333125   0.137   4.352   0.922 -0.3344  0.3754  0.0387
   57MOL   O53433126   0.202   4.461   0.859  0.0496  0.0460 -0.3461
   57MOL   C53533127   0.191   4.229   0.854 -0.5747 -0.2338 -0.9236
   57MOL   O53633128   0.143   4.112   0.914 -0.4194  0.2382  0.0869
   57MOL   H53733129   7.277   4.928   1.371  0.0426 -0.2777 -0.2425
   57MOL   H53833130   7.248   4.763   1.443  0.0181 -0.3127  0.5036
   57MOL   H53933131   7.502   4.817   1.297  0.2917  0.5303  2.3403
   57MOL   H54033132   7.415   4.735   1.117  0.7862  0.0154  0.7120
   57MOL   H54133133   7.473   4.629   1.455 -0.3630 -0.9527  0.1095
   57MOL   H54233134   7.352   4.565   1.354  1.0032 -1.5250  1.3514
   57MOL   H54333135   7.515   4.382   1.350 -0.6164  0.0692 -1.2935
   57MOL   H54433136   7.673   4.441   1.379 -0.5865 -3.0803  1.0393
   57MOL   H54533137   7.589   4.336   1.115  0.3923  3.6853 -1.9782
   57MOL   H54633138   0.006   4.268   1.235  0.5315  1.2024  0.3958
   57MOL   H54733139   0.042   4.525   1.060  0.2968 -0.9126 -0.7438
   57MOL   H54833140   0.145   4.495   1.203 -0.6907  1.3912  0.0106
   57MOL   H54933141   0.030   4.362   0.905 -0.7207 -2.9191  0.0521
   57MOL   H55033142   0.293   4.466   0.884 -0.0542  4.8085 -0.4417
   57MOL   H55133143   0.172   4.240   0.747 -2.1436 -0.0182 -0.6301
   57MOL   H55233144   0.300   4.237   0.853 -0.6653  1.1442 -1.4124
   57MOL   C55333145   0.203   4.003   0.845  0.2327 -0.5336  0.6411
   57MOL   C55433146   0.224   3.889   0.945 -0.0535  0.4797 -0.1504
   57MOL   O55533147   0.297   3.790   0.875  0.1449 -0.4654 -0.5855
   57MOL   C55633148   0.101   3.804   0.982 -0.1192 -0.2847 -0.2149
   57MOL   O55733149   0.135   3.702   1.074  0.4510 -0.6395  0.7194
   57MOL   C55833150   0.021   3.636   1.121  0.4576  0.3059 -0.6819
   57MOL   C55933151   0.053   3.525   1.224 -0.6118  0.3849  0.1199
   57MOL   C56033152   0.090   3.400   1.151 -0.8901  0.2494 -0.3667
   57MOL   O56133153   0.129   3.299   1.243  0.1154  0.2536  0.0580
   57MOL   C56233154   0.149   3.169   1.192  0.7938 -0.2617  0.1347
   57MOL   O56333155   0.033   3.116   1.126  0.4979 -0.1026 -0.2782
   57MOL   C56433156   0.263   3.174   1.098 -0.1628  0.1318  0.2349
   57MOL   O56533157   0.217   3.177   0.959  0.4180  0.4907 -0.0581
   57MOL   H56633158   0.301   4.019   0.801 -0.1801  1.1962  0.2939
   57MOL   H56733159   0.137   3.968   0.766  1.8020 -1.3159 -0.3504
   57MOL   H56833160   0.274   3.917   1.037  1.6825  0.8840 -1.1752
   57MOL   H56933161   0.322   3.720   0.934  1.6555  0.9234  0.4472
   57MOL   H57033162   0.050   3.881   1.041 -0.7872  1.3020 -2.7702
   57MOL   H57133163   0.026   3.782   0.906 -0.9421  0.4187  0.3851
   57MOL   H57233164   7.634   3.692   1.166  0.0185  0.0200 -1.1168
   57MOL   H57333165   7.666   3.585   1.038 -1.1007  0.0687  0.3762
   57MOL   H57433166   7.675   3.494   1.299 -0.3004 -1.2942 -0.2699
   57MOL   H57533167   0.141   3.556   1.280 -1.1044 -0.7271  1.5586
   57MOL   H57633168   0.004   3.359   1.098 -0.2197 -0.5446 -0.8537
   57MOL   H57733169   0.164   3.414   1.073  1.3447 -2.2193  1.2441
   57MOL   H57833170   0.168   3.103   1.276 -0.1612  0.0675  0.6252
   57MOL   H57933171   0.047   3.155   1.041  0.7353  1.4907  0.4725
   57MOL   H58033172   0.314   3.270   1.110  0.2232  0.1626 -1.5429
   57MOL   H58133173   0.329   3.091   1.124 -1.1247 -0.2609  1.4959
   57MOL   H58233174   0.274   3.232   0.907 -0.9843  0.3564 -1.7968
   58MOL     C133175   6.686   7.386   0.324 -0.1903  0.1827  0.1553
   58MOL     C233176   6.549   7.325   0.325 -0.3562 -0.6339 -0.6401
   58MOL     O333177   6.484   7.378   0.435 -0.1460  0.0788  0.2017
   58MOL     C433178   6.469   7.376   0.203 -0.0245 -0.0717  0.0393
   58MOL     O533179   6.328   7.347   0.204  0.1082 -0.4708 -0.2592
   58MOL     C633180   6.282   7.217   0.165  0.3636  0.3129  0.0835
   58MOL     C733181   6.129   7.214   0.135  0.4440 -0.0016 -0.2955
   58MOL     C833182   6.080   7.081   0.072 -1.0055  0.1642  0.9262
   58MOL     O933183   6.150   7.054   7.641  0.1727  0.0047  0.4523
   58MOL    C1033184   6.092   6.968   7.554 -0.1987  0.0052 -0.5988
   58MOL    O1133185   6.157   6.841   7.565  0.1695  0.3452  0.7568
   58MOL    C1233186   6.103   7.022   7.417  0.8576 -0.2593  0.3414
   58MOL    O1333187   5.997   6.970   7.345  0.4325  0.2156 -0.0812
   58MOL    H1433188   6.737   7.351   0.414 -0.5190 -0.9333 -0.0818
   58MOL    H1533189   6.680   7.495   0.331  2.7953  0.6146 -2.6775
   58MOL    H1633190   6.555   7.217   0.340 -2.1307 -0.8038 -1.1083
   58MOL    H1733191   6.392   7.356   0.426  0.3172 -1.8595  0.0484
   58MOL    H1833192   6.478   7.483   0.223  2.4174 -0.0244 -1.0540
   58MOL    H1933193   6.509   7.340   0.108 -0.8467 -0.2558 -0.2379
   58MOL    H2033194   6.306   7.139   0.237  0.2047  1.4045  1.3338
   58MOL    H2133195   6.329   7.198   0.068 -3.6530 -0.3308 -1.8454
   58MOL    H2233196   6.104   7.301   0.074  0.9693  1.8803  2.1236
   58MOL    H2333197   6.071   7.216   0.227  0.6060 -1.6608 -0.1387
   58MOL    H2433198   6.090   6.992   0.134  2.4621 -0.3847 -0.3158
   58MOL    H2533199   5.975   7.098   0.048 -0.8469  0.9789  0.8075
   58MOL    H2633200   5.986   6.953   7.571  0.2317 -1.4560  0.9312
   58MOL    H2733201   6.248   6.857   7.547  0.3905 -0.4041  1.1620
   58MOL    H2833202   6.078   7.128   7.425  1.0032 -0.1959 -0.0419
   58MOL    H2933203   6.202   7.001   7.376 -0.4150  0.2708 -3.1324
   58MOL    H3033204   6.732   7.357   0.230 -0.9536  1.2251 -0.5499
   58MOL    C3133205   5.991   7.020   7.213 -0.9187  0.1760 -0.0558
   58MOL    C3233206   5.868   6.981   7.132 -0.5531 -0.1387  0.3293
   58MOL    O3333207   5.887   6.854   7.075 -0.3432 -0.2661  0.0825
   58MOL    C3433208   5.832   7.076   7.015  0.1705  0.1743 -0.0093
   58MOL    O3533209   5.928   7.056   6.910 -0.4115  0.8941  0.1303
   58MOL    C3633210   5.903   7.126   6.794  0.2251 -0.7225  0.2355
   58MOL    C3733211   5.998   7.067   6.685  0.5913  0.2385 -0.4539
   58MOL    C3833212   5.977   7.132   6.551  0.5040 -0.5472  0.5488
   58MOL    O3933213   6.025   7.051   6.446  0.1909 -0.0475  0.4936
   58MOL    C4033214   6.026   7.125   6.326  0.0913 -0.0573 -0.0269
   58MOL    O4133215   5.893   7.160   6.288 -0.4362  0.0237  0.3394
   58MOL    C4233216   6.090   7.044   6.218 -0.7042 -0.1547  0.4314
   58MOL    O4333217   6.230   7.047   6.204 -0.0048  0.5315 -0.3935
   58MOL    H4433218   5.980   7.127   7.230 -1.3426  0.0558  0.4621
   58MOL    H4533219   6.084   6.994   7.163 -1.3899 -0.1811 -0.7561
   58MOL    H4633220   5.788   6.974   7.206 -0.7130  0.3158  0.2009
   58MOL    H4733221   5.928   6.868   6.991  1.1191  0.9768  0.9863
   58MOL    H4833222   5.729   7.054   6.990 -0.1329  3.2520 -1.6642
   58MOL    H4933223   5.836   7.179   7.050 -1.7506 -0.1293  1.1808
   58MOL    H5033224   5.930   7.232   6.803 -1.5450 -0.2984  0.8026
   58MOL    H5133225   5.799   7.117   6.762  0.0818  1.8269 -0.1875
   58MOL    H5233226   5.970   6.963   6.668  1.8190 -0.3735  1.1721
   58MOL    H5333227   6.102   7.071   6.717  0.5831  2.5165 -0.6275
   58MOL    H5433228   5.875   7.163   6.528  1.1335  2.2321  1.3293
   58MOL    H5533229   6.035   7.224   6.558 -1.1535  0.8151 -2.4609
   58MOL    H5633230   6.088   7.214   6.339  2.0285 -1.5400  1.1375
   58MOL    H5733231   5.890   7.249   6.317  0.7806  0.0917  0.2487
   58MOL    H5833232   6.051   6.942   6.226 -0.4129 -0.4966 -1.9012
   58MOL    H5933233   6.051   7.091   6.127  1.3646  0.6490 -0.0666
   58MOL    C6033234   6.283   6.947   6.290 -0.7180 -0.0237 -0.2810
   58MOL    C6133235   6.440   6.946   6.297  0.1660 -1.0440 -1.0899
   58MOL    O6233236   6.499   6.819   6.312  0.1064 -0.3222 -0.1402
   58MOL    C6333237   6.483   7.034   6.415 -0.4191  1.1291  0.8434
   58MOL    O6433238   6.419   7.160   6.420  0.0816  0.0676 -0.0627
   58MOL    C6533239   6.484   7.253   6.505 -0.5008 -0.6053  0.5129
   58MOL    C6633240   6.383   7.372   6.529 -0.6858 -0.0761  0.3727
   58MOL    C6733241   6.351   7.459   6.414  0.1122  0.0681  0.6303
   58MOL    O6833242   6.252   7.536   6.469  0.1468 -0.5420 -0.1539
   58MOL    C6933243   6.207   7.636   6.385 -0.3996 -0.2500 -0.8431
   58MOL    O7033244   6.141   7.585   6.277 -0.2339 -0.3639 -0.0294
   58MOL    C7133245   6.107   0.028   6.460  0.0054 -0.3561 -0.2018
   58MOL    O7233246   5.996   7.639   6.510 -0.7259  0.5294  0.4791
   58MOL    H7333247   6.263   6.851   6.243  0.5842 -0.3094 -0.2588
   58MOL    H7433248   6.246   6.964   6.392 -0.0651 -0.8440  0.1022
   58MOL    H7533249   6.474   7.000   6.208 -0.3435  0.8800 -0.1535
   58MOL    H7633250   6.454   6.783   6.386  0.9558  0.7072  0.9095
   58MOL    H7733251   6.466   6.982   6.509  0.2293  0.0562  0.3679
   58MOL    H7833252   6.591   7.048   6.413 -0.2527  0.0147  1.6042
   58MOL    H7933253   6.571   7.299   6.458 -1.6295  1.5770  0.5257
   58MOL    H8033254   6.495   7.193   6.595  0.5375  0.2136  0.9386
   58MOL    H8133255   6.415   7.433   6.613 -0.3750 -0.5439  0.5971
   58MOL    H8233256   6.288   7.333   6.566  0.1238  0.8681  3.5683
   58MOL    H8333257   6.323   7.412   6.320  0.5747  0.3085  0.3689
   58MOL    H8433258   6.440   7.516   6.387 -1.0089  0.4498 -2.4712
   58MOL    H8533259   6.289   7.692   6.340  1.9430 -1.8592  1.2795
   58MOL    H8633260   6.191   7.512   6.246 -0.5555 -1.3145  1.6442
   58MOL    H8733261   6.163   0.079   6.539  0.7597  1.7362 -2.0328
   58MOL    H8833262   6.070   0.097   6.385  0.2025 -0.2203 -0.1745
   58MOL    C8933263   5.981   7.642   6.647  0.4576  0.8421 -0.1582
   58MOL    C9033264   6.059   7.528   6.720  0.9571  0.0111 -0.0798
   58MOL    O9133265   6.195   7.544   6.720  0.0471 -0.4746  0.2530
   58MOL    C9233266   6.028   7.526   6.872 -0.5508  0.5715  0.2941
   58MOL    O9333267   5.900   7.473   6.904  0.1088  0.5967  0.0669
   58MOL    C9433268   5.878   7.466   7.043 -0.6889  0.5688 -0.3426
   58MOL    C9533269   5.734   7.431   7.057  0.6147 -0.1871 -0.6119
   58MOL    C9633270   5.685   7.441   7.208  0.0659 -0.2993 -0.0903
   58MOL    O9733271   5.752   7.336   7.281  0.2806 -0.4377  0.4397
   58MOL    C9833272   5.708   7.318   7.411  0.8452 -0.0742  0.0172
   58MOL    O9933273   5.593   7.245   7.407 -0.8598  0.5515 -0.1410
   58MOL   C10033274   5.821   7.251   7.491  0.1017  0.1274  0.6429
   58MOL   O10133275   5.918   7.353   7.521  0.1850 -0.1115 -0.1362
   58MOL   H10233276   5.874   7.635   6.668  0.4518 -0.4202 -0.5909
   58MOL   H10333277   6.008   0.043   6.693 -1.9275  1.1003  0.7678
   58MOL   H10433278   6.039   7.430   6.677 -0.6833  0.1359  0.3735
   58MOL   H10533279   6.223   7.547   6.630  1.7380  0.8224  0.7860
   58MOL   H10633280   6.106   7.467   6.921 -0.2093  1.1438  0.4487
   58MOL   H10733281   6.049   7.625   6.913  2.1601 -0.1327  0.7278
   58MOL   H10833282   5.889   7.561   7.095  0.3163 -1.1363  2.6805
   58MOL   H10933283   5.953   7.396   7.078 -0.1572  2.2261  1.8941
   58MOL   H11033284   5.708   7.334   7.015 -2.6659  0.1207  0.5456
   58MOL   H11133285   5.680   7.496   6.989 -1.0851 -1.6886 -0.7188
   58MOL   H11233286   5.704   7.540   7.249  0.1305  1.0909 -3.3357
   58MOL   H11333287   5.578   7.420   7.212 -0.0025  0.2127  1.0606
   58MOL   H11433288   5.684   7.411   7.462 -2.2601 -1.0361  0.4287
   58MOL   H11533289   5.619   7.155   7.414 -1.0553  0.4695 -0.4321
   58MOL   H11633290   5.792   7.230   7.594  2.1323 -1.4483  0.9203
   58MOL   H11733291   5.852   7.157   7.447 -1.5392  0.5051 -1.4049
   58MOL   C11833292   5.992   7.415   7.414 -0.3421  0.0740  0.0091
   58MOL   C11933293   6.121   7.481   7.461  0.4573  0.5831  0.4698
   58MOL   O12033294   6.074   7.590   7.530  0.4744 -0.6888  0.0708
   58MOL   C12133295   6.210   7.525   7.344 -0.8238  0.4764  0.3739
   58MOL   O12233296   6.253   7.404   7.285  0.2234 -0.2494 -0.0718
   58MOL   C12333297   6.352   7.429   7.188 -0.0294 -0.7390  0.3645
   58MOL   C12433298   6.433   7.317   7.127  0.2672 -0.3703 -0.6945
   58MOL   C12533299   6.351   7.240   7.019  0.2862 -0.4679 -0.0023
   58MOL   O12633300   6.425   7.130   6.985 -0.0271 -0.3602 -0.2118
   58MOL   C12733301   6.383   7.049   6.874  0.0093  0.0658  0.2438
   58MOL   O12833302   6.272   6.965   6.917  0.1071  0.3044  0.1104
   58MOL   C12933303   6.502   6.966   6.823  0.2821  0.4287 -0.8729
   58MOL   O13033304   6.588   7.048   6.760  0.3330  0.2241 -0.2738
   58MOL   H13133305   6.008   7.331   7.347 -1.4678 -0.7989  0.8172
   58MOL   H13233306   5.924   7.485   7.364 -1.0441  0.4118  1.4238
   58MOL   H13333307   6.184   7.422   7.527  1.3126 -1.2996 -1.9217
   58MOL   H13433308   5.989   7.561   7.556 -0.2732  0.1094 -1.3952
   58MOL   H13533309   6.154   7.585   7.272  0.9563  0.1158 -1.3421
   58MOL   H13633310   6.294   7.579   7.388 -1.9502  0.4669  2.6039
   58MOL   H13733311   6.425   7.494   7.236  0.3645  0.4065 -1.7103
   58MOL   H13833312   6.301   7.484   7.109  2.0520  1.9282  0.8112
   58MOL   H13933313   6.459   7.261   7.218  1.7718  1.0487 -0.2307
   58MOL   H14033314   6.530   7.350   7.090  0.2021  0.7278  0.0845
   58MOL   H14133315   6.248   7.214   7.044 -0.4679  0.3121 -2.1621
   58MOL   H14233316   6.347   7.305   6.931  0.7740  0.0210  0.3362
   58MOL   H14333317   6.342   7.113   6.795  1.2966  0.2721 -0.2581
   58MOL   H14433318   6.308   6.913   6.987 -0.1952 -0.1608 -0.0761
   58MOL   H14533319   6.540   6.917   6.913 -4.8126  1.0693  1.8539
   58MOL   H14633320   6.462   6.891   6.756  0.7381 -1.6480  1.1102
   58MOL   C14733321   6.711   6.993   6.738  0.0938  0.0703 -0.1463
   58MOL   C14833322   6.810   7.120   6.722 -0.0969  0.4226 -0.0669
   58MOL   O14933323   6.792   7.179   6.594 -0.0443  0.2243 -0.1105
   58MOL   C15033324   6.956   7.076   6.721 -0.1824  0.0799  0.0699
   58MOL   O15133325   7.001   7.051   6.853 -0.1944  0.6799  0.2106
   58MOL   C15233326   7.126   6.977   6.860  0.1934  0.4411  0.1824
   58MOL   C15333327   7.083   6.830   6.862 -0.2980  0.0182  0.1398
   58MOL   C15433328   7.154   6.749   6.750 -0.5658  1.0940  0.0792
   58MOL   O15533329   7.090   6.773   6.625 -0.0821  0.3559  0.6485
   58MOL   C15633330   7.144   6.706   6.516  1.0932 -0.2604 -0.2212
   58MOL   O15733331   7.279   6.736   6.507 -0.2898  0.8963  0.0703
   58MOL   C15833332   7.076   6.751   6.381 -0.7389 -0.1487  0.3019
   58MOL   O15933333   7.138   6.869   6.335 -0.1969  0.5317  0.1118
   58MOL   H16033334   6.708   6.936   6.645  1.2483  0.5258 -0.4718
   58MOL   H16133335   6.739   6.927   6.819 -4.1782 -2.6234 -0.7131
   58MOL   H16233336   6.807   7.196   6.801  3.1145 -1.1632  1.6939
   58MOL   H16333337   6.834   7.128   6.527  1.7019  0.1875  1.0048
   58MOL   H16433338   6.971   6.987   6.659  3.5322 -0.2967  1.3447
   58MOL   H16533339   7.025   7.149   6.678  0.3269  0.5872  1.7195
   58MOL   H16633340   7.179   7.004   6.950  2.2396  3.0578 -1.7268
   58MOL   H16733341   7.198   7.003   6.783  0.3884  1.5920  0.7519
   58MOL   H16833342   6.975   6.819   6.851 -0.1833  0.5696 -1.7431
   58MOL   H16933343   7.096   6.790   6.962  0.3791 -0.7057 -0.2302
   58MOL   H17033344   7.258   6.783   6.753 -0.3499  0.5642 -1.0792
   58MOL   H17133345   7.145   6.642   6.770 -0.5186  0.5978 -2.3789
   58MOL   H17233346   7.136   6.598   6.532  0.6775 -0.3070 -0.7431
   58MOL   H17333347   7.280   6.809   6.447 -0.6411  0.6632 -0.2258
   58MOL   H17433348   7.097   6.672   6.309 -3.2889 -0.2048 -0.4072
   58MOL   H17533349   6.972   6.770   6.407 -0.2826  2.4805  0.3782
   58MOL   C17633350   7.063   6.937   6.233 -0.0066 -0.3247  0.4340
   58MOL   C17733351   6.971   7.056   6.284  0.2994 -0.3967  0.4269
   58MOL   O17833352   6.883   7.008   6.375  0.1912  0.2256 -0.2204
   58MOL   C17933353   6.886   7.110   6.166  0.0949 -0.2926 -0.5440
   58MOL   O18033354   6.961   7.179   6.068 -0.3157  0.7580  0.3379
   58MOL   C18133355   6.995   7.316   6.096  0.2796 -0.6342 -0.7511
   58MOL   C18233356   7.077   7.367   5.989  0.7136  0.7958 -0.0627
   58MOL   C18333357   7.220   7.319   5.996  0.1469 -0.1497  0.2491
   58MOL   O18433358   7.306   7.349   5.883 -0.7816 -0.2280 -0.3899
   58MOL   C18533359   7.438   7.351   5.928 -0.3302 -0.0338 -0.4117
   58MOL   O18633360   7.477   7.463   6.007 -0.1205  0.2652 -0.1511
   58MOL   C18733361   7.515   7.357   5.791 -0.6171 -0.4969 -0.0932
   58MOL   O18833362   7.620   7.266   5.794  0.0286 -0.9752  0.5549
   58MOL   H18933363   7.023   6.868   6.159  0.1142  1.6041 -1.4767
   58MOL   H19033364   7.147   6.984   6.182 -0.1226 -3.0176 -2.3920
   58MOL   H19133365   7.026   7.137   6.333 -0.1505 -0.1681  0.5636
   58MOL   H19233366   6.912   6.929   6.417 -1.8392 -0.3094  0.2681
   58MOL   H19333367   6.843   7.026   6.112 -0.1204 -0.0714 -0.7190
   58MOL   H19433368   6.797   7.166   6.198  0.2901 -0.6077  0.5770
   58MOL   H19533369   7.057   7.320   6.186  0.8162 -2.9257 -0.9867
   58MOL   H19633370   6.907   7.379   6.111  1.5784  0.8843  0.7658
   58MOL   H19733371   7.075   7.476   5.989 -0.6941  0.7908 -1.4227
   58MOL   H19833372   7.026   7.333   5.899  1.7794  0.4726 -0.5612
   58MOL   H19933373   7.271   7.347   6.089 -1.7561  0.5010  1.1087
   58MOL   H20033374   7.217   7.210   5.990  4.2591 -0.3222 -0.6452
   58MOL   H20133375   7.457   7.255   5.975  0.9680  0.2877 -0.2670
   58MOL   H20233376   7.543   7.430   6.066 -0.4201 -0.6135 -0.2984
   58MOL   H20333377   7.451   7.318   5.712 -1.4328 -0.2405  0.4345
   58MOL   H20433378   7.534   7.461   5.765  1.4323 -0.3097  1.9641
   58MOL   C20533379   0.056   7.325   5.827 -0.3861 -0.0557  0.2607
   58MOL   C20633380   0.170   7.214   5.846  0.2042 -0.8634 -0.0330
   58MOL   O20733381   0.210   7.171   5.723 -0.0341 -0.3563 -0.0697
   58MOL   C20833382   0.290   7.269   5.926  0.1012 -0.4855  0.1343
   58MOL   O20933383   0.241   7.306   6.056 -0.1950 -0.2622  0.2443
   58MOL   C21033384   0.339   7.368   6.134 -0.1157 -0.7564 -0.1366
   58MOL   C21133385   0.342   7.522   6.111  0.3754  0.4911  0.1135
   58MOL   C21233386   0.428   7.599   6.199 -0.7994  0.7645  0.5460
   58MOL   O21333387   0.417   0.041   6.161 -0.0589 -0.1165 -0.9063
   58MOL   C21433388   0.477   0.131   6.244 -0.1555 -0.5137 -0.5256
   58MOL   O21533389   0.406   0.153   6.368 -0.0434 -0.3381 -0.1999
   58MOL   C21633390   0.491   0.265   6.170  0.1444 -0.2999 -0.2150
   58MOL   O21733391   0.618   0.267   6.109 -0.3237 -0.3756 -0.4294
   58MOL   H21833392   0.032   7.381   5.918  1.0761 -1.1230  1.3358
   58MOL   H21933393   0.092   7.393   5.750  1.6150 -0.9525  0.3862
   58MOL   H22033394   0.118   7.134   5.899  0.6875 -1.0808  0.1193
   58MOL   H22133395   0.128   7.151   5.681 -1.1043  1.1596  1.2062
   58MOL   H22233396   0.374   7.201   5.935 -1.0708 -1.8493  0.9585
   58MOL   H22333397   0.327   7.359   5.877  0.7658 -1.2821 -0.8587
   58MOL   H22433398   0.440   7.329   6.127  0.0880  0.0398 -1.9594
   58MOL   H22533399   0.320   7.359   6.241  1.2728 -0.4522  0.1503
   58MOL   H22633400   0.241   7.561   6.119 -0.8726 -3.1001  3.4011
   58MOL   H22733401   0.388   7.540   6.014 -1.0731 -2.1673 -1.1312
   58MOL   H22833402   0.402   7.572   6.301  1.3493 -1.3058  0.5786
   58MOL   H22933403   0.530   7.571   6.174 -0.7865  0.4248  0.9822
   58MOL   H23033404   0.574   0.087   6.268 -0.2988  0.2395  1.5295
   58MOL   H23133405   0.321   0.181   6.338  0.5335  0.7571 -0.8799
   58MOL   H23233406   0.418   0.268   6.089  0.5737 -2.2005 -0.6844
   58MOL   H23333407   0.470   0.349   6.236  1.1573 -0.2090  0.0010
   58MOL   C23433408   0.664   0.381   6.036  0.1554 -0.3510 -0.0223
   58MOL   C23533409   0.802   0.343   5.964 -0.3121 -0.2051 -0.2315
   58MOL   O23633410   0.868   0.460   5.926  0.3110  0.0957 -0.0746
   58MOL   C23733411   0.789   0.245   5.851  0.8201 -0.1025  0.6417
   58MOL   O23833412   0.915   0.194   5.806 -0.1022  0.0807  0.5380
   58MOL   C23933413   0.894   0.059   5.762 -0.0659  1.3956 -0.6405
   58MOL   C24033414   0.819   0.063   5.623  0.5386  0.6727 -0.7375
   58MOL   C24133415   0.804   7.621   5.558 -0.1929  0.3976 -0.2537
   58MOL   O24233416   0.716   7.536   5.641  0.5234 -0.1235 -0.5166
   58MOL   C24333417   0.722   7.402   5.619  0.1054 -0.3047 -0.6328
   58MOL   O24433418   0.681   7.367   5.486 -0.2742 -0.6848  0.4039
   58MOL   C24533419   0.628   7.341   5.728 -0.4865  0.2438  0.4209
   58MOL   O24633420   0.696   7.299   5.843 -1.0572  0.3465  0.2686
   58MOL   H24733421   0.588   0.394   5.959  0.0144  0.8929  0.3197
   58MOL   H24833422   0.665   0.465   6.105 -1.0572 -0.1389 -0.2521
   58MOL   H24933423   0.876   0.298   6.031 -0.7166 -0.6708 -0.0970
   58MOL   H25033424   0.812   0.490   5.855  0.4875  3.7729  1.2735
   58MOL   H25133425   0.716   0.169   5.878 -0.0584  0.1239 -1.0603
   58MOL   H25233426   0.740   0.303   5.772  0.3443  1.3590  1.9710
   58MOL   H25333427   0.833   0.006   5.836  1.4830  0.0732 -0.2797
   58MOL   H25433428   0.989   0.006   5.761  0.4666  2.1865  2.5648
   58MOL   H25533429   0.877   0.124   5.553  0.7848  0.7861 -0.4321
   58MOL   H25633430   0.721   0.110   5.626  1.1973  1.9612  0.8567
   58MOL   H25733431   0.761   7.630   5.458  1.1691  2.4443 -0.6799
   58MOL   H25833432   0.903   7.575   5.551 -0.4207 -0.4747  1.9752
   58MOL   H25933433   0.824   7.366   5.632  0.8358  2.3709  1.6398
   58MOL   H26033434   0.592   7.398   5.472  0.0940  0.6697  0.9830
   58MOL   H26133435   0.550   7.410   5.758  0.2944  0.9565  0.8377
   58MOL   H26233436   0.581   7.257   5.677  1.2382 -0.9102  0.6832
   58MOL   C26333437   0.746   7.415   5.914 -0.1636  0.2672 -0.8795
   58MOL   C26433438   0.795   7.378   6.050 -0.3155  0.7465 -0.5677
   58MOL   O26533439   0.676   7.338   6.127 -0.3017 -0.4044  0.1810
   58MOL   C26633440   0.910   7.273   6.044 -0.0655 -0.1703 -0.2545
   58MOL   O26733441   0.974   7.281   6.168 -0.0679 -0.1483  0.6403
   58MOL   C26833442   1.081   7.192   6.192  0.1705 -0.2432  0.3454
   58MOL   C26933443   1.182   7.269   6.286 -0.2418 -0.3195 -0.5222
   58MOL   C27033444   1.125   7.330   6.411  0.1225  0.1230  0.3454
   58MOL   O27133445   1.225   7.414   6.467  0.2155 -0.7544  0.7947
   58MOL   C27233446   1.189   7.490   6.573  0.3260 -0.2892  0.1661
   58MOL   O27333447   1.165   7.408   6.683 -0.0716  0.5211  0.0448
   58MOL   C27433448   1.307   7.584   6.599  0.2525 -0.9380 -0.3271
   58MOL   O27533449   1.266   0.025   6.600  0.4008  0.0619  0.4980
   58MOL   H27633450   0.672   7.494   5.932  1.0762  1.5817 -1.4607
   58MOL   H27733451   0.825   7.467   5.860  0.9534  1.5336  1.8952
   58MOL   H27833452   0.821   7.476   6.090 -0.2664  0.7783 -0.6784
   58MOL   H27933453   0.628   7.282   6.068  1.1843  0.7333 -2.1418
   58MOL   H28033454   0.870   7.175   6.018  0.6573 -0.2525 -1.0824
   58MOL   H28133455   0.983   7.301   5.968  0.8876  0.8888  1.0215
   58MOL   H28233456   1.130   7.167   6.098 -0.1187 -1.0923  0.4237
   58MOL   H28333457   1.049   7.099   6.237  2.4101 -2.1379 -1.8369
   58MOL   H28433458   1.245   7.337   6.228 -1.7737  1.1288 -0.5512
   58MOL   H28533459   1.259   7.211   6.336 -0.6410 -1.1582 -0.8621
   58MOL   H28633460   1.034   7.381   6.381 -0.1431 -0.8609 -0.5468
   58MOL   H28733461   1.107   7.251   6.483 -0.3905  0.0157  0.1015
   58MOL   H28833462   1.097   7.541   6.547 -0.7229 -1.4905  1.4600
   58MOL   H28933463   1.243   7.396   6.734 -1.5661  2.1716  2.8406
   58MOL   H29033464   1.369   7.553   6.684 -0.5115  0.5180  0.7855
   58MOL   H29133465   1.372   7.575   6.512  0.9477 -0.5607  0.1394
   58MOL   C29233466   1.362   0.124   6.571 -0.1674 -0.1215  0.3654
   58MOL   C29333467   1.443   0.147   6.703  0.1740 -0.5019 -0.0688
   58MOL   O29433468   1.544   0.234   6.669  0.2351 -0.2998  0.0375
   58MOL   C29533469   1.360   0.226   6.801  0.1684 -0.3267 -0.2400
   58MOL   O29633470   1.447   0.251   6.906  0.4686  0.1270 -0.2074
   58MOL   C29733471   1.422   0.349   7.002  0.3195 -0.9120 -0.0739
   58MOL   C29833472   1.417   0.499   6.948 -0.3041 -0.1242 -0.6546
   58MOL   C29933473   1.383   0.618   7.040 -0.3482 -0.9645 -0.6535
   58MOL   O30033474   1.241   0.614   7.059 -0.1365  0.4156  0.3722
   58MOL   C30133475   1.208   0.660   7.181 -0.0999 -0.1844  0.7425
   58MOL   O30233476   1.242   0.793   7.186  0.2476  0.5548  0.9846
   58MOL   C30333477   1.054   0.641   7.184 -0.0990  0.1371 -0.1754
   58MOL   O30433478   1.012   0.631   7.320  0.8073  0.3625 -0.6329
   58MOL   H30533479   1.434   0.098   6.494  1.6097  1.3719  1.4546
   58MOL   H30633480   1.313   0.217   6.539 -0.8720 -0.5134  0.2904
   58MOL   H30733481   1.479   0.054   6.746 -0.9222 -0.6129  0.6070
   58MOL   H30833482   1.550   0.298   6.739  1.2155 -0.6527  0.2762
   58MOL   H30933483   1.345   0.323   6.754  0.1206 -0.8353 -1.2672
   58MOL   H31033484   1.269   0.184   6.844  1.5640 -1.4286  1.7292
   58MOL   H31133485   1.507   0.342   7.070  0.0006  0.4214  0.4832
   58MOL   H31233486   1.331   0.322   7.056  0.1542 -1.1107 -0.4534
   58MOL   H31333487   1.360   0.506   6.856 -3.0421 -0.7769  0.9388
   58MOL   H31433488   1.515   0.527   6.910  0.5819  0.5903  1.9927
   58MOL   H31533489   1.447   0.603   7.126  0.0675 -1.0453 -0.9733
   58MOL   H31633490   1.403   0.714   6.993 -1.7678 -0.8191 -1.0130
   58MOL   H31733491   1.254   0.611   7.267 -0.2266  0.2293  1.0455
   58MOL   H31833492   1.165   0.835   7.150 -0.5966 -2.4361 -0.8570
   58MOL   H31933493   1.044   0.540   7.144 -0.5346 -0.9740  2.6187
   58MOL   H32033494   1.005   0.713   7.118 -0.1951 -0.1721 -0.4440
   58MOL   C32133495   0.888   0.574   7.319  0.8045  0.1407  0.3866
   58MOL   C32233496   0.822   0.570   7.465  0.0200 -0.0175  0.3088
   58MOL   O32333497   0.757   0.693   7.489 -0.4342  0.3080  0.0211
   58MOL   C32433498   0.708   0.463   7.480  0.4650 -0.1810 -0.3411
   58MOL   O32533499   0.754   0.327   7.451  0.1342  0.1812 -0.1858
   58MOL   C32633500   0.652   0.234   7.422  0.8773  0.2099  0.1855
   58MOL   C32733501   0.730   0.105   7.401  0.4480  0.6832 -0.1309
   58MOL   C32833502   0.635   7.677   7.424 -0.7155 -0.2658  0.1323
   58MOL   O32933503   0.670   7.557   7.347 -0.2413  0.4665 -0.3293
   58MOL   C33033504   0.801   7.509   7.364  0.1224 -0.0549 -0.5309
   58MOL   O33133505   0.826   7.463   7.486 -0.1112  0.7338  0.4035
   58MOL   C33233506   0.819   7.398   7.261  0.0364 -0.6560 -0.8897
   58MOL   O33333507   0.832   7.462   7.129  0.3326  0.3370  0.7067
   58MOL   H33433508   0.884   0.473   7.279  0.6914  0.1160  0.4596
   58MOL   H33533509   0.822   0.630   7.253  0.1234 -1.5047 -0.3479
   58MOL   H33633510   0.903   0.547   7.534  0.4035 -0.4844 -0.3003
   58MOL   H33733511   0.782   0.758   7.425 -0.7384 -0.6767 -1.1356
   58MOL   H33833512   0.635   0.489   7.403  0.5456 -1.2173 -0.7847
   58MOL   H33933513   0.671   0.455   7.582 -1.6783  0.2008 -1.0587
   58MOL   H34033514   0.577   0.256   7.347 -1.1896 -0.9280  1.8617
   58MOL   H34133515   0.599   0.207   7.514 -0.0922  0.0954 -0.4051
   58MOL   H34233516   0.771   0.111   7.300  2.5057 -0.2703  0.6264
   58MOL   H34333517   0.821   0.110   7.460 -0.0648 -1.3654  0.8629
   58MOL   H34433518   0.636   7.652   7.530  0.1906 -0.0581  0.1821
   58MOL   H34533519   0.532   0.006   7.400 -0.2927  0.0792 -1.4075
   58MOL   H34633520   0.873   7.587   7.338  0.4513 -0.3645 -0.5570
   58MOL   H34733521   0.754   7.410   7.516  0.2887 -1.4485 -2.2752
   58MOL   H34833522   0.901   7.333   7.290 -0.9259 -0.9073  1.4062
   58MOL   H34933523   0.736   7.327   7.266  0.1284 -0.6243  2.4003
   58MOL   C35033524   0.709   7.464   7.060  0.3669 -0.3136 -0.8272
   58MOL   C35133525   0.720   7.515   6.917  0.1252 -0.2105 -0.2610
   58MOL   O35233526   0.756   7.652   6.923 -0.0861 -0.4759  0.5113
   58MOL   C35333527   0.816   7.447   6.827 -0.3330 -0.6395 -0.0640
   58MOL   O35433528   0.793   7.306   6.819  0.2538  0.0612 -0.0590
   58MOL   C35533529   0.904   7.239   6.764 -0.3010  0.3234  0.5579
   58MOL   C35633530   0.863   7.099   6.707 -0.0876 -0.6361 -0.1044
   58MOL   C35733531   0.960   7.039   6.608 -0.0266  0.1288  0.1762
   58MOL   O35833532   0.942   6.900   6.604 -0.3390  0.1340  0.7652
   58MOL   C35933533   1.007   6.835   6.500  0.8696  0.7016  0.9120
   58MOL   O36033534   1.150   6.833   6.519  0.8076  0.1133  0.4280
   58MOL   C36133535   0.953   6.685   6.498 -0.0180  0.4517 -0.0604
   58MOL   O36233536   0.823   6.671   6.450 -0.0049  0.2220 -0.1648
   58MOL   H36333537   0.650   7.542   7.110  1.2003  0.3127 -0.8056
   58MOL   H36433538   0.645   7.376   7.056  2.2531 -1.8483  1.2539
   58MOL   H36533539   0.623   7.513   6.869 -0.1732 -0.7820  0.3576
   58MOL   H36633540   0.846   7.658   6.950 -0.4073  2.1546  1.2178
   58MOL   H36733541   0.807   7.500   6.732  0.7315  1.3075  0.8952
   58MOL   H36833542   0.916   7.463   6.867  0.7518 -2.6049 -1.8824
   58MOL   H36933543   1.000   7.221   6.814 -0.5038  1.1144  1.2403
   58MOL   H37033544   0.938   7.301   6.681  1.6332 -0.9954  0.3075
   58MOL   H37133545   0.767   7.111   6.657 -0.2337 -1.2215  0.0398
   58MOL   H37233546   0.857   7.033   6.793  0.1606  0.7994  1.0412
   58MOL   H37333547   0.948   7.078   6.507  0.3582 -0.5468 -0.1368
   58MOL   H37433548   1.062   7.046   6.645 -0.3947 -0.8275  1.3987
   58MOL   H37533549   0.977   6.878   6.404 -1.5664  1.0762  1.8109
   58MOL   H37633550   1.170   6.754   6.567  2.8560  0.4244  0.1308
   58MOL   H37733551   1.014   6.614   6.441 -1.7657 -0.8798 -0.3193
   58MOL   H37833552   0.949   6.646   6.599  1.0851 -0.7827 -0.4765
   58MOL   C37933553   0.719   6.708   6.546 -0.8199  0.1160  0.2109
   58MOL   C38033554   0.581   6.653   6.503  0.1966 -0.5978  0.5543
   58MOL   O38133555   0.581   6.516   6.531  0.1982  0.4885 -0.4652
   58MOL   C38233556   0.472   6.726   6.578  0.1569 -0.3839  0.2536
   58MOL   O38333557   0.350   6.664   6.532  0.2290 -0.6384  0.0398
   58MOL   C38433558   0.241   6.701   6.617  0.3890 -0.1089  0.1503
   58MOL   C38533559   0.105   6.670   6.546  0.8470 -0.1737  0.1506
   58MOL   C38633560   7.681   6.683   6.640 -0.9908 -0.9229  0.3545
   58MOL   O38733561   7.659   6.819   6.682 -0.3488 -0.1914  0.2049
   58MOL   C38833562   7.571   6.831   6.786  0.4327  0.5760  0.2580
   58MOL   O38933563   7.631   6.794   6.912  0.8127 -0.2403 -0.1625
   58MOL   C39033564   7.521   6.978   6.793  0.3627 -0.0409  0.8425
   58MOL   O39133565   7.433   6.998   6.683  0.1487  0.6938  0.2003
   58MOL   H39233566   0.720   6.817   6.544  0.0115  0.1032 -0.3075
   58MOL   H39333567   0.755   6.681   6.646  2.9507 -1.2154 -1.4045
   58MOL   H39433568   0.574   6.668   6.395  1.4435  0.4385  0.6029
   58MOL   H39533569   0.495   6.491   6.499 -1.8696  3.6268  2.2742
   58MOL   H39633570   0.483   6.718   6.686 -1.6323  0.2500  0.5095
   58MOL   H39733571   0.469   6.832   6.552 -0.2263 -0.5776 -0.4925
   58MOL   H39833572   0.232   6.806   6.643  0.6387 -0.2700  0.9015
   58MOL   H39933573   0.255   6.646   6.710 -3.2340 -2.0419 -0.3716
   58MOL   H40033574   0.105   6.564   6.519  0.2499  0.0817 -0.8877
   58MOL   H40133575   0.090   6.731   6.456 -0.6060 -0.6203  0.0668
   58MOL   H40233576   7.593   6.652   6.583 -1.8324 -0.0236  1.1366
   58MOL   H40333577   0.005   6.619   6.726  0.9436  0.4034  0.9579
   58MOL   H40433578   7.489   6.759   6.778  0.0936  1.0998 -1.1445
   58MOL   H40533579   7.685   6.867   6.937  1.5050 -0.8726  0.2063
   58MOL   H40633580   7.462   6.996   6.883 -1.3250  0.1266 -0.2723
   58MOL   H40733581   7.605   7.047   6.786  0.1934 -0.0286 -1.1987
   58MOL   C40833582   7.405   7.126   6.648 -0.6425 -0.1061 -1.1598
   58MOL   C40933583   7.310   7.124   6.521  0.9532  0.0728 -0.4684
   58MOL   O41033584   7.383   7.036   6.444  0.1957 -0.6050 -0.4319
   58MOL   C41133585   7.292   7.249   6.440 -0.6158 -0.0853  0.0114
   58MOL   O41233586   7.200   7.333   6.507  0.3812  0.5192 -0.7070
   58MOL   C41333587   7.204   7.469   6.453  0.0393 -0.1313 -0.4116
   58MOL   C41433588   7.091   7.546   6.515  0.2034  0.2070  0.1969
   58MOL   C41533589   6.949   7.500   6.468 -0.5763  0.3584  0.7009
   58MOL   O41633590   6.941   7.529   6.332 -0.0759 -0.1948  0.1525
   58MOL   C41733591   6.883   7.651   6.304 -0.3411  0.4532 -0.7422
   58MOL   O41833592   6.744   7.654   6.338  0.0222  0.5359  0.0262
   58MOL   C41933593   6.928   0.007   6.167 -0.0430  0.4022 -0.4199
   58MOL   O42033594   7.072   0.014   6.158  0.1654  0.0014  0.1352
   58MOL   H42133595   7.492   7.183   6.616 -0.0413 -0.7441 -0.6711
   58MOL   H42233596   7.356   7.171   6.735 -1.2921  0.6775 -1.9112
   58MOL   H42333597   7.208   7.097   6.549  0.5105  2.0068 -0.1697
   58MOL   H42433598   7.414   6.986   6.518 -2.4039  0.6097  1.5230
   58MOL   H42533599   7.387   7.303   6.438 -0.2335 -0.8023 -1.3352
   58MOL   H42633600   7.257   7.224   6.340  1.3298 -0.6259 -0.5569
   58MOL   H42733601   7.296   7.518   6.485 -0.4974 -0.2108  1.2993
   58MOL   H42833602   7.192   7.464   6.345  1.1231  2.1037 -0.6690
   58MOL   H42933603   7.105   7.651   6.487  0.3895 -0.1324 -1.0073
   58MOL   H43033604   7.096   7.539   6.624 -1.6739  2.9958  0.5158
   58MOL   H43133605   6.948   7.391   6.472 -0.4689  0.3089 -0.3602
   58MOL   H43233606   6.874   7.539   6.537 -2.1967 -1.1670 -0.1597
   58MOL   H43333607   6.920   0.030   6.376 -2.5221 -1.0333  1.9848
   58MOL   H43433608   6.703   7.615   6.261 -0.2989  0.2144  0.3557
   58MOL   H43533609   6.898   7.624   6.095 -0.1033 -0.5901  0.6583
   58MOL   H43633610   6.874   0.100   6.150 -0.8545  0.0918  0.3873
   58MOL   C43733611   7.135   0.133   6.208 -0.3543 -0.0093 -0.0909
   58MOL   C43833612   7.292   0.110   6.194 -0.5541 -1.0396  0.2653
   58MOL   O43933613   7.330   7.681   6.261 -0.4225 -0.0114  0.4583
   58MOL   C44033614   7.378   0.228   6.237  0.3329 -1.1284 -0.1048
   58MOL   O44133615   7.388   0.328   6.134  0.8871 -0.1433 -0.0407
   58MOL   C44233616   7.494   0.428   6.157 -0.0687  0.2139 -0.1144
   58MOL   C44333617   7.449   0.537   6.063  0.7673  0.3631  0.8042
   58MOL   C44433618   7.516   0.670   6.090  0.3325  0.1797  0.1967
   58MOL   O44533619   7.492   0.749   5.972  0.2294  0.5564  0.0804
   58MOL   C44633620   7.386   0.838   5.985  0.4271  0.4631 -0.1064
   58MOL   O44733621   7.262   0.769   5.977  0.3428  0.6622  0.1051
   58MOL   C44833622   7.400   0.943   5.873  0.0615  0.3744 -0.0733
   58MOL   O44933623   7.460   1.063   5.919 -0.9895  0.3164  0.2814
   58MOL   H45033624   7.096   0.208   6.139  3.7554 -0.3742 -3.0258
   58MOL   H45133625   7.114   0.156   6.312 -2.3243  0.4394 -0.5738
   58MOL   H45233626   7.302   0.104   6.085  0.4498  0.2570  0.2711
   58MOL   H45333627   7.272   7.618   6.222  0.3850 -0.1913 -0.4668
   58MOL   H45433628   7.378   0.274   6.336  0.8738  0.7872 -0.9758
   58MOL   H45533629   7.476   0.179   6.240  0.6080 -0.5736 -0.0078
   58MOL   H45633630   7.586   0.377   6.129  0.7381  0.7805  1.4764
   58MOL   H45733631   7.498   0.462   6.260  0.9789 -0.5980  0.1301
   58MOL   H45833632   7.343   0.561   6.076  1.2022  1.9891  1.4567
   58MOL   H45933633   7.460   0.511   5.957  1.3881 -2.7780  1.5917
   58MOL   H46033634   7.465   0.714   6.176 -0.6332 -0.9346  0.1963
   58MOL   H46133635   7.624   0.673   6.102  0.4488  0.0233 -0.7909
   58MOL   H46233636   7.391   0.893   6.079 -1.6634  1.0889 -0.3291
   58MOL   H46333637   7.195   0.825   5.939  0.3266  1.1632  0.8564
   58MOL   H46433638   7.443   0.903   5.782  1.1354 -1.3239  1.1606
   58MOL   H46533639   7.297   0.969   5.847 -0.9640 -2.7957  0.6411
   58MOL   C46633640   7.599   1.084   5.893  0.3384 -1.0558  1.2331
   58MOL   C46733641   7.690   1.022   5.993  0.2074  0.3165  0.7727
   58MOL   O46833642   0.033   0.895   5.941 -0.0847  0.7093  0.7335
   58MOL   C46933643   0.112   1.115   6.035  0.1787  0.1392 -0.4027
   58MOL   O47033644   0.116   1.108   6.174 -0.0748 -0.2097 -0.5028
   58MOL   C47133645   0.226   1.166   6.243  0.1844  0.9354  0.1160
   58MOL   C47233646   0.356   1.081   6.256 -0.1216  0.5930 -0.0868
   58MOL   C47333647   0.327   0.973   6.360  0.1307 -0.6830 -0.2739
   58MOL   O47433648   0.361   0.849   6.306  0.2884  0.4611  0.9429
   58MOL   C47533649   0.262   0.771   6.251  0.1575  0.2629  0.1326
   58MOL   O47633650   0.172   0.721   6.345  0.1922 -0.2752 -0.0699
   58MOL   C47733651   0.327   0.654   6.183  1.5450  0.4794 -0.2889
   58MOL   O47833652   0.428   0.697   6.100  0.1055 -0.3498 -0.1467
   58MOL   H47933653   7.609   1.193   5.896 -0.4449 -1.0123  3.2085
   58MOL   H48033654   7.627   1.069   5.789 -2.2542  2.3794 -0.0435
   58MOL   H48133655   7.636   0.996   6.084 -2.2449  2.0176 -0.1474
   58MOL   H48233656   7.656   0.832   5.947 -0.3675  0.8350 -1.0807
   58MOL   H48333657   0.203   1.102   5.976  0.8981  0.7632  0.5517
   58MOL   H48433658   0.086   1.218   6.012  2.0581  1.2496  2.1913
   58MOL   H48533659   0.185   1.205   6.337  1.2831 -0.3409  1.1383
   58MOL   H48633660   0.256   1.258   6.192 -1.4922  2.1338  1.2427
   58MOL   H48733661   0.432   1.156   6.278  0.1384  0.6584 -1.1683
   58MOL   H48833662   0.379   1.035   6.160  2.2286 -1.9875  1.6310
   58MOL   H48933663   0.373   0.996   6.456 -0.2996 -0.8177 -0.0319
   58MOL   H49033664   0.220   0.973   6.381  0.8014  0.7687  3.6765
   58MOL   H49133665   0.209   0.838   6.182 -2.8045 -0.4656  1.6055
   58MOL   H49233666   0.219   0.653   6.392  2.0424  0.1738 -1.1988
   58MOL   H49333667   0.364   0.586   6.259  0.1163 -2.0212 -1.7361
   58MOL   H49433668   0.251   0.598   6.128  3.6029 -3.8252  1.0532
   58MOL   C49533669   0.388   0.697   5.963  0.5582  0.4378 -0.1398
   58MOL   C49633670   0.495   0.764   5.891  0.1040 -0.2508 -0.3884
   58MOL   O49733671   0.607   0.675   5.888 -0.3545 -0.1263 -0.1981
   58MOL   C49833672   0.444   0.786   5.739 -0.3686  0.0956 -0.4132
   58MOL   O49933673   0.344   0.883   5.732  0.5387  0.7434 -0.0112
   58MOL   C50033674   0.305   0.915   5.602 -0.0511 -0.5340  0.5253
   58MOL   C50133675   0.189   1.013   5.610 -0.1670 -0.7052  0.4871
   58MOL   C50233676   0.137   1.050   5.470  0.5441 -0.0680  0.0247
   58MOL   O50333677   0.242   1.081   5.381 -0.5621  0.3416  0.6190
   58MOL   C50433678   0.231   1.037   5.247  0.3138 -0.1480  0.2814
   58MOL   O50533679   0.207   0.903   5.232 -0.0248  0.0398 -0.1075
   58MOL   C50633680   0.359   1.077   5.177 -0.3715  0.5717  0.6419
   58MOL   O50733681   0.470   1.012   5.242 -0.4778  0.1462  0.2740
   58MOL   H50833682   0.294   0.752   5.970 -0.7194 -1.5307 -1.2612
   58MOL   H50933683   0.364   0.597   5.926  0.2715  0.0570  1.0363
   58MOL   H51033684   0.523   0.855   5.944 -2.2033  1.5322 -2.1656
   58MOL   H51133685   0.641   0.687   5.975  0.5057  0.1867 -0.5739
   58MOL   H51233686   0.528   0.831   5.686  1.3230 -1.0568  1.2648
   58MOL   H51333687   0.428   0.695   5.681  0.9314 -1.2860  1.3354
   58MOL   H51433688   0.263   0.824   5.558  1.2516 -1.5125  1.2771
   58MOL   H51533689   0.391   0.957   5.549  0.8519 -0.2501  2.1809
   58MOL   H51633690   0.222   1.105   5.656  0.9779 -1.2921  0.8438
   58MOL   H51733691   0.108   0.975   5.672 -0.5366 -0.1513  0.3394
   58MOL   H51833692   0.076   0.967   5.433 -0.3130  0.3106  0.5711
   58MOL   H51933693   0.062   1.128   5.481  1.2546  0.4941  0.8497
   58MOL   H52033694   0.147   1.092   5.203 -0.4034 -0.7413  0.8865
   58MOL   H52133695   0.287   0.855   5.245  0.4878  1.2696  1.5312
   58MOL   H52233696   0.357   1.045   5.073  0.8770 -1.2844  1.1714
   58MOL   H52333697   0.373   1.185   5.184 -0.1743  0.5774  0.1635
   58MOL   C52433698   0.540   1.102   5.327 -0.1796  0.0386  0.0586
   58MOL   C52533699   0.652   1.022   5.395  1.0133  0.6218  0.4323
   58MOL   O52633700   0.719   1.119   5.477 -0.2895  0.3871  0.5595
   58MOL   C52733701   0.738   0.956   5.290  0.0729 -0.3844 -0.9435
   58MOL   O52833702   0.850   0.901   5.361  0.3614 -0.4309 -0.1394
   58MOL   C52933703   0.955   0.884   5.270  0.7554  0.0082  0.0694
   58MOL   C53033704   0.947   0.770   5.165  0.3539  0.0537  0.1744
   58MOL   C53133705   1.078   0.754   5.079 -0.0293 -0.1809  0.0252
   58MOL   O53233706   1.179   0.725   5.169 -0.0553  0.1984 -0.3670
   58MOL   C53333707   1.299   0.724   5.102  0.1557 -0.2515  0.3395
   58MOL   O53433708   1.340   0.856   5.061  0.0136 -0.1349  0.3551
   58MOL   C53533709   1.400   0.668   5.196  1.0768 -0.5731 -0.2624
   58MOL   O53633710   1.392   0.528   5.206  0.3734  0.6962  0.1757
   58MOL   H53733711   0.480   1.134   5.412 -0.0907  1.1228 -0.2821
   58MOL   H53833712   0.578   1.195   5.286  2.9884 -0.4057  1.7699
   58MOL   H53933713   0.612   0.937   5.450 -3.8067  3.4779  1.6195
   58MOL   H54033714   0.776   1.065   5.531 -0.5381  1.0793  1.5304
   58MOL   H54133715   0.684   0.871   5.249 -0.4710 -0.2619 -0.4858
   58MOL   H54233716   0.766   1.036   5.222 -0.5783  0.2694 -0.4473
   58MOL   H54333717   1.039   0.859   5.335  1.6611 -1.1845 -1.5209
   58MOL   H54433718   0.975   0.980   5.222  0.4260 -0.1090 -0.3030
   58MOL   H54533719   0.867   0.799   5.096  2.5070  0.8574 -2.0545
   58MOL   H54633720   0.931   0.672   5.210  1.4775 -0.8003 -1.2395
   58MOL   H54733721   1.064   0.678   5.002 -0.5125 -0.2789  0.2092
   58MOL   H54833722   1.091   0.847   5.023 -1.0604  0.5957  1.0686
   58MOL   H54933723   1.284   0.678   5.005  1.4508 -1.0166  0.4897
   58MOL   H55033724   1.431   0.867   5.081 -0.1977 -0.9857  1.8108
   58MOL   H55133725   1.502   0.683   5.161  1.0331  2.5743  0.8674
   58MOL   H55233726   1.402   0.732   5.284  1.4525 -1.8320  0.6585
   58MOL   C55333727   1.476   0.468   5.295 -0.0522  0.3047 -0.4543
   58MOL   C55433728   1.459   0.319   5.305  0.6731  0.4871  0.5401
   58MOL   O55533729   1.347   0.281   5.393 -0.1984 -0.1150  0.0425
   58MOL   C55633730   1.590   0.256   5.374  0.1614  0.1728  0.2673
   58MOL   O55733731   1.691   0.237   5.273 -0.0610  0.3419  0.5890
   58MOL   C55833732   1.804   0.162   5.327  0.5277 -0.2081  0.2301
   58MOL   C55933733   1.934   0.150   5.242 -0.6517  0.3074  0.5628
   58MOL   C56033734   1.921   0.054   5.122  0.1239 -0.4602 -0.1120
   58MOL   O56133735   2.055   0.032   5.063  0.3090 -0.6207 -0.3291
   58MOL   C56233736   2.062   7.630   4.963  0.2068  0.1212  0.0092
   58MOL   O56333737   2.028   7.690   4.846 -0.0479  0.4000  0.2269
   58MOL   C56433738   2.207   7.590   4.952 -0.3059  0.2535  0.4239
   58MOL   O56533739   2.282   7.689   4.889 -0.2592  0.2572  0.7022
   58MOL   H56633740   1.455   0.518   5.390 -0.0849 -0.1064 -0.2445
   58MOL   H56733741   1.578   0.500   5.275  0.4999 -1.7755 -1.0651
   58MOL   H56833742   1.449   0.280   5.204  1.1989  1.0184  0.2790
   58MOL   H56933743   1.267   0.289   5.345 -0.8427  0.4407  1.1806
   58MOL   H57033744   1.617   0.318   5.460  0.0179 -0.1495  0.5463
   58MOL   H57133745   1.567   0.156   5.409 -1.7142  0.6689  0.5316
   58MOL   H57233746   1.833   0.231   5.406  1.3234  0.1932 -0.4072
   58MOL   H57333747   1.769   0.066   5.365 -0.2875  0.3419  0.8823
   58MOL   H57433748   2.009   0.096   5.299 -1.6802 -1.2656  0.4516
   58MOL   H57533749   1.954   0.251   5.205  1.3477 -0.8366 -1.6154
   58MOL   H57633750   1.890   7.653   5.163  0.1918 -0.9952 -1.2967
   58MOL   H57733751   1.843   0.080   5.050  1.1242 -0.8191 -1.3353
   58MOL   H57833752   1.993   7.549   4.990  0.4597 -0.8281 -2.0941
   58MOL   H57933753   1.941   0.032   4.855  0.1597  0.8995  0.2333
   58MOL   H58033754   2.243   7.569   5.052 -0.9736 -1.4427  0.3265
   58MOL   H58133755   2.225   7.509   4.881 -1.7849 -0.1069  0.4548
   58MOL   H58233756   2.217   0.045   4.843 -0.2472 -0.5254 -0.1875
   59MOL     C133757   0.733   5.892   3.426  0.0951  0.5547  0.4055
   59MOL     C233758   0.809   6.006   3.497 -0.1023 -1.5803  0.3398
   59MOL     O333759   0.937   5.950   3.530 -0.0185 -0.2074 -0.3202
   59MOL     C433760   0.825   6.132   3.414 -0.5690 -1.3209 -0.7544
   59MOL     O533761   0.859   6.239   3.503 -0.1672  0.5335 -0.1046
   59MOL     C633762   0.932   6.344   3.447  0.6851  0.4719 -0.1598
   59MOL     C733763   0.960   6.461   3.540 -0.3406  0.3561 -0.8669
   59MOL     C833764   1.027   6.573   3.459  0.2030  0.5751  1.0274
   59MOL     O933765   1.100   6.664   3.545 -0.6464  0.5708 -0.1970
   59MOL    C1033766   1.168   6.770   3.485  0.6500 -0.1305 -0.6204
   59MOL    O1133767   1.281   6.718   3.413  0.7009  0.0891  0.4424
   59MOL    C1233768   1.220   6.860   3.595 -0.0426 -0.2966 -0.3561
   59MOL    O1333769   1.115   6.909   3.679 -0.4571  0.2564  0.1480
   59MOL    H1433770   0.782   5.854   3.337 -0.1467 -0.6631  0.7869
   59MOL    H1533771   0.631   5.926   3.405  0.6996  1.4803 -1.1676
   59MOL    H1633772   0.767   6.038   3.593 -2.4137  1.1197 -1.4705
   59MOL    H1733773   0.989   6.021   3.563 -0.5108  0.2796 -0.5719
   59MOL    H1833774   0.902   6.115   3.339 -1.1894  2.6109 -2.3843
   59MOL    H1933775   0.734   6.164   3.364 -0.1062  3.2015  1.0574
   59MOL    H2033776   0.881   6.398   3.367 -0.2424 -0.5896 -0.2923
   59MOL    H2133777   1.026   6.309   3.406  0.7792  0.6739 -0.1205
   59MOL    H2233778   1.035   6.429   3.612 -1.9014  1.0799  1.1343
   59MOL    H2333779   0.870   6.501   3.587  1.7492  0.7700  2.9322
   59MOL    H2433780   1.101   6.524   3.396 -0.6467 -0.5129  0.8612
   59MOL    H2533781   0.958   6.614   3.384 -0.0978 -0.4085  0.7558
   59MOL    H2633782   1.097   6.816   3.417  0.1838 -0.5233 -0.3990
   59MOL    H2733783   1.320   6.790   3.367  0.2643  0.0300 -0.0207
   59MOL    H2833784   1.303   6.824   3.656  0.4729  0.4744 -0.6043
   59MOL    H2933785   1.258   6.948   3.544 -1.4437  1.1541  1.0220
   59MOL    H3033786   0.719   5.811   3.497 -3.6352  0.8437  0.1254
   59MOL    C3133787   1.085   6.832   3.797 -0.1649 -0.0344 -0.9904
   59MOL    C3233788   1.126   6.914   3.918  0.4678  0.4126  0.1689
   59MOL    O3333789   1.267   6.896   3.937  0.0906  0.6112 -0.0398
   59MOL    C3433790   1.063   6.867   4.048 -0.0310 -0.6148  0.0933
   59MOL    O3533791   0.921   6.846   4.047  0.4365 -0.0756  0.4534
   59MOL    C3633792   0.849   6.956   4.090  0.3612  0.6522  0.1747
   59MOL    C3733793   0.702   6.936   4.164 -0.3245  0.2736 -0.1249
   59MOL    C3833794   0.611   7.058   4.150  0.2606  0.7701  0.4259
   59MOL    O3933795   0.477   7.031   4.159  0.3592 -0.2725 -0.0426
   59MOL    C4033796   0.423   7.042   4.288  0.0403 -0.2183  0.7876
   59MOL    O4133797   0.478   6.950   4.377 -0.4969  0.1688 -0.1106
   59MOL    C4233798   0.278   7.003   4.277 -0.8190  0.0589  0.4344
   59MOL    O4333799   0.270   6.863   4.247 -0.2450 -0.5855 -0.3823
   59MOL    H4433800   0.977   6.825   3.793 -0.5110  2.6579  2.1405
   59MOL    H4533801   1.124   6.730   3.793 -2.8657 -1.0633 -2.1275
   59MOL    H4633802   1.107   7.021   3.919 -0.8024  0.2078 -0.9469
   59MOL    H4733803   1.292   6.805   3.943 -0.0356  0.6028  0.4172
   59MOL    H4833804   1.102   6.767   4.065  1.7088 -0.3069 -1.9205
   59MOL    H4933805   1.092   6.924   4.136  1.6801 -0.0998 -0.7892
   59MOL    H5033806   0.818   7.010   4.001 -0.6248  0.4069  0.3671
   59MOL    H5133807   0.915   7.027   4.140 -0.0269  0.6823  0.6465
   59MOL    H5233808   0.714   6.925   4.271  1.6593  1.2114 -0.2388
   59MOL    H5333809   0.665   6.841   4.125  0.9636 -0.4136  0.2878
   59MOL    H5433810   0.649   7.138   4.213  1.4032  0.7520 -0.2224
   59MOL    H5533811   0.610   7.093   4.047 -0.2272 -0.1769  0.1128
   59MOL    H5633812   0.434   7.144   4.326  1.5961  0.2129 -0.7183
   59MOL    H5733813   0.443   6.869   4.345 -0.0220  0.2003 -0.7253
   59MOL    H5833814   0.225   7.029   4.369 -2.6881 -0.6616 -0.4285
   59MOL    H5933815   0.230   7.066   4.203 -0.0640  0.9616  0.6949
   59MOL    C6033816   0.151   6.804   4.298 -0.9993  0.3274 -0.1867
   59MOL    C6133817   0.184   6.759   4.438  0.5506 -0.8324  0.1808
   59MOL    O6233818   0.239   6.630   4.437  0.2490  0.4467 -0.1845
   59MOL    C6333819   0.059   6.744   4.523 -0.5984  0.4160  0.2259
   59MOL    O6433820   0.108   6.721   4.657 -0.0329 -0.1746 -0.7228
   59MOL    C6533821   0.006   6.734   4.753 -0.0429 -0.5733  0.6235
   59MOL    C6633822   0.048   6.818   4.871  0.3528 -0.8241 -0.9251
   59MOL    C6733823   0.166   6.762   4.947 -0.5441 -0.1251  0.0952
   59MOL    O6833824   0.186   6.842   5.066  0.0911 -0.0643  0.4697
   59MOL    C6933825   0.275   6.784   5.152  0.9018 -0.4630 -0.1452
   59MOL    O7033826   0.405   6.797   5.102  0.2172 -0.3975 -0.4018
   59MOL    C7133827   0.263   6.862   5.285 -0.3684  0.2558  0.2400
   59MOL    O7233828   0.319   6.995   5.274 -0.0933 -0.3953 -0.0029
   59MOL    H7333829   0.113   6.723   4.235 -1.5878  0.1639  0.3700
   59MOL    H7433830   0.076   6.883   4.294 -0.4294  0.8075 -1.6305
   59MOL    H7533831   0.253   6.832   4.481 -1.4682  1.0242  0.3900
   59MOL    H7633832   0.254   6.603   4.526 -1.7069  1.8552  0.6229
   59MOL    H7733833   7.691   6.832   4.507  0.7101  0.7037 -4.0527
   59MOL    H7833834   0.002   6.658   4.488 -2.0313  0.9094  1.2875
   59MOL    H7933835   7.661   6.634   4.773 -0.1088 -0.7612 -0.4491
   59MOL    H8033836   7.615   6.788   4.712  0.4271 -0.0599  0.3190
   59MOL    H8133837   7.654   6.820   4.934 -0.3014  0.6572 -1.8657
   59MOL    H8233838   0.072   6.919   4.837 -3.9152  0.9292  1.0264
   59MOL    H8333839   0.252   6.762   4.880 -1.0978  0.1978 -0.6322
   59MOL    H8433840   0.135   6.662   4.977 -1.8793  0.3290  0.2733
   59MOL    H8533841   0.246   6.680   5.166 -1.4312  0.0098 -1.1517
   59MOL    H8633842   0.426   6.888   5.112 -1.1145  0.0925 -1.9371
   59MOL    H8733843   0.156   6.862   5.309 -0.5280  1.2405 -0.4330
   59MOL    H8833844   0.314   6.801   5.358 -3.6108 -0.7556  1.7627
   59MOL    C8933845   0.310   7.074   5.390  0.3517 -0.3972  0.0048
   59MOL    C9033846   0.352   7.222   5.367  0.0130 -0.4457  0.4964
   59MOL    O9133847   0.255   7.264   5.269  0.8836 -0.5341  0.6127
   59MOL    C9233848   0.350   7.317   5.487  0.0078  0.4056  0.1995
   59MOL    O9333849   0.424   7.434   5.461  0.1840 -0.0610  0.2492
   59MOL    C9433850   0.379   7.550   5.535  0.7603 -0.3749 -0.4113
   59MOL    C9533851   0.436   7.688   5.489 -0.2936 -0.5148 -0.0442
   59MOL    C9633852   0.377   0.117   5.560  0.1289  0.1352 -0.0172
   59MOL    O9733853   0.411   0.234   5.487 -0.6378 -0.0186 -0.0156
   59MOL    C9833854   0.391   0.351   5.548 -0.0646  0.2003  0.4277
   59MOL    O9933855   0.475   0.372   5.657  0.5000 -0.4109  0.1562
   59MOL   C10033856   0.394   0.462   5.445  0.1679  0.2271  0.1807
   59MOL   O10133857   0.280   0.436   5.359  0.1908 -0.1945  0.6065
   59MOL   H10233858   0.381   7.032   5.461  0.2001 -0.5809  0.0463
   59MOL   H10333859   0.211   7.083   5.435  0.8981  0.2499  1.0987
   59MOL   H10433860   0.452   7.221   5.323  0.0523  0.9307  0.5536
   59MOL   H10533861   0.253   7.193   5.207 -1.3478 -1.1247  1.3040
   59MOL   H10633862   0.247   7.349   5.503  0.2542  1.8789 -0.9603
   59MOL   H10733863   0.395   7.267   5.572  0.0062  0.3361  0.1600
   59MOL   H10833864   0.399   7.533   5.640 -0.3324  1.5147  0.1134
   59MOL   H10933865   0.271   7.546   5.525  0.7425 -4.2723  0.7641
   59MOL   H11033866   0.444   0.012   5.382  2.1653  3.7228  0.7768
   59MOL   H11133867   0.541   0.009   5.514 -0.7151  2.3872  0.0458
   59MOL   H11233868   0.268   0.117   5.559  0.0901  2.6641 -0.2361
   59MOL   H11333869   0.421   0.113   5.659 -0.5979  1.6808  0.3908
   59MOL   H11433870   0.289   0.352   5.586  0.2241 -4.4963  1.7057
   59MOL   H11533871   0.560   0.392   5.621  0.2115  0.1701 -0.2155
   59MOL   H11633872   0.374   0.553   5.500 -1.1247 -0.6382  1.1848
   59MOL   H11733873   0.481   0.467   5.380  0.8923 -1.0949  1.0066
   59MOL   C11833874   0.249   0.542   5.274  0.2809 -0.2272  0.1773
   59MOL   C11933875   0.327   0.534   5.139  0.6947 -0.3591 -0.1873
   59MOL   O12033876   0.358   0.670   5.100 -0.1757  0.8463 -0.4343
   59MOL   C12133877   0.252   0.463   5.021  0.0719 -0.1409 -0.2091
   59MOL   O12233878   0.134   0.539   4.994  0.3722 -0.6120 -0.1072
   59MOL   C12333879   0.039   0.476   4.914 -0.0177 -0.0797 -0.3743
   59MOL   C12433880   7.615   0.569   4.862  0.4994 -0.2235 -0.4772
   59MOL   C12533881   7.511   0.507   4.768 -0.0074 -0.1218  0.2148
   59MOL   O12633882   7.425   0.422   4.844  0.0714  0.3154  0.0269
   59MOL   C12733883   7.309   0.383   4.789 -0.5830 -0.5313  0.3989
   59MOL   O12833884   7.214   0.492   4.792  0.0672  0.4374 -0.5388
   59MOL   C12933885   7.256   0.262   4.863  0.0615 -0.0517 -0.4396
   59MOL   O13033886   7.311   0.144   4.819 -0.5651  0.3026 -0.1872
   59MOL   H13133887   0.141   0.539   5.263  0.1019  1.9270  1.1311
   59MOL   H13233888   0.272   0.636   5.324  0.1941  1.6493 -3.1746
   59MOL   H13333889   0.419   0.478   5.154 -0.0115 -1.3643  0.4188
   59MOL   H13433890   0.292   0.691   5.037 -1.7903 -1.3350  0.4666
   59MOL   H13533891   0.320   0.466   4.936  0.3886 -0.5972  0.0260
   59MOL   H13633892   0.235   0.357   5.039  2.5865 -0.8258 -1.6029
   59MOL   H13733893   0.000   0.381   4.952  0.4546  0.2546  1.0005
   59MOL   H13833894   0.091   0.447   4.823  1.1875 -0.2689  0.3645
   59MOL   H13933895   7.661   0.653   4.810  0.0112  0.0299 -0.4958
   59MOL   H14033896   7.557   0.623   4.936 -0.1137 -1.1462 -0.2701
   59MOL   H14133897   7.442   0.580   4.726 -0.6569 -0.9136 -0.1041
   59MOL   H14233898   7.559   0.458   4.684 -0.2234  0.1333 -0.0565
   59MOL   H14333899   7.314   0.363   4.682  2.3827 -2.7028  0.8750
   59MOL   H14433900   7.129   0.453   4.779  0.4370 -0.5961  0.0506
   59MOL   H14533901   7.276   0.266   4.970 -2.7395  0.4693  0.1118
   59MOL   H14633902   7.149   0.259   4.840  0.1823  1.2462 -1.2265
   59MOL   C14733903   7.450   0.127   4.867 -0.7204  0.6723 -0.3410
   59MOL   C14833904   7.508   0.022   4.777 -0.5595 -0.0439  0.4220
   59MOL   O14933905   7.464   7.585   4.814  0.5774 -0.5347 -0.1319
   59MOL   C15033906   7.660   0.036   4.781 -0.0660  0.7612 -0.0504
   59MOL   O15133907   0.002   0.119   4.669 -0.0284  0.4903  0.5364
   59MOL   C15233908   0.137   0.124   4.643 -0.6498  0.3457  0.4413
   59MOL   C15333909   0.166   0.227   4.529 -0.2930 -0.6059 -0.5464
   59MOL   C15433910   0.318   0.232   4.509 -0.2567 -0.0763 -0.7975
   59MOL   O15533911   0.362   0.119   4.438 -0.5496  0.3406 -0.1752
   59MOL   C15633912   0.486   0.135   4.375 -0.3013 -0.9176  0.2749
   59MOL   O15733913   0.477   0.239   4.277  0.1902 -0.0743  0.2879
   59MOL   C15833914   0.529   0.003   4.313  0.3296  0.0660 -0.0219
   59MOL   O15933915   0.657   0.007   4.258  0.1134 -0.4412  0.0918
   59MOL   H16033916   7.450   0.089   4.970 -2.4448  1.1283 -0.1600
   59MOL   H16133917   7.516   0.214   4.871 -0.2075  0.2411  0.7318
   59MOL   H16233918   7.480   0.030   4.672 -1.6458  0.7381  0.7626
   59MOL   H16333919   7.374   7.592   4.841  0.7152 -1.1471  0.4969
   59MOL   H16433920   0.002   0.073   4.877  3.5387 -0.3850 -0.8952
   59MOL   H16533921   0.013   7.632   4.770 -0.1998  0.6438  0.4145
   59MOL   H16633922   0.165   0.029   4.598  1.4045  0.7339  0.8772
   59MOL   H16733923   0.202   0.144   4.727 -0.6301  2.9241 -0.1511
   59MOL   H16833924   0.128   0.324   4.562  2.0818  1.1157 -2.7443
   59MOL   H16933925   0.106   0.232   4.438 -1.3755 -0.8526  0.1364
   59MOL   H17033926   0.351   0.319   4.453  0.0317  1.3385  1.5094
   59MOL   H17133927   0.364   0.251   4.606 -3.2147  0.2339  0.5922
   59MOL   H17233928   0.558   0.161   4.453  0.6823 -1.6562 -0.3739
   59MOL   H17333929   0.439   0.211   4.195  1.3849 -0.9944  0.0428
   59MOL   H17433930   0.516   7.619   4.387 -0.7420  0.8429  0.6310
   59MOL   H17533931   0.457   7.683   4.233  1.0775 -1.4649 -0.4358
   59MOL   C17633932   0.702   7.574   4.224 -0.1085 -0.3372  0.1245
   59MOL   C17733933   0.810   7.593   4.119  0.5553 -0.0371  0.6477
   59MOL   O17833934   0.838   7.461   4.056 -0.0685 -0.6323 -0.2479
   59MOL   C17933935   0.938   7.656   4.168 -0.9730  0.6057 -0.1886
   59MOL   O18033936   1.029   7.684   4.066  0.5157  0.6525 -0.5048
   59MOL   C18133937   1.160   0.025   4.099 -0.0518  0.6501  0.2645
   59MOL   C18233938   1.216   0.062   3.958 -0.3511 -0.3305  0.6718
   59MOL   C18333939   1.289   7.640   3.883 -0.4116  0.0598 -0.5251
   59MOL   O18433940   1.344   7.681   3.759  0.1289 -0.6926  1.0314
   59MOL   C18533941   1.480   7.652   3.735 -0.0098 -0.3064 -0.4110
   59MOL   O18633942   1.563   0.040   3.810  0.1133  1.0912 -0.1331
   59MOL   C18733943   1.513   7.665   3.587  0.1088  0.2903  0.2878
   59MOL   O18833944   1.437   7.565   3.516 -0.5616  1.1323  0.0154
   59MOL   H18933945   0.616   7.521   4.184 -0.0826 -0.2087 -0.1042
   59MOL   H19033946   0.739   7.519   4.310 -0.5342 -1.8051 -0.6125
   59MOL   H19133947   0.762   7.654   4.042 -2.8883 -1.1043  1.8381
   59MOL   H19233948   0.852   7.481   3.965  0.5232  1.0237  0.1910
   59MOL   H19333949   0.928   0.057   4.220  2.3395  0.0841  1.5267
   59MOL   H19433950   0.989   7.591   4.239  1.6706  2.1537 -0.6144
   59MOL   H19533951   1.194   7.623   4.136 -0.4826  0.8498  1.1983
   59MOL   H19633952   1.173   0.101   4.176 -2.5175  1.5038 -0.1315
   59MOL   H19733953   1.295   0.137   3.967 -0.3022 -0.4069  0.8816
   59MOL   H19833954   1.134   0.115   3.909 -0.2187 -0.3442  0.4373
   59MOL   H19933955   1.366   7.584   3.937 -0.8580  0.9625  1.0998
   59MOL   H20033956   1.211   7.569   3.856 -0.8351  0.5985 -0.7103
   59MOL   H20133957   1.501   7.554   3.779 -0.8007 -0.8820 -1.3100
   59MOL   H20233958   1.543   0.128   3.781 -1.1695  1.2054  1.0638
   59MOL   H20333959   1.480   0.071   3.560  1.2636  0.5704 -0.1217
   59MOL   H20433960   1.620   7.651   3.572 -0.1149 -1.5326  0.2855
   59MOL   C20533961   1.447   7.579   3.375  0.5622  0.6396 -0.6916
   59MOL   C20633962   1.369   7.467   3.305  0.1111  0.9896  0.1131
   59MOL   O20733963   1.444   7.349   3.324 -0.2952 -0.1273  0.3017
   59MOL   C20833964   1.237   7.440   3.371  0.1267 -0.3768 -0.3451
   59MOL   O20933965   1.162   7.380   3.258 -0.7618  0.3934  0.2247
   59MOL   C21033966   1.025   7.356   3.291  0.9544  0.3157 -0.7852
   59MOL   C21133967   0.964   7.263   3.182  0.0132 -0.6298 -0.1969
   59MOL   C21233968   0.971   7.318   3.032  0.1347 -0.4482 -0.6728
   59MOL   O21333969   0.908   7.239   2.939  0.2236 -0.0107  0.4788
   59MOL   C21433970   0.963   7.121   2.907 -0.1863 -0.3111  0.1254
   59MOL   O21533971   1.084   7.140   2.837 -0.4351 -0.7213  0.0242
   59MOL   C21633972   0.865   7.048   2.825 -0.3631  0.3052 -0.1308
   59MOL   O21733973   0.774   6.959   2.903  0.4215 -0.3015  0.4272
   59MOL   H21833974   1.550   7.579   3.338  0.3690  0.1477 -1.2334
   59MOL   H21933975   1.414   7.681   3.351  0.0561  0.2002 -1.9323
   59MOL   H22033976   1.354   7.477   3.198 -1.4592 -1.1635  0.0924
   59MOL   H22133977   1.445   7.335   3.418  1.2534  2.3683  0.6943
   59MOL   H22233978   1.247   7.372   3.456 -0.8908  0.2593  0.3042
   59MOL   H22333979   1.201   7.540   3.397 -1.0396 -0.7007 -0.6542
   59MOL   H22433980   0.987   7.458   3.302 -0.5582 -0.3187 -0.0202
   59MOL   H22533981   1.011   7.297   3.381  2.1132  0.5500 -0.4371
   59MOL   H22633982   0.860   7.246   3.212  0.9813 -1.8940  2.5381
   59MOL   H22733983   1.014   7.166   3.186  1.6880  0.3125  2.4932
   59MOL   H22833984   0.924   7.417   3.029  1.9251  0.5436  2.1392
   59MOL   H22933985   1.073   7.335   2.998  0.4674  0.3670  0.7063
   59MOL   H23033986   0.990   7.064   2.996  0.6925 -1.4838 -0.8799
   59MOL   H23133987   1.064   7.191   2.760  1.2953  0.0501  0.0578
   59MOL   H23233988   0.802   7.119   2.771  0.8651  0.5530 -1.2607
   59MOL   H23333989   0.907   6.977   2.754 -0.9063 -0.2932  0.1397
   59MOL   C23433990   0.705   7.015   3.012 -0.1049 -0.3393  0.5023
   59MOL   C23533991   0.617   6.903   3.073 -0.2256 -0.7662 -0.6827
   59MOL   O23633992   0.488   6.910   3.023  0.2410 -0.1357  0.2219
   59MOL   C23733993   0.613   6.914   3.231 -0.5592 -0.2284  0.7997
   59MOL   O23833994   0.734   6.871   3.290  0.9611 -0.0205  0.8262
   59MOL   C23933995   0.749   6.906   3.426  0.2958 -0.4072 -0.5022
   59MOL   C24033996   0.804   7.050   3.440 -0.1571  0.0622 -0.2624
   59MOL   C24133997   0.826   7.079   3.589 -0.3321 -0.0666  0.4589
   59MOL   O24233998   0.866   7.214   3.613  0.2661 -0.0795  0.3415
   59MOL   C24333999   0.924   7.237   3.742  0.0744  0.5192 -0.0048
   59MOL   O24434000   0.822   7.228   3.843 -0.1787 -0.4586 -0.2295
   59MOL   C24534001   0.983   7.382   3.736  0.1321 -0.2246  0.2370
   59MOL   O24634002   0.889   7.479   3.710 -0.5242  0.0893 -0.2378
   59MOL   H24734003   0.777   7.055   3.084  0.6680 -0.5113 -0.1789
   59MOL   H24834004   0.641   7.099   2.985 -0.3057 -0.8701 -0.6786
   59MOL   H24934005   0.665   6.808   3.049  0.6940 -0.6017  0.4505
   59MOL   H25034006   0.443   6.831   3.050 -0.5641  0.1669 -0.1913
   59MOL   H25134007   0.591   7.015   3.265 -0.4630  0.4192 -0.9876
   59MOL   H25234008   0.545   6.844   3.280 -0.6803 -0.8427 -0.2236
   59MOL   H25334009   0.819   6.835   3.470  2.8937  0.8737 -2.3900
   59MOL   H25434010   0.657   6.891   3.482  0.5816 -1.0121 -0.1943
   59MOL   H25534011   0.733   7.121   3.399 -0.5335  0.5901  1.2617
   59MOL   H25634012   0.895   7.061   3.382 -1.0982  0.5425 -1.6768
   59MOL   H25734013   0.741   7.046   3.648  0.0801 -1.3273  0.3642
   59MOL   H25834014   0.902   7.013   3.631  0.1330  1.2994  1.7733
   59MOL   H25934015   1.007   7.172   3.768 -0.3012 -0.7777 -1.9122
   59MOL   H26034016   0.762   7.299   3.827  0.5683 -0.0395 -1.2456
   59MOL   H26134017   1.053   7.394   3.818 -1.3487 -0.4713  1.5655
   59MOL   H26234018   1.055   7.386   3.653 -0.0722  2.5182  0.1463
   59MOL   C26334019   0.941   7.606   3.694 -0.3512  0.5230 -0.4014
   59MOL   C26434020   0.825   0.009   3.667 -0.8977  0.7686 -0.3224
   59MOL   O26534021   0.756   0.027   3.792 -0.4263 -0.1679 -0.3455
   59MOL   C26634022   0.852   0.152   3.605 -0.2792 -0.4734  0.1346
   59MOL   O26734023   0.751   0.159   3.503  1.1926 -0.1977  0.0428
   59MOL   C26834024   0.690   0.285   3.471  0.6090 -0.3764  0.3681
   59MOL   C26934025   0.604   0.329   3.590  0.0536 -0.0465 -0.7494
   59MOL   C27034026   0.504   0.447   3.565  0.2906  0.5614  0.2352
   59MOL   O27134027   0.392   0.404   3.492  1.0452 -0.1002 -0.5125
   59MOL   C27234028   0.266   0.400   3.566 -0.1581 -0.1086  0.4064
   59MOL   O27334029   0.199   0.522   3.576  0.4101  0.5423  0.3339
   59MOL   C27434030   0.178   0.288   3.505  0.7119  0.2937  0.5703
   59MOL   O27534031   0.113   0.221   3.611 -0.1684  0.7122 -0.6967
   59MOL   H27634032   1.013   7.618   3.613 -1.0723 -2.5527 -1.5937
   59MOL   H27734033   0.990   7.644   3.783  1.7482 -0.3092 -1.1724
   59MOL   H27834034   0.764   7.647   3.597  1.1080 -1.5808 -0.2300
   59MOL   H27934035   0.667   0.002   3.774 -0.2841  0.6292 -2.2919
   59MOL   H28034036   0.858   0.232   3.678  0.6478 -0.2320 -0.2094
   59MOL   H28134037   0.952   0.151   3.562  0.0106  1.0337  0.7352
   59MOL   H28234038   0.622   0.282   3.385 -0.6399 -0.1077  1.3204
   59MOL   H28334039   0.760   0.364   3.445 -2.1204  1.5054 -1.5334
   59MOL   H28434040   0.679   0.368   3.659  0.2852  1.0911 -1.6410
   59MOL   H28534041   0.558   0.252   3.653  2.6759 -0.4088  0.7967
   59MOL   H28634042   0.475   0.504   3.653  0.2626  2.1523 -0.7734
   59MOL   H28734043   0.554   0.515   3.496 -1.0319  0.4618 -0.8439
   59MOL   H28834044   0.281   0.367   3.668 -1.3158  0.0682  0.6432
   59MOL   H28934045   0.186   0.549   3.486 -1.4532  1.0420  0.7390
   59MOL   H29034046   0.118   0.320   3.420 -0.8036 -2.9057  0.3597
   59MOL   H29134047   0.247   0.216   3.462 -1.4733 -1.6951  0.3187
   59MOL   C29234048   0.092   0.087   3.613 -0.0760 -0.7783  0.3713
   59MOL   C29334049   7.642   0.057   3.668  0.0969 -0.3882  0.2250
   59MOL   O29434050   7.551   0.103   3.567  0.3095 -0.2969 -0.7615
   59MOL   C29534051   7.629   7.601   3.697 -0.0658 -0.2976 -0.4011
   59MOL   O29634052   7.685   7.568   3.818 -0.0475 -0.3089  0.4272
   59MOL   C29734053   7.633   7.444   3.855  0.3183  0.6759  0.4096
   59MOL   C29834054   0.035   7.328   3.813 -0.5138  0.2155 -0.2776
   59MOL   C29934055   7.668   7.191   3.822 -0.4330  0.7977  0.6708
   59MOL   O30034056   7.625   7.166   3.958  0.0219 -0.4275  0.3072
   59MOL   C30134057   7.556   7.045   3.977 -0.8836 -0.4489 -0.3679
   59MOL   O30234058   7.636   6.931   3.971 -0.2040  0.0318  0.0232
   59MOL   C30334059   7.489   7.053   4.112 -0.2418  0.5564  0.3363
   59MOL   O30434060   7.354   7.099   4.092  0.0443  0.4119  0.2198
   59MOL   H30534061   0.098   0.038   3.516 -0.7766 -0.8315  0.3568
   59MOL   H30634062   0.169   0.044   3.678  0.1539  1.5146  1.6960
   59MOL   H30734063   7.631   0.114   3.761 -0.6517 -1.5084  0.8316
   59MOL   H30834064   7.579   0.193   3.560 -0.7874  0.1189  0.0703
   59MOL   H30934065   7.522   7.580   3.689 -0.9395  4.2833 -2.0946
   59MOL   H31034066   7.676   7.540   3.620  2.0480  1.6340 -0.7042
   59MOL   H31134067   7.534   7.427   3.813  0.5615 -1.6458  0.7298
   59MOL   H31234068   7.626   7.453   3.964  0.4341  0.5757  0.4249
   59MOL   H31334069   0.124   7.331   3.876 -0.8194  2.4762  0.0825
   59MOL   H31434070   0.064   7.356   3.712 -2.0079  2.6252 -0.0932
   59MOL   H31534071   7.583   7.187   3.754  0.6411  2.2339 -0.7911
   59MOL   H31634072   0.054   7.122   3.795 -0.0251  0.4608  2.6552
   59MOL   H31734073   7.478   7.043   3.900 -1.0676  3.3948 -0.3695
   59MOL   H31834074   7.654   6.922   3.878 -0.3547  0.4902 -0.0515
   59MOL   H31934075   7.538   7.124   4.179 -0.7612  1.8971 -0.6826
   59MOL   H32034076   7.488   6.951   4.150  2.2192  0.7252  0.9838
   59MOL   C32134077   7.333   7.236   4.066  0.3030  0.7391 -0.1471
   59MOL   C32234078   7.204   7.253   4.142  0.1166 -0.5415 -0.0754
   59MOL   O32334079   7.231   7.258   4.283  0.6930  0.2106  0.1930
   59MOL   C32434080   7.142   7.386   4.104  0.6123 -0.5153  0.1104
   59MOL   O32534081   7.009   7.382   4.154  0.9103  0.2251 -0.1000
   59MOL   C32634082   6.926   7.493   4.115 -0.2748 -0.4401 -0.6516
   59MOL   C32734083   6.775   7.487   4.147  0.3009  0.2569  0.5128
   59MOL   C32834084   6.746   7.466   4.294  0.0098  0.4176 -0.1105
   59MOL   O32934085   6.610   7.442   4.309 -0.0075  0.1638  0.7674
   59MOL   C33034086   6.571   7.404   4.443 -0.1934 -1.3011 -0.4031
   59MOL   O33134087   6.497   7.500   4.505  0.0564 -0.7492  0.0272
   59MOL   C33234088   6.492   7.271   4.438 -0.8904 -0.5582  0.0964
   59MOL   O33334089   6.371   7.285   4.361 -0.1511  0.0312 -0.5778
   59MOL   H33434090   7.313   7.247   3.960 -2.3632  0.6653  0.3210
   59MOL   H33534091   7.414   7.307   4.079  0.6523  0.3401 -0.1327
   59MOL   H33634092   7.126   7.181   4.117 -0.4626  0.2514 -0.5857
   59MOL   H33734093   7.318   7.229   4.302  1.5919 -0.5095 -4.3580
   59MOL   H33834094   7.138   7.396   3.996 -0.1792 -0.1296  0.1691
   59MOL   H33934095   7.204   7.468   4.140 -1.1708  1.1161 -0.4047
   59MOL   H34034096   6.935   7.503   4.007  2.2367  0.6247 -0.3649
   59MOL   H34134097   6.970   7.585   4.153  1.2596 -1.4604  0.1221
   59MOL   H34234098   6.723   7.579   4.120 -2.1995 -1.2196  0.1372
   59MOL   H34334099   6.734   7.405   4.087 -1.6099 -0.5573  2.8496
   59MOL   H34434100   6.796   7.378   4.336 -0.6238 -0.7357 -1.7160
   59MOL   H34534101   6.755   7.553   4.360 -1.4392  0.0747  0.5704
   59MOL   H34634102   6.658   7.378   4.503  1.1821 -1.0172 -2.2415
   59MOL   H34734103   6.437   7.537   4.442  1.2860  0.1145 -0.6336
   59MOL   H34834104   6.555   7.188   4.406  0.7728 -0.1976  2.2922
   59MOL   H34934105   6.473   7.248   4.543  1.5729  0.5826  0.8333
   59MOL   C35034106   6.374   7.248   4.225 -0.0870  0.4013 -0.6452
   59MOL   C35134107   6.232   7.222   4.186  0.1163 -0.1944  0.7711
   59MOL   O35234108   6.150   7.338   4.182 -0.3322  0.2003 -0.1339
   59MOL   C35334109   6.244   7.187   4.040 -0.2480  0.3907  0.4382
   59MOL   O35434110   6.295   7.289   3.960  0.3977 -0.2407  0.5350
   59MOL   C35534111   6.277   7.251   3.824 -0.2544  0.3290 -1.0469
   59MOL   C35634112   6.344   7.357   3.731 -0.0219  0.5915  0.4044
   59MOL   C35734113   6.309   7.358   3.577  0.0191  0.7332 -0.1372
   59MOL   O35834114   6.340   7.234   3.513 -0.0159  0.3374 -0.1084
   59MOL   C35934115   6.322   7.229   3.373 -0.1538  1.3920 -0.2607
   59MOL   O36034116   6.439   7.275   3.309  0.1711 -0.6179 -0.4376
   59MOL   C36134117   6.290   7.089   3.326 -0.7716  0.2372 -0.0628
   59MOL   O36234118   6.392   7.002   3.369  0.1994 -0.2049  0.3093
   59MOL   H36334119   6.431   7.156   4.215  0.9516  1.1174 -1.4058
   59MOL   H36434120   6.417   7.332   4.170 -0.5955  2.8923  2.5959
   59MOL   H36534121   6.186   7.145   4.248 -2.0267 -0.2935 -0.8812
   59MOL   H36634122   6.181   7.369   4.099 -0.9162 -0.7827 -0.7285
   59MOL   H36734123   6.307   7.098   4.031  1.3883  1.3419  2.0612
   59MOL   H36834124   6.147   7.143   4.019 -0.0712 -0.4814  1.3780
   59MOL   H36934125   6.176   7.255   3.783 -1.0756  2.2751  1.0290
   59MOL   H37034126   6.327   7.155   3.813  0.7975  0.7432  0.0184
   59MOL   H37134127   6.453   7.357   3.730 -0.0197  1.8396 -0.4208
   59MOL   H37234128   6.317   7.456   3.768 -0.4312 -0.1417  2.1074
   59MOL   H37334129   6.200   7.349   3.573  0.0613 -0.7203  1.6170
   59MOL   H37434130   6.347   7.444   3.522 -1.7959  1.7626  0.1854
   59MOL   H37534131   6.241   7.299   3.350 -1.6327 -0.3841 -0.5974
   59MOL   H37634132   6.504   7.208   3.323  0.7363  0.3167  1.6349
   59MOL   H37734133   6.194   7.067   3.371 -1.0134  1.1648 -0.1177
   59MOL   H37834134   6.293   7.093   3.217  0.3044  1.3077 -0.0052
   59MOL   C37934135   6.363   6.935   3.485  0.0473  0.4513 -0.0260
   59MOL   C38034136   6.495   6.918   3.565  0.3910 -0.2325  0.5692
   59MOL   O38134137   6.512   7.038   3.638 -0.1744 -0.0572 -0.1007
   59MOL   C38234138   6.497   6.798   3.665 -0.2513 -0.2187  0.0186
   59MOL   O38334139   6.491   6.683   3.583 -0.1873 -0.0907 -0.1037
   59MOL   C38434140   6.467   6.568   3.664  0.2872 -0.4511  0.3470
   59MOL   C38534141   6.459   6.451   3.582  0.0070 -0.2537 -0.8829
   59MOL   C38634142   6.456   6.316   3.653  0.2591  0.6055  0.1041
   59MOL   O38734143   6.580   6.263   3.646 -0.7267  1.0432 -0.2619
   59MOL   C38834144   6.660   6.281   3.757 -0.4726 -0.6798 -0.4249
   59MOL   O38934145   6.618   6.216   3.874 -0.2327 -0.3176  0.7159
   59MOL   C39034146   6.790   6.231   3.716  0.3697  0.0147  0.5118
   59MOL   O39134147   6.791   6.090   3.708 -0.0101  0.4454  0.0899
   59MOL   H39234148   6.335   6.832   3.462  0.4812  0.3906 -0.2779
   59MOL   H39334149   6.283   6.981   3.544 -0.6761  0.7741 -1.2381
   59MOL   H39434150   6.580   6.919   3.496  0.3173 -1.5165  0.4465
   59MOL   H39534151   6.459   7.096   3.587  1.6105  0.1943 -1.6892
   59MOL   H39634152   6.581   6.798   3.734 -1.9360  0.0137  2.1101
   59MOL   H39734153   6.406   6.804   3.725  0.2317 -1.5002  0.8901
   59MOL   H39834154   6.367   6.573   3.706  0.7266  1.4685  1.2301
   59MOL   H39934155   6.541   6.567   3.743 -0.2615 -2.1730  0.8485
   59MOL   H40034156   6.537   6.444   3.507  1.5383 -1.1816  0.7486
   59MOL   H40134157   6.365   6.455   3.527 -1.3934 -0.4483  1.4386
   59MOL   H40234158   6.414   6.334   3.752  1.7694 -0.8450  1.0261
   59MOL   H40334159   6.382   6.253   3.602  0.0859  0.7727  0.1474
   59MOL   H40434160   6.671   6.389   3.772  1.9913 -0.8263 -0.9941
   59MOL   H40534161   6.669   6.136   3.875  0.6201  0.2134  1.6538
   59MOL   H40634162   6.821   6.272   3.620  1.1250 -2.2501 -0.2409
   59MOL   H40734163   6.864   6.258   3.791  1.0811  4.1256 -1.5200
   59MOL   C40834164   6.928   6.039   3.696  0.3504  0.6243  0.0934
   59MOL   C40934165   6.930   5.899   3.629 -0.6189  0.9368  0.5920
   59MOL   O41034166   7.051   5.832   3.667 -0.2362 -0.2577  0.5840
   59MOL   C41134167   6.943   5.914   3.477  0.7003  0.2134 -0.1950
   59MOL   O41234168   6.908   5.787   3.418 -0.4245  0.0650 -0.2033
   59MOL   C41334169   6.937   5.784   3.283  0.0441 -0.1812  0.1709
   59MOL   C41434170   6.833   5.862   3.197  0.2422 -0.1577  0.4484
   59MOL   C41534171   6.860   5.850   3.049 -0.2751  0.3830  0.2672
   59MOL   O41634172   6.988   5.906   3.032  0.0852 -0.0381 -0.1031
   59MOL   C41734173   7.047   5.894   2.902 -0.0045 -0.0331  0.4014
   59MOL   O41834174   7.062   5.762   2.855  0.1810 -0.5193  0.2639
   59MOL   C41934175   7.183   5.974   2.894 -0.1517 -0.7443  0.5088
   59MOL   O42034176   7.155   6.113   2.882 -0.0521 -0.5204 -0.1654
   59MOL   H42134177   6.963   6.026   3.798  0.3321 -0.0053  0.0184
   59MOL   H42234178   7.002   6.107   3.654 -0.6448  1.8382  0.2476
   59MOL   H42334179   6.845   5.835   3.651  1.7496 -2.3731  0.3565
   59MOL   H42434180   7.064   5.752   3.619 -0.5391 -0.0984  0.2292
   59MOL   H42534181   6.882   5.996   3.440 -1.2795 -1.5965 -1.0463
   59MOL   H42634182   7.039   5.955   3.444  1.6973 -1.6164  0.3438
   59MOL   H42734183   7.038   5.822   3.263 -0.5986  2.1845  1.2725
   59MOL   H42834184   6.934   5.680   3.250 -0.6837  0.2440 -1.1452
   59MOL   H42934185   6.835   5.968   3.222  0.1249 -0.1731  0.5222
   59MOL   H43034186   6.733   5.822   3.217  0.2269 -0.8887 -1.0080
   59MOL   H43134187   6.863   5.746   3.015  0.9298 -0.1332  1.8846
   59MOL   H43234188   6.784   5.900   2.989  1.8045  0.0294 -2.7817
   59MOL   H43334189   6.977   5.937   2.831 -1.4181 -0.6384  1.4062
   59MOL   H43434190   7.120   5.718   2.916  2.3983  1.0970 -0.6336
   59MOL   H43534191   7.253   5.964   2.977  0.9870  0.6733 -0.2622
   59MOL   H43634192   7.235   5.951   2.801 -0.2170  0.1496  0.2504
   59MOL   C43734193   7.123   6.179   3.005 -0.3768 -0.2627 -0.4474
   59MOL   C43834194   7.181   6.324   3.006  0.2424 -0.7715  0.3170
   59MOL   O43934195   7.140   6.384   3.128  0.1578 -0.2023 -0.1081
   59MOL   C44034196   7.127   6.410   2.893 -0.1630  0.3387 -0.1936
   59MOL   O44134197   7.202   6.530   2.898  0.1341  0.1950 -0.6278
   59MOL   C44234198   7.162   6.631   2.808 -0.1904 -0.1516 -0.2521
   59MOL   C44334199   7.243   6.760   2.835  0.3261  0.8682  0.0163
   59MOL   C44434200   7.189   6.880   2.752  0.7639  0.2291  0.2619
   59MOL   O44534201   7.233   7.000   2.809  0.3342  0.0119 -0.6649
   59MOL   C44634202   7.185   7.112   2.735 -0.3629 -0.4955 -0.2720
   59MOL   O44734203   7.282   7.215   2.757  0.7909 -0.6926 -0.0187
   59MOL   C44834204   7.051   7.149   2.788  0.1638  0.3967 -0.0363
   59MOL   O44934205   6.950   7.080   2.714 -0.4055 -0.3367  0.1735
   59MOL   H45034206   7.014   6.184   3.012 -0.4415 -1.3363 -0.6148
   59MOL   H45134207   7.147   6.110   3.086  2.4778  1.3209  0.1221
   59MOL   H45234208   7.289   6.313   2.997 -0.1741 -3.5103 -2.1138
   59MOL   H45334209   7.147   6.478   3.117  0.3843 -0.0825  0.9673
   59MOL   H45434210   7.133   6.363   2.796 -1.8397  1.2838 -0.7739
   59MOL   H45534211   7.024   6.441   2.915  0.8232  2.1763  2.1518
   59MOL   H45634212   7.056   6.657   2.812 -0.2562 -0.3957 -0.4574
   59MOL   H45734213   7.167   6.587   2.709  1.0559 -2.0767  0.6309
   59MOL   H45834214   7.345   6.725   2.815 -1.2195 -3.4601 -0.8831
   59MOL   H45934215   7.240   6.778   2.942  0.0595  3.3962 -0.3950
   59MOL   H46034216   7.230   6.871   2.652 -0.9197  0.4222 -0.4549
   59MOL   H46134217   7.081   6.882   2.742  0.4810  0.6971  2.8836
   59MOL   H46234218   7.184   7.095   2.627  0.1007 -2.2268 -0.0209
   59MOL   H46334219   7.343   7.211   2.684 -0.5304 -3.0392 -1.0652
   59MOL   H46434220   7.045   7.133   2.895  0.3377  0.9548  0.0623
   59MOL   H46534221   7.036   7.256   2.772 -0.0559  0.0763 -2.1511
   59MOL   C46634222   6.818   7.085   2.771 -0.1999 -0.6439 -0.2737
   59MOL   C46734223   6.735   7.217   2.745 -0.5619  0.5460 -0.2345
   59MOL   O46834224   6.673   7.213   2.618 -0.6385 -0.4474 -0.3400
   59MOL   C46934225   6.618   7.252   2.840 -0.4633  0.0146 -0.0166
   59MOL   O47034226   6.535   7.141   2.850  0.2463 -0.4711 -0.9800
   59MOL   C47134227   6.435   7.147   2.945 -0.3434 -0.2649 -0.0593
   59MOL   C47234228   6.394   6.997   2.969  0.9569 -0.8609  0.3446
   59MOL   C47334229   6.489   6.915   3.048  0.1492 -0.3344 -0.1589
   59MOL   O47434230   6.416   6.811   3.102 -0.2059  0.2798 -0.4346
   59MOL   C47534231   6.498   6.718   3.167  0.0150 -0.4292 -0.2806
   59MOL   O47634232   6.567   6.633   3.082  0.2736  0.2702 -0.3769
   59MOL   C47734233   6.397   6.631   3.242 -0.8344 -0.1003 -0.1788
   59MOL   O47834234   6.344   6.539   3.154 -0.3501  0.6335 -0.3081
   59MOL   H47934235   6.826   7.054   2.875  0.9417  2.4498  0.6347
   59MOL   H48034236   6.767   7.001   2.724 -2.1200  0.3972 -0.1044
   59MOL   H48134237   6.807   7.298   2.752  1.5327 -1.1181 -1.9751
   59MOL   H48234238   6.663   7.122   2.592 -0.7119 -0.7507  0.7318
   59MOL   H48334239   6.650   7.272   2.942  0.9721  1.4289 -0.7196
   59MOL   H48434240   6.555   7.333   2.804 -2.5610  0.3324  4.0916
   59MOL   H48534241   6.350   7.207   2.910  1.4044  1.6109 -1.2067
   59MOL   H48634242   6.455   7.190   3.043  0.2952  0.8241 -0.6549
   59MOL   H48734243   6.372   6.951   2.873  0.1095 -0.7543  0.4880
   59MOL   H48834244   6.296   7.002   3.015  0.9493  1.1907  0.1387
   59MOL   H48934245   6.572   6.876   2.988 -0.0983  1.1301 -1.4995
   59MOL   H49034246   6.537   6.973   3.127  0.7590 -1.3013  0.1877
   59MOL   H49134247   6.568   6.768   3.234  1.6510 -0.1951 -2.1275
   59MOL   H49234248   6.503   6.564   3.073  1.2726 -1.5485  4.6889
   59MOL   H49334249   6.460   6.585   3.318 -2.8476  0.0351  1.6009
   59MOL   H49434250   6.315   6.685   3.289 -0.8230 -0.1417 -0.1118
   59MOL   C49534251   6.279   6.443   3.222  0.2776  0.6877 -0.1210
   59MOL   C49634252   6.224   6.332   3.137  0.1682  0.2790 -0.1079
   59MOL   O49734253   6.328   6.238   3.116 -0.0549 -0.2091  0.6161
   59MOL   C49834254   6.108   6.247   3.184 -0.2176  0.2839 -0.1848
   59MOL   O49934255   6.139   6.202   3.319 -0.4745 -0.4456  0.5600
   59MOL   C50034256   6.043   6.116   3.371 -0.1740  0.3560 -0.0293
   59MOL   C50134257   6.071   6.101   3.518  1.1493 -0.0000 -0.5366
   59MOL   C50234258   5.947   6.025   3.578  0.2585  0.6051  1.0249
   59MOL   O50334259   5.965   6.044   3.719  0.1806 -0.4868 -0.7149
   59MOL   C50434260   5.890   5.979   3.807  0.3991 -0.0114 -0.6673
   59MOL   O50534261   5.752   5.990   3.789 -0.2942  0.7298 -0.2860
   59MOL   C50634262   5.938   5.997   3.957  1.3789 -0.5693 -0.2428
   59MOL   O50734263   5.931   6.127   4.007  0.0055  0.0276  0.2932
   59MOL   H50834264   6.191   6.491   3.266  1.0742  1.8889  0.1965
   59MOL   H50934265   6.335   6.399   3.305 -1.1476 -1.3024 -0.1730
   59MOL   H51034266   6.190   6.381   3.046 -0.6645  0.1644  0.1296
   59MOL   H51134267   6.350   6.202   3.201 -0.9387  0.7124  1.2529
   59MOL   H51234268   6.018   6.309   3.186 -1.5255 -1.5786  0.9183
   59MOL   H51334269   6.089   6.159   3.122 -1.3670 -0.0493  0.6162
   59MOL   H51434270   6.045   6.021   3.318  0.2046 -0.3871  1.2745
   59MOL   H51534271   5.941   6.154   3.363  0.3708  1.4538 -2.0408
   59MOL   H51634272   6.089   6.194   3.572 -1.4451  0.3184 -0.1580
   59MOL   H51734273   6.151   6.030   3.536 -0.8281 -1.5580  2.6189
   59MOL   H51834274   5.851   6.059   3.538  0.6257  1.0469  0.5074
   59MOL   H51934275   5.948   5.919   3.552  3.5817  0.1741  2.6103
   59MOL   H52034276   5.906   5.874   3.786  1.7339  0.1315 -0.4298
   59MOL   H52134277   5.718   6.068   3.830  0.4440 -0.0876  1.9833
   59MOL   H52234278   5.881   5.922   4.012  1.0704 -0.3027 -0.2011
   59MOL   H52334279   6.040   5.959   3.963  1.1741 -1.4714 -2.1453
   59MOL   C52434280   6.045   6.204   3.970 -0.6439 -0.4691  0.2296
   59MOL   C52534281   6.072   6.311   4.076 -0.6724 -0.6475 -0.7783
   59MOL   O52634282   6.183   6.388   4.053  0.0259  0.2658 -0.5236
   59MOL   C52734283   6.081   6.254   4.217  0.3726  0.0375 -0.1958
   59MOL   O52834284   6.129   6.364   4.300  0.5056  0.1438 -0.2670
   59MOL   C52934285   6.159   6.313   4.426 -0.5763 -0.1665 -0.1184
   59MOL   C53034286   6.250   6.406   4.495 -0.0718 -0.7200 -0.4218
   59MOL   C53134287   6.318   6.365   4.630  0.3256 -0.4372 -0.1909
   59MOL   O53234288   6.419   6.457   4.655 -0.0672 -0.3271 -0.0202
   59MOL   C53334289   6.447   6.479   4.786 -0.2860 -0.2619 -0.7852
   59MOL   O53434290   6.524   6.381   4.845 -0.7987 -0.1543  0.2483
   59MOL   C53534291   6.525   6.614   4.801  0.4360  0.3143 -0.5216
   59MOL   O53634292   6.433   6.710   4.829  0.7099 -0.7129 -0.0693
   59MOL   H53734293   6.026   6.251   3.873  0.6832 -0.9871 -0.2860
   59MOL   H53834294   6.137   6.147   3.955 -0.0496  0.2571  1.1136
   59MOL   H53934295   5.994   6.387   4.069  0.0857  0.0653 -1.7991
   59MOL   H54034296   6.216   6.418   4.136  2.2594  2.8406 -2.2479
   59MOL   H54134297   5.978   6.237   4.245  0.9140  0.2094  1.9717
   59MOL   H54234298   6.135   6.159   4.218  0.5504  0.1407  1.3809
   59MOL   H54334299   6.215   6.220   4.414  0.6492  0.4264  0.8805
   59MOL   H54434300   6.072   6.290   4.487 -0.8860  4.6123  1.4720
   59MOL   H54534301   6.209   6.506   4.513  1.4157 -0.4853  1.8259
   59MOL   H54634302   6.328   6.420   4.421 -0.3849  3.4311 -0.0829
   59MOL   H54734303   6.239   6.356   4.704  0.5910 -0.4324  0.0968
   59MOL   H54834304   6.349   6.261   4.617 -0.3083 -0.6115 -0.2992
   59MOL   H54934305   6.352   6.480   4.839 -0.5398  1.6657 -1.2175
   59MOL   H55034306   6.487   6.366   4.931  1.1095  3.3848  1.8167
   59MOL   H55134307   6.579   6.607   4.895 -0.4636 -3.2094 -0.1907
   59MOL   H55234308   6.588   6.627   4.713  0.6365  0.9586 -0.2823
   59MOL   C55334309   6.376   6.766   4.711  0.4729  0.0812  0.9984
   59MOL   C55434310   6.279   6.887   4.739 -1.5224 -0.1971 -0.4940
   59MOL   O55534311   6.195   6.909   4.628 -0.6127  0.1756 -0.1810
   59MOL   C55634312   6.344   7.019   4.792 -0.0206 -0.8376  0.0513
   59MOL   O55734313   6.252   7.123   4.826 -0.3556 -0.0062  0.0005
   59MOL   C55834314   6.143   7.091   4.911 -0.5235  0.4957  0.3635
   59MOL   C55934315   6.198   7.054   5.052  0.4261 -0.7211 -0.3837
   59MOL   C56034316   6.078   7.021   5.148  0.4652  0.4944 -0.1184
   59MOL   O56134317   6.112   6.981   5.280 -0.5347  0.2058  0.3635
   59MOL   C56234318   6.009   6.950   5.369  0.0366  0.3507 -0.0219
   59MOL   O56334319   5.935   6.837   5.322 -0.1951  0.2237 -0.0004
   59MOL   C56434320   6.070   6.903   5.497  0.1872  0.6280  0.8172
   59MOL   O56534321   6.153   6.787   5.482  0.0858  0.6301  0.4713
   59MOL   H56634322   6.324   6.693   4.650  1.9365 -0.6598  0.6079
   59MOL   H56734323   6.454   6.804   4.644 -0.0545 -1.7536 -0.7209
   59MOL   H56834324   6.221   6.850   4.824  1.3038 -1.8667  0.7829
   59MOL   H56934325   6.137   6.980   4.649 -1.7783 -1.0655  0.8810
   59MOL   H57034326   6.400   7.000   4.884 -0.0869 -0.0851  0.2465
   59MOL   H57134327   6.418   7.065   4.726 -1.1562  3.8741  1.9058
   59MOL   H57234328   6.071   7.172   4.901 -0.4424  0.3628 -1.4272
   59MOL   H57334329   6.094   7.006   4.864  1.8608 -0.5190 -0.4008
   59MOL   H57434330   6.249   7.143   5.088 -2.1657 -0.2347  2.2517
   59MOL   H57534331   6.276   6.978   5.051  2.6695  1.5132 -2.2568
   59MOL   H57634332   6.014   7.109   5.156 -0.0101  0.4061 -2.7525
   59MOL   H57734333   6.001   6.953   5.112 -0.6949  1.3992  0.6111
   59MOL   H57834334   5.946   7.039   5.373  0.4950  0.6527  0.4733
   59MOL   H57934335   5.999   6.768   5.332  0.2753  0.6383 -0.0997
   59MOL   H58034336   6.127   6.980   5.550  1.1819 -1.0373  2.2082
   59MOL   H58134337   5.986   6.882   5.563 -2.3446  3.4281 -1.3697
   59MOL   H58234338   6.222   6.809   5.421  0.0854  0.7297  0.5058
   60MOL     C134339   5.628   5.282   6.234  0.0736  0.0491  0.8347
   60MOL     C234340   5.732   5.239   6.341 -0.0607 -0.0122 -0.0513
   60MOL     O334341   5.853   5.197   6.286  0.6261 -0.2814 -0.3621
   60MOL     C434342   5.762   5.353   6.440 -0.3137 -0.1873  0.5898
   60MOL     O534343   5.646   5.409   6.503  0.7658  0.5721  0.1629
   60MOL     C634344   5.684   5.535   6.555 -0.0865  0.0820  0.7720
   60MOL     C734345   5.560   5.612   6.613 -0.2985 -0.2908 -0.0577
   60MOL     C834346   5.606   5.752   6.655 -0.6980  0.6920 -0.4979
   60MOL     O934347   5.505   5.834   6.722 -0.3679  0.3416 -0.0764
   60MOL    C1034348   5.558   5.952   6.783 -0.4152  0.3347  0.0493
   60MOL    O1134349   5.631   5.922   6.899 -0.2214  1.0757  0.8862
   60MOL    C1234350   5.437   6.035   6.834 -0.2863  0.7508 -0.0867
   60MOL    O1334351   5.374   6.093   6.726  0.3025  0.7756 -0.1393
   60MOL    H1434352   5.686   5.316   6.148  1.4799 -1.4966  1.1479
   60MOL    H1534353   5.543   5.346   6.257  0.2077  0.8505 -0.8142
   60MOL    H1634354   5.694   5.147   6.386  0.9538 -0.1819  0.4566
   60MOL    H1734355   5.887   5.266   6.232  2.9780 -0.9052  0.2733
   60MOL    H1834356   5.831   5.322   6.518 -2.7756 -3.2684  1.6488
   60MOL    H1934357   5.818   5.427   6.383 -2.0795  0.0545 -0.8905
   60MOL    H2034358   5.729   5.585   6.469 -2.7584  1.6098  0.2128
   60MOL    H2134359   5.753   5.523   6.639  0.3042  0.4978  0.5168
   60MOL    H2234360   5.517   5.553   6.694 -0.5701 -0.5419 -0.3823
   60MOL    H2334361   5.484   5.631   6.538 -0.4377  0.4884  0.2684
   60MOL    H2434362   5.687   5.728   6.724 -1.6753 -1.0130  0.0610
   60MOL    H2534363   5.637   5.798   6.561  0.6732 -1.7555 -1.2872
   60MOL    H2634364   5.627   6.000   6.713  0.0661  0.0589  0.3330
   60MOL    H2734365   5.725   5.918   6.891 -0.3039  2.8946 -2.0318
   60MOL    H2834366   5.366   5.969   6.883  1.4047 -1.3324 -0.3836
   60MOL    H2934367   5.472   6.103   6.912 -1.5105  0.1704  0.9986
   60MOL    H3034368   5.570   5.194   6.204  0.8487 -0.6715  1.4231
   60MOL    C3134369   5.282   6.191   6.759 -0.2692  0.1679 -0.1634
   60MOL    C3234370   5.361   6.315   6.781  0.0720  0.7812 -0.0915
   60MOL    O3334371   5.302   6.414   6.860  0.0647 -0.3488  0.2333
   60MOL    C3434372   5.397   6.387   6.655  0.2592  0.6184 -1.0476
   60MOL    O3534373   5.486   6.491   6.689  0.1126  0.0516  0.1058
   60MOL    C3634374   5.542   6.546   6.575 -0.3454 -0.4976  0.1555
   60MOL    C3734375   5.637   6.648   6.627 -0.3899  0.1847  0.2283
   60MOL    C3834376   5.715   6.715   6.516  0.6988 -0.4264  0.2277
   60MOL    O3934377   5.823   6.635   6.465  0.3353  0.3180 -0.0797
   60MOL    C4034378   5.883   6.691   6.344 -0.7488  0.2119 -0.5858
   60MOL    O4134379   5.798   6.680   6.226 -0.0228 -0.6886 -0.0333
   60MOL    C4234380   6.018   6.613   6.325 -0.5614  0.1699  0.5948
   60MOL    O4334381   6.127   6.675   6.401  0.4060  0.1844 -0.0483
   60MOL    H4434382   5.210   6.194   6.677 -0.6655 -1.1795  0.1245
   60MOL    H4534383   5.224   6.167   6.848  0.3236  0.4891  0.3166
   60MOL    H4634384   5.459   6.294   6.825  0.6001 -0.7658 -1.9082
   60MOL    H4734385   5.364   6.483   6.877  0.1822 -0.7831  1.6508
   60MOL    H4834386   5.439   6.316   6.583 -0.8832  1.4756 -2.5793
   60MOL    H4934387   5.312   6.430   6.602 -0.5010 -1.6874 -1.7365
   60MOL    H5034388   5.467   6.601   6.518  0.9081 -0.6953 -1.7067
   60MOL    H5134389   5.598   6.477   6.512 -1.1902  1.5126 -2.8701
   60MOL    H5234390   5.704   6.607   6.703 -0.7663  0.5476  0.7539
   60MOL    H5334391   5.577   6.726   6.673  0.6022  0.5685  0.9004
   60MOL    H5434392   5.647   6.741   6.434  0.1034 -1.9518  0.2047
   60MOL    H5534393   5.753   6.807   6.560 -2.1001  1.7745 -1.7051
   60MOL    H5634394   5.899   6.799   6.354 -2.5001  0.2458  2.2525
   60MOL    H5734395   5.845   6.702   6.147 -1.4056 -0.7519 -0.8936
   60MOL    H5834396   6.005   6.506   6.340 -1.0366  0.3601  1.6157
   60MOL    H5934397   6.049   6.639   6.224 -1.5389 -0.4576  0.1238
   60MOL    C6034398   6.152   6.615   6.528 -0.3016 -0.4776 -0.4949
   60MOL    C6134399   6.269   6.698   6.596  0.1894  0.3241 -0.6052
   60MOL    O6234400   6.388   6.670   6.531  0.0227 -0.1518  0.6305
   60MOL    C6334401   6.277   6.647   6.742 -0.4063  0.2791  0.0251
   60MOL    O6434402   6.287   6.507   6.738 -0.3148 -0.1234 -0.2676
   60MOL    C6534403   6.353   6.457   6.854 -0.2415  0.4466 -0.0014
   60MOL    C6634404   6.320   6.309   6.884  0.1175 -0.8761 -0.3418
   60MOL    C6734405   6.333   6.215   6.758 -0.2578 -0.9503  0.0559
   60MOL    O6834406   6.333   6.077   6.793 -0.3354  0.1252  0.1294
   60MOL    C6934407   6.354   5.993   6.682  0.1290  0.6009 -0.2517
   60MOL    O7034408   6.491   5.973   6.655  0.4368  0.2412 -0.0060
   60MOL    C7134409   6.283   5.852   6.706  0.5840 -0.0307 -0.1575
   60MOL    O7234410   6.155   5.860   6.648 -0.3764 -0.2668  0.1209
   60MOL    H7334411   6.166   6.508   6.511  0.5898 -0.3813 -0.4254
   60MOL    H7434412   6.062   6.628   6.587 -1.4574 -0.8164 -2.1551
   60MOL    H7534413   6.248   6.805   6.602  0.8081  0.3672  1.2939
   60MOL    H7634414   6.397   6.577   6.545 -0.0646 -0.1676  0.5863
   60MOL    H7734415   6.360   6.697   6.791  0.5485 -0.3134 -0.9767
   60MOL    H7834416   6.184   6.664   6.796 -0.4390  0.1739  0.0022
   60MOL    H7934417   6.350   6.527   6.937 -0.8081  1.9073 -1.2157
   60MOL    H8034418   6.460   6.460   6.833 -0.1008  1.1261  0.7838
   60MOL    H8134419   6.225   6.297   6.936  0.8446 -0.4767  1.0989
   60MOL    H8234420   6.382   6.270   6.964  3.6241  3.7908 -0.5664
   60MOL    H8334421   6.432   6.239   6.718 -1.1674  0.0892 -1.6561
   60MOL    H8434422   6.260   6.248   6.684  0.8346 -0.9371 -1.0316
   60MOL    H8534423   6.309   6.033   6.591 -0.6674  0.0592 -0.1063
   60MOL    H8634424   6.528   5.939   6.735 -0.4377  0.3608  0.4531
   60MOL    H8734425   6.340   5.767   6.667  0.0128 -0.7490  0.5697
   60MOL    H8834426   6.268   5.840   6.813  0.3119 -0.4036 -0.2371
   60MOL    C8934427   6.141   5.818   6.509  0.5828 -0.6630  0.7619
   60MOL    C9034428   6.021   5.906   6.469 -0.3081  0.1351  0.6233
   60MOL    O9134429   6.074   6.032   6.433 -0.4531 -0.1249  0.0677
   60MOL    C9234430   5.964   5.841   6.336 -0.9483  0.2275 -0.2431
   60MOL    O9334431   5.827   5.861   6.325  0.4693 -0.4152 -0.6182
   60MOL    C9434432   5.763   5.798   6.214 -0.5912  0.1450  0.4349
   60MOL    C9534433   5.613   5.826   6.237  0.3785  1.4972 -0.1008
   60MOL    C9634434   5.533   5.726   6.144 -0.0874 -0.3188  1.4153
   60MOL    O9734435   5.400   5.752   6.158 -0.4137 -0.2807  0.5859
   60MOL    C9834436   5.313   5.679   6.076 -0.3317 -0.7166  0.8851
   60MOL    O9934437   5.291   5.547   6.130  0.4617  0.5640 -0.5665
   60MOL   C10034438   5.187   5.761   6.065  0.4221 -0.2886 -0.1976
   60MOL   O10134439   5.212   5.865   5.978  0.0641  0.4005  0.5346
   60MOL   H10234440   6.116   5.712   6.497 -2.2044  0.2515 -2.1335
   60MOL   H10334441   6.225   5.848   6.448 -0.9210 -0.7864 -1.4102
   60MOL   H10434442   5.943   5.916   6.544  0.1482 -0.6025  1.2024
   60MOL   H10534443   6.009   6.099   6.426  0.1303  0.3223 -1.3272
   60MOL   H10634444   6.025   5.868   6.250 -0.9554 -0.8677 -0.5990
   60MOL   H10734445   5.977   5.733   6.344 -1.1603  0.3344  1.9339
   60MOL   H10834446   5.788   5.693   6.208 -0.1254  0.1504  2.0761
   60MOL   H10934447   5.792   5.834   6.115 -0.2485  0.1430  0.5339
   60MOL   H11034448   5.587   5.931   6.232  0.8227  1.6428  0.5794
   60MOL   H11134449   5.592   5.790   6.337 -1.7609  0.5278 -0.8653
   60MOL   H11234450   5.547   5.747   6.038 -0.0908 -0.0553  1.4674
   60MOL   H11334451   5.563   5.624   6.170 -0.4244 -0.7943 -0.0503
   60MOL   H11434452   5.355   5.678   5.976 -0.6079  5.0187  0.5275
   60MOL   H11534453   5.244   5.560   6.212  1.1030 -0.2098 -0.0749
   60MOL   H11634454   5.109   5.705   6.013  1.3856 -0.9760 -0.9087
   60MOL   H11734455   5.157   5.792   6.165  2.1361  1.8265 -0.3119
   60MOL   C11834456   5.238   5.994   6.036  0.0796 -0.7065 -0.3810
   60MOL   C11934457   5.313   6.079   5.925 -1.3307  0.4810 -0.4931
   60MOL   O12034458   5.225   6.086   5.812 -0.6103 -0.2985 -0.1169
   60MOL   C12134459   5.443   6.006   5.887 -0.3458  0.5286 -0.1765
   60MOL   O12234460   5.531   6.096   5.817  0.0676 -0.3177  0.1288
   60MOL   C12334461   5.496   6.116   5.681 -0.1290 -0.2249 -0.6189
   60MOL   C12434462   5.620   6.168   5.606  1.1048 -0.3145 -0.3985
   60MOL   C12534463   5.584   6.212   5.460 -0.4701 -0.3525 -0.1470
   60MOL   O12634464   5.710   6.253   5.408  0.6609  0.4397  0.1984
   60MOL   C12734465   5.704   6.306   5.282 -0.2993 -0.5411  0.4729
   60MOL   O12834466   5.672   6.213   5.187 -0.6334 -0.0237  0.0280
   60MOL   C12934467   5.850   6.368   5.250  0.2767 -0.1509 -0.2653
   60MOL   O13034468   5.940   6.263   5.216 -0.2140 -0.4532  0.1595
   60MOL   H13134469   5.149   6.049   6.067  1.9805  0.8825  2.4729
   60MOL   H13234470   5.301   5.986   6.124 -2.0522 -0.1084  1.2359
   60MOL   H13334471   5.332   6.184   5.945 -0.7956  0.1416  0.7780
   60MOL   H13434472   5.189   6.001   5.792  0.0931 -0.2233 -1.7676
   60MOL   H13534473   5.484   5.964   5.979 -0.6524 -0.6669 -0.5807
   60MOL   H13634474   5.430   5.915   5.830 -0.8729  0.7884 -0.4783
   60MOL   H13734475   5.421   6.194   5.671  0.7769  0.4542 -2.3721
   60MOL   H13834476   5.446   6.032   5.634  0.2822 -1.9003  1.8568
   60MOL   H13934477   5.691   6.085   5.601  2.1098  0.5432 -0.6151
   60MOL   H14034478   5.665   6.251   5.660  0.8395  1.1482 -2.3593
   60MOL   H14134479   5.544   6.121   5.415 -1.2378 -1.3142  2.3883
   60MOL   H14234480   5.508   6.290   5.452  1.7354  2.0697  1.6368
   60MOL   H14334481   5.620   6.375   5.288  1.5594  1.7371  1.2098
   60MOL   H14434482   5.742   6.150   5.181 -0.7732 -0.0455 -1.8338
   60MOL   H14534483   5.836   6.430   5.162  0.9270 -0.1213 -0.3493
   60MOL   H14634484   5.867   6.432   5.336 -1.3288 -0.0558  0.0055
   60MOL   C14734485   6.072   6.306   5.225 -0.0312  0.3117  0.1549
   60MOL   C14834486   6.191   6.217   5.173 -0.2816  0.4201 -0.2672
   60MOL   O14934487   6.321   6.264   5.182  0.4075 -0.4495  0.2359
   60MOL   C15034488   6.171   6.173   5.028 -0.0355 -0.2338 -0.4535
   60MOL   O15134489   6.253   6.064   5.005 -0.1106 -0.3373  0.6804
   60MOL   C15234490   6.294   6.051   4.867  0.6174  0.1013  0.6665
   60MOL   C15334491   6.363   5.913   4.848 -1.0598 -0.4114 -0.2055
   60MOL   C15434492   6.370   5.860   4.703 -0.1196  0.2171 -0.2481
   60MOL   O15534493   6.478   5.931   4.640  0.4867 -0.4887 -0.1917
   60MOL   C15634494   6.509   5.893   4.509 -0.5737  0.5558  0.1935
   60MOL   O15734495   6.600   5.782   4.496 -0.0383 -0.0066  0.0560
   60MOL   C15834496   6.568   6.013   4.439  0.8973  0.5197 -1.2402
   60MOL   O15934497   6.669   6.074   4.521 -0.0701 -0.1631 -0.1196
   60MOL   H16034498   6.084   6.323   5.332 -2.8068  1.5284  0.3076
   60MOL   H16134499   6.080   6.409   5.189  0.5521  0.2142 -0.0073
   60MOL   H16234500   6.189   6.128   5.236 -0.7795  0.0566 -0.7944
   60MOL   H16334501   6.372   6.184   5.177 -0.0758 -0.8322  1.2706
   60MOL   H16434502   6.067   6.143   5.013  0.4102 -1.5703 -0.9162
   60MOL   H16534503   6.185   6.265   4.972 -0.4117 -0.2291 -0.5434
   60MOL   H16634504   6.343   6.143   4.837  1.3552 -0.4417  0.1772
   60MOL   H16734505   6.198   6.053   4.816  2.6773 -2.2854 -3.5740
   60MOL   H16834506   6.319   5.832   4.906 -1.5774 -0.2639 -0.3905
   60MOL   H16934507   6.466   5.920   4.886 -1.4471 -0.9737  0.9799
   60MOL   H17034508   6.392   5.754   4.713  1.9546  0.5217 -1.0775
   60MOL   H17134509   6.284   5.872   4.637  0.3668 -0.5058 -1.0295
   60MOL   H17234510   6.418   5.865   4.455  0.4457  1.4330 -2.0654
   60MOL   H17334511   6.686   5.812   4.522  0.0568  1.2736 -1.6457
   60MOL   H17434512   6.608   5.985   4.342  1.8899 -1.5276 -0.2934
   60MOL   H17534513   6.478   6.071   4.420 -0.4008 -1.6161 -1.7206
   60MOL   C17634514   6.673   6.211   4.515  0.4363  0.1764 -0.8579
   60MOL   C17734515   6.811   6.255   4.576  0.3071 -0.2093  0.0974
   60MOL   O17834516   6.805   6.232   4.712  0.5692 -0.1426  0.7946
   60MOL   C17934517   6.837   6.412   4.571 -0.3281  0.3828 -0.2757
   60MOL   O18034518   6.824   6.458   4.438 -0.0293 -0.2151 -0.6640
   60MOL   C18134519   6.785   6.594   4.425  0.2909 -0.3325 -0.3524
   60MOL   C18234520   6.640   6.594   4.402  0.1164  0.2197 -0.1228
   60MOL   C18334521   6.579   6.734   4.370 -0.0939  0.0931  0.1813
   60MOL   O18434522   6.436   6.727   4.346  0.1721  0.0385  0.4236
   60MOL   C18534523   6.377   6.844   4.311 -0.8217  0.0611  0.5138
   60MOL   O18634524   6.382   6.932   4.422  0.0119 -0.0404  0.1345
   60MOL   C18734525   6.232   6.823   4.269  0.5380  0.0705  0.4762
   60MOL   O18834526   6.225   6.810   4.124  0.3272  0.1618 -0.0631
   60MOL   H18934527   6.588   6.261   4.561 -1.1632 -0.4020 -3.0998
   60MOL   H19034528   6.678   6.228   4.408  1.1677  0.7075 -0.7448
   60MOL   H19134529   6.881   6.190   4.523 -1.5747 -1.9847 -0.2527
   60MOL   H19234530   6.716   6.241   4.740  0.2191  0.3794 -0.4743
   60MOL   H19334531   6.760   6.456   4.636  0.5626  0.1338  0.9618
   60MOL   H19434532   6.930   6.438   4.621 -0.7201 -1.8192  1.7125
   60MOL   H19534533   6.850   6.636   4.348  0.8731  0.6490  0.6525
   60MOL   H19634534   6.815   6.660   4.507  1.3536  1.5732 -2.2025
   60MOL   H19734535   6.581   6.535   4.472  1.3814 -1.0234 -0.0946
   60MOL   H19834536   6.636   6.538   4.308  2.7127  1.3700 -0.9604
   60MOL   H19934537   6.592   6.797   4.458 -1.0856  2.6716 -1.4572
   60MOL   H20034538   6.639   6.779   4.291  0.5910 -1.5821 -0.2662
   60MOL   H20134539   6.428   6.878   4.221 -0.9600  0.3701  0.5524
   60MOL   H20234540   6.301   6.919   4.470 -0.6092 -2.5660 -1.5482
   60MOL   H20334541   6.203   6.728   4.314 -0.1359  1.0190  2.0585
   60MOL   H20434542   6.172   6.911   4.290 -1.1330 -1.0212  0.3453
   60MOL   C20534543   6.102   6.749   4.092  0.2001  0.0358 -0.0452
   60MOL   C20634544   6.082   6.733   3.937  0.4757 -0.9146 -0.1417
   60MOL   O20734545   6.173   6.622   3.904  0.8289  0.4813 -0.0431
   60MOL   C20834546   5.938   6.704   3.907  0.6345 -0.0135  0.4589
   60MOL   O20934547   5.909   6.692   3.767  0.4436  0.5098  0.4368
   60MOL   C21034548   5.942   6.565   3.702  0.0867  0.0824  0.3706
   60MOL   C21134549   5.937   6.596   3.546 -0.2362  0.0593  0.1086
   60MOL   C21234550   5.963   6.466   3.472  0.1221 -0.2017 -0.0461
   60MOL   O21334551   5.952   6.487   3.335 -0.3704  0.9107 -0.0626
   60MOL   C21434552   5.837   6.528   3.277 -0.8838  0.2599 -0.3127
   60MOL   O21534553   5.739   6.431   3.275 -0.1432 -0.3636 -0.1210
   60MOL   C21634554   5.863   6.577   3.133  0.1691 -0.1335 -0.1444
   60MOL   O21734555   5.766   6.671   3.091 -0.0508 -0.0668  0.4469
   60MOL   H21834556   6.019   6.805   4.135 -1.2730 -1.5610 -0.7348
   60MOL   H21934557   6.082   6.652   4.138 -3.6818  1.1567  0.8333
   60MOL   H22034558   6.108   6.824   3.883 -1.6040  0.8735  1.7445
   60MOL   H22134559   6.156   6.549   3.960 -0.6036  0.4192 -0.5104
   60MOL   H22234560   5.899   6.617   3.959 -0.0772  0.7374  1.2104
   60MOL   H22334561   5.883   6.790   3.946  0.9338  1.2554 -1.8325
   60MOL   H22434562   5.863   6.496   3.729  1.3300 -2.3538 -1.9593
   60MOL   H22534563   6.045   6.534   3.720  0.7722  2.0281 -0.0437
   60MOL   H22634564   6.013   6.670   3.522 -1.8714  1.2111 -1.6054
   60MOL   H22734565   5.838   6.638   3.531 -1.2085 -2.1148  0.3178
   60MOL   H22834566   6.060   6.423   3.498 -0.7313 -1.4521  1.1689
   60MOL   H22934567   5.892   6.387   3.496  1.0967 -0.9922  0.2700
   60MOL   H23034568   5.800   6.610   3.338 -2.5929 -0.6178 -0.1428
   60MOL   H23134569   5.758   6.366   3.209  2.1572 -1.4791  1.5858
   60MOL   H23234570   5.963   6.619   3.120 -0.0435 -0.1793 -2.0568
   60MOL   H23334571   5.863   6.485   3.074 -0.1697  1.5947 -2.8634
   60MOL   C23434572   5.803   6.796   3.138  0.2352 -0.1897 -0.6826
   60MOL   C23534573   5.900   6.852   3.038  0.2223 -0.1506 -0.1044
   60MOL   O23634574   6.027   6.868   3.098  0.3909 -0.2591 -0.0315
   60MOL   C23734575   5.872   6.994   3.002 -1.0070  0.5501 -0.2540
   60MOL   O23834576   5.975   7.044   2.917  0.1648 -0.0772 -0.2373
   60MOL   C23934577   5.970   7.183   2.914 -0.3742 -0.4696  0.6397
   60MOL   C24034578   6.025   7.242   3.041 -0.0208  0.3417  0.4070
   60MOL   C24134579   6.052   7.393   3.018  0.0544  0.4595 -0.1534
   60MOL   O24234580   6.081   7.453   3.145 -0.0851 -0.4299 -0.1185
   60MOL   C24334581   6.146   7.574   3.141 -0.4663 -0.1438 -0.5357
   60MOL   O24434582   6.282   7.561   3.105  0.1729  0.0253  0.8110
   60MOL   C24534583   6.128   7.649   3.276  0.4207 -0.5544  0.0961
   60MOL   O24634584   5.990   7.677   3.303 -0.4236  0.2314 -0.7088
   60MOL   H24734585   5.707   6.848   3.138 -0.4263 -1.3931 -0.6665
   60MOL   H24834586   5.842   6.795   3.240 -2.4987 -0.6783  0.4043
   60MOL   H24934587   5.908   6.794   2.946 -1.6026  0.5378 -0.7349
   60MOL   H25034588   6.081   6.901   3.028 -1.7528  1.8177 -0.8018
   60MOL   H25134589   5.776   6.992   2.949 -1.0098 -1.6810 -0.2093
   60MOL   H25234590   5.863   7.052   3.094 -0.7757  2.8128 -1.5991
   60MOL   H25334591   5.868   7.219   2.899  0.4743  1.5718 -0.4497
   60MOL   H25434592   6.034   7.211   2.830 -2.3645  0.6069 -0.5601
   60MOL   H25534593   6.114   7.180   3.054  0.1332  0.1191 -1.5147
   60MOL   H25634594   5.962   7.225   3.128 -1.0943  3.3013  0.2629
   60MOL   H25734595   6.132   7.406   2.945 -0.7618  1.0112 -0.9610
   60MOL   H25834596   5.970   7.450   2.973 -1.0971 -0.7484  0.3627
   60MOL   H25934597   6.103   7.631   3.059  1.4941 -0.0830 -1.5536
   60MOL   H26034598   6.329   7.548   3.185 -2.0601 -0.5612  2.0906
   60MOL   H26134599   6.180   7.593   3.355  1.4111 -0.6819 -0.6368
   60MOL   H26234600   6.177   0.051   3.267  1.7269 -1.2021  0.0707
   60MOL   C26334601   5.956   0.043   3.426  0.2450  0.1118  0.4967
   60MOL   C26434602   5.944   7.624   3.531 -0.6435 -0.2972  0.5774
   60MOL   O26534603   5.922   7.694   3.657  0.1745  0.1231 -0.3340
   60MOL   C26634604   5.820   7.537   3.517  0.2019  0.1676 -0.1580
   60MOL   O26734605   5.825   7.422   3.595 -0.5388  0.4828 -0.0711
   60MOL   C26834606   5.820   7.426   3.733  0.1938 -0.5341  0.3522
   60MOL   C26934607   5.793   7.296   3.819 -0.2921  0.6195  0.6676
   60MOL   C27034608   5.786   7.314   3.970  0.3714  0.2327  0.0749
   60MOL   O27134609   5.827   7.195   4.038 -0.4475  0.6456  0.2005
   60MOL   C27234610   5.799   7.179   4.167 -0.1760 -0.3890 -0.4906
   60MOL   O27334611   5.849   7.287   4.233 -0.2419  0.7652 -0.6506
   60MOL   C27434612   5.640   7.164   4.187 -0.1800  0.0778  0.0041
   60MOL   O27534613   5.613   7.052   4.279 -0.6827 -0.5095 -0.0027
   60MOL   H27634614   5.864   0.100   3.419  0.9917  1.4473  1.3605
   60MOL   H27734615   6.032   0.110   3.466  2.0309 -1.2379 -0.5488
   60MOL   H27834616   6.034   7.564   3.531 -0.4174  0.0385  1.6688
   60MOL   H27934617   5.832   0.029   3.659 -0.3494 -1.4353 -0.2797
   60MOL   H28034618   5.734   7.594   3.551 -0.5569  0.4660 -2.5088
   60MOL   H28134619   5.792   7.515   3.414 -1.0574  1.6600 -0.1557
   60MOL   H28234620   5.745   7.498   3.767  0.2971 -0.4108  0.3181
   60MOL   H28334621   5.918   7.462   3.765 -0.2524 -2.3808  4.0766
   60MOL   H28434622   5.871   7.227   3.787 -2.2466 -0.1218 -2.8281
   60MOL   H28534623   5.696   7.253   3.791 -0.6016  3.1101 -2.3594
   60MOL   H28634624   5.850   7.396   4.002 -0.4306  0.9966 -0.2337
   60MOL   H28734625   5.682   7.336   3.993  0.2459 -1.4284  1.1464
   60MOL   H28834626   5.847   7.093   4.214  0.3332  1.2051  1.9401
   60MOL   H28934627   5.943   7.292   4.221 -0.4216  2.0717 -1.6373
   60MOL   H29034628   5.600   7.252   4.239 -0.9960  0.5245 -1.3404
   60MOL   H29134629   5.586   7.151   4.093 -2.6383  0.6114  1.2781
   60MOL   C29234630   5.489   7.052   4.346 -0.3594 -0.2716 -0.4478
   60MOL   C29334631   5.494   7.003   4.492  0.0123 -0.6520 -0.5359
   60MOL   O29434632   5.524   7.117   4.566  0.5841 -0.1177 -0.3406
   60MOL   C29534633   5.364   6.936   4.539  0.4799  0.3348  0.1533
   60MOL   O29634634   5.341   6.819   4.462 -0.1115 -0.2083 -0.4384
   60MOL   C29734635   5.385   6.696   4.522  0.8580  0.9420 -0.1410
   60MOL   C29834636   5.345   6.585   4.422 -0.0445 -0.4055  0.6721
   60MOL   C29934637   5.376   6.440   4.475  0.2417 -0.0412  0.6362
   60MOL   O30034638   5.296   6.413   4.580  0.2485 -0.2232 -0.0516
   60MOL   C30134639   5.320   6.289   4.637  0.0321  0.3077  0.1817
   60MOL   O30234640   5.421   6.296   4.740 -0.6725 -0.4009  0.5664
   60MOL   C30334641   5.194   6.230   4.703 -0.2067  0.4024 -0.5561
   60MOL   O30434642   5.144   6.330   4.793  0.5968 -0.6917 -0.1308
   60MOL   H30534643   5.433   7.145   4.349 -2.3571 -1.4952  0.6878
   60MOL   H30634644   5.425   6.993   4.280 -1.1435 -0.9936  0.9526
   60MOL   H30734645   5.582   6.939   4.497  1.3380  1.2276  1.3178
   60MOL   H30834646   5.455   7.177   4.543  0.6030 -0.3551 -1.0191
   60MOL   H30934647   5.368   6.906   4.644 -1.3666  0.6942  0.3382
   60MOL   H31034648   5.273   6.996   4.538  0.7973  0.8795  1.8766
   60MOL   H31134649   5.330   6.674   4.613 -0.3311  1.6853 -0.6656
   60MOL   H31234650   5.493   6.688   4.535  1.1440  3.8891 -0.2671
   60MOL   H31334651   5.395   6.607   4.327  0.7024 -0.0481  1.1402
   60MOL   H31434652   5.239   6.599   4.402  0.0005  0.9646  1.3628
   60MOL   H31534653   5.363   6.377   4.387  2.2806  1.9294 -1.1465
   60MOL   H31634654   5.479   6.437   4.511 -0.5415 -0.1049  2.9151
   60MOL   H31734655   5.358   6.221   4.561  2.0341 -0.4415  1.7822
   60MOL   H31834656   5.379   6.345   4.808 -1.6516 -0.0649 -0.2740
   60MOL   H31934657   5.230   6.142   4.756 -0.0275  1.7459  1.5763
   60MOL   H32034658   5.133   6.188   4.623  2.8679 -2.5870 -1.4313
   60MOL   C32134659   5.057   6.277   4.894  0.5894  0.2069  0.2382
   60MOL   C32234660   4.979   6.404   4.933 -0.4026  0.3551  0.3234
   60MOL   O32334661   4.893   6.436   4.826 -0.5891 -0.1934  0.1471
   60MOL   C32434662   4.902   6.377   5.057 -0.2489  0.0250 -0.2204
   60MOL   O32534663   4.883   6.501   5.130  0.6691  0.4361  0.1866
   60MOL   C32634664   4.802   6.487   5.244  0.3327  0.1791  0.7713
   60MOL   C32734665   4.778   6.622   5.315  0.5357 -0.2192 -0.3113
   60MOL   C32834666   4.905   6.683   5.375 -0.6243  0.0555  0.2551
   60MOL   O32934667   4.870   6.818   5.410 -0.1627  0.2123  0.0995
   60MOL   C33034668   4.948   6.882   5.508  0.7072  0.5768  0.6863
   60MOL   O33134669   5.085   6.896   5.479  0.2620 -0.6221  0.3504
   60MOL   C33234670   4.880   7.014   5.555 -0.4629 -0.3228  0.3784
   60MOL   O33334671   4.864   7.007   5.696  0.1268  0.1476  0.1780
   60MOL   H33434672   5.121   6.242   4.975  2.1164  1.8471 -0.2253
   60MOL   H33534673   4.990   6.207   4.844 -1.7513  2.1459  0.5894
   60MOL   H33634674   5.046   6.487   4.952 -0.9940  1.1666 -1.0479
   60MOL   H33734675   4.941   6.410   4.749  2.5276  1.9275  1.2562
   60MOL   H33834676   4.948   6.304   5.123  0.1356  1.1314  0.7485
   60MOL   H33934677   4.804   6.340   5.028 -0.2301  0.1171 -0.3996
   60MOL   H34034678   4.852   6.419   5.313  2.2153  0.7913  0.0520
   60MOL   H34134679   4.704   6.452   5.215  0.5952  0.8454 -0.9591
   60MOL   H34234680   4.732   6.686   5.239 -0.8965 -1.9052 -0.8954
   60MOL   H34334681   4.703   6.611   5.393  1.9389 -1.3167  0.9161
   60MOL   H34434682   4.942   6.624   5.459  0.8069  1.8030  0.9050
   60MOL   H34534683   4.986   6.691   5.303 -1.0910 -1.6767 -0.4862
   60MOL   H34634684   4.952   6.817   5.595 -0.8352 -0.8617 -0.2808
   60MOL   H34734685   5.119   6.954   5.545 -2.5410 -0.2739  1.5452
   60MOL   H34834686   4.927   7.106   5.518  0.1849 -1.4579 -1.7507
   60MOL   H34934687   4.785   7.014   5.503 -0.1607 -0.7748 -0.1799
   60MOL   C35034688   4.766   7.098   5.742 -0.5756 -0.4157  0.8431
   60MOL   C35134689   4.820   7.233   5.780 -0.2698 -0.5206  0.4691
   60MOL   O35234690   4.834   7.300   5.658 -0.4326 -0.5919 -0.2345
   60MOL   C35334691   4.715   7.308   5.849 -0.4860  0.1900 -0.2501
   60MOL   O35434692   4.740   7.453   5.847 -0.3960 -0.3581  0.5843
   60MOL   C35534693   4.651   7.527   5.927 -0.1569 -0.3212 -0.5268
   60MOL   C35634694   4.656   7.676   5.908 -0.6620 -0.1364 -0.5263
   60MOL   C35734695   4.551   0.060   5.989 -0.6221  0.1851 -0.3111
   60MOL   O35834696   4.562   0.200   5.970 -0.3293  0.4418 -0.6896
   60MOL   C35934697   4.508   0.283   6.072 -0.3415 -0.2893 -0.3802
   60MOL   O36034698   4.557   0.253   6.202  0.6609 -0.4641  0.4265
   60MOL   C36134699   4.533   0.434   6.047  0.3004  0.0314  0.0593
   60MOL   O36234700   4.496   0.469   5.913 -0.2211 -0.0880 -0.2807
   60MOL   H36334701   4.730   7.061   5.838 -4.0180 -1.6808 -0.8446
   60MOL   H36434702   4.678   7.099   5.678  0.7609  0.5288 -0.9963
   60MOL   H36534703   4.918   7.231   5.828 -0.0545  1.1629  0.1406
   60MOL   H36634704   4.842   7.390   5.685  0.7657 -0.8456  0.3034
   60MOL   H36734705   4.616   7.288   5.809 -1.0979  0.7466  0.9505
   60MOL   H36834706   4.706   7.276   5.953 -0.9286 -0.0346 -0.3573
   60MOL   H36934707   4.672   7.498   6.030 -0.6055 -0.2497 -0.4124
   60MOL   H37034708   4.551   7.495   5.897 -0.4265 -0.6714  0.7096
   60MOL   H37134709   4.655   0.007   5.802  0.4094 -0.3183 -0.5765
   60MOL   H37234710   4.748   0.031   5.937 -0.3994  0.6116 -2.4980
   60MOL   H37334711   4.451   0.031   5.960 -0.3402 -0.5711 -0.5270
   60MOL   H37434712   4.570   0.024   6.090  1.9502  1.5774 -0.2310
   60MOL   H37534713   4.401   0.265   6.081 -0.2568 -0.1908  1.1226
   60MOL   H37634714   4.642   0.294   6.202  1.4469 -2.0006 -1.2831
   60MOL   H37734715   4.477   0.482   6.128 -0.0743  1.0473 -0.7914
   60MOL   H37834716   4.634   0.468   6.066  0.1683  1.4656 -1.6252
   60MOL   C37934717   4.511   0.604   5.870 -0.4039 -0.0992 -0.1021
   60MOL   C38034718   4.454   0.609   5.728  1.1138  0.0322  0.1655
   60MOL   O38134719   4.311   0.611   5.739  0.0824 -0.4091  0.3561
   60MOL   C38234720   4.490   0.727   5.643 -0.1670  0.8725 -0.3345
   60MOL   O38334721   4.606   0.692   5.565  0.4133  0.4471 -0.0243
   60MOL   C38434722   4.650   0.807   5.496  0.6235 -1.0398  0.0160
   60MOL   C38534723   4.774   0.782   5.409  0.2529  0.6062 -0.1200
   60MOL   C38634724   4.741   0.685   5.299  1.1450  0.4194  0.5496
   60MOL   O38734725   4.854   0.624   5.241  0.5790  0.2446  0.2307
   60MOL   C38834726   4.897   0.503   5.286  0.4672  0.2548  0.0272
   60MOL   O38934727   4.821   0.399   5.233 -0.3469 -0.0446 -0.7395
   60MOL   C39034728   5.044   0.490   5.266  1.0712  0.0879  0.1828
   60MOL   O39134729   5.090   0.438   5.393  0.8608  0.1990 -0.1376
   60MOL   H39234730   4.617   0.624   5.883 -0.0998 -2.5096  1.4748
   60MOL   H39334731   4.461   0.670   5.941 -2.6125 -0.6249 -1.1203
   60MOL   H39434732   4.475   0.518   5.673  0.0536 -0.1006 -0.0300
   60MOL   H39534733   4.292   0.599   5.831  0.0691  2.1034  0.7083
   60MOL   H39634734   4.411   0.748   5.571 -0.8410  1.1110  0.4638
   60MOL   H39734735   4.507   0.811   5.710  1.3370  0.0694  0.3186
   60MOL   H39834736   4.678   0.884   5.567 -0.5023  0.5957 -1.2737
   60MOL   H39934737   4.568   0.851   5.439 -0.0569 -1.1079  0.9264
   60MOL   H40034738   4.849   0.747   5.481 -0.3027 -0.2444  0.0603
   60MOL   H40134739   4.796   0.880   5.368  0.2879  1.3854  1.7162
   60MOL   H40234740   4.658   0.616   5.310 -0.4814  2.3224  0.4911
   60MOL   H40334741   4.715   0.743   5.210  1.2028 -0.2282  0.0996
   60MOL   H40434742   4.880   0.496   5.393  1.6272 -2.0387  0.0969
   60MOL   H40534743   4.767   0.385   5.309  1.2844  0.5066  0.5404
   60MOL   H40634744   5.074   0.418   5.190  0.5471 -0.2604  0.3054
   60MOL   H40734745   5.086   0.587   5.239  1.0228  0.4064  1.2091
   60MOL   C40834746   5.208   0.497   5.432 -0.3183  0.1745 -0.3951
   60MOL   C40934747   5.248   0.453   5.580 -0.4006  0.1401  0.3184
   60MOL   O41034748   5.348   0.540   5.620 -0.1084 -0.0315 -0.0010
   60MOL   C41134749   5.310   0.312   5.585  0.4237  0.0849  0.4286
   60MOL   O41234750   5.337   0.279   5.721 -0.7521 -0.0235  0.2057
   60MOL   C41334751   5.397   0.153   5.736  0.4823 -0.1024 -0.5433
   60MOL   C41434752   5.548   0.164   5.716 -0.3038 -0.2663  0.2317
   60MOL   C41534753   5.612   0.031   5.764  0.3738  0.1848  0.3544
   60MOL   O41634754   5.757   0.044   5.763 -0.0193 -0.0205  0.0586
   60MOL   C41734755   5.806   0.048   5.892  0.0150 -0.3829 -0.4624
   60MOL   O41834756   5.788   0.182   5.956 -0.0659 -0.2729 -0.5158
   60MOL   C41934757   5.954   0.013   5.899  0.4920 -0.1186 -0.2686
   60MOL   O42034758   5.969   7.570   5.920  0.3865  0.3276 -0.0379
   60MOL   H42134759   5.186   0.604   5.433  0.1866  0.2801 -0.2004
   60MOL   H42234760   5.295   0.478   5.369 -0.5071  0.7654 -0.8405
   60MOL   H42334761   5.161   0.463   5.645  0.4202 -1.1388  1.6526
   60MOL   H42434762   5.382   0.501   5.699 -0.5514 -2.5270 -1.0031
   60MOL   H42534763   5.239   0.239   5.546 -1.1432  1.0294  1.4618
   60MOL   H42634764   5.395   0.308   5.517  1.8107  0.6866  2.0810
   60MOL   H42734765   5.385   0.121   5.840 -1.1600  2.1066  0.0098
   60MOL   H42834766   5.352   0.080   5.669  2.1908 -2.1806  0.4964
   60MOL   H42934767   5.587   0.253   5.766  2.1172 -0.0714 -1.9142
   60MOL   H43034768   5.567   0.173   5.609 -1.1445  0.2114  0.1155
   60MOL   H43134769   5.568   7.690   5.857 -0.3957 -1.9309 -0.7770
   60MOL   H43234770   5.593   7.640   5.698 -0.1698  1.0176 -0.5669
   60MOL   H43334771   5.744   7.671   5.946  0.5580 -0.8276 -0.4205
   60MOL   H43434772   5.863   0.236   5.936 -0.4749  0.2984 -0.4909
   60MOL   H43534773   5.993   0.048   5.803  0.4477 -1.8035 -0.9197
   60MOL   H43634774   6.004   0.069   5.978  1.6771 -1.4881 -0.0311
   60MOL   C43734775   6.102   7.545   5.948  0.1446 -0.3250  0.8215
   60MOL   C43834776   6.112   7.397   5.997 -0.5386  0.3787 -0.5347
   60MOL   O43934777   6.232   7.389   6.068 -0.0017 -0.1837  0.3173
   60MOL   C44034778   6.098   7.290   5.885  0.3195  0.1198 -0.6613
   60MOL   O44134779   6.205   7.306   5.794  0.5345 -0.0394  0.2843
   60MOL   C44234780   6.216   7.198   5.704 -0.4241  0.8250 -0.7224
   60MOL   C44334781   6.352   7.200   5.634 -0.0350 -0.3374 -0.1260
   60MOL   C44434782   6.355   7.323   5.542  0.5939 -0.0082  0.3235
   60MOL   O44534783   6.488   7.331   5.483  0.1245  0.1637  0.8151
   60MOL   C44634784   6.488   7.393   5.359  0.6038 -0.4345  0.2019
   60MOL   O44734785   6.429   7.314   5.250 -0.0471 -0.0321  0.2705
   60MOL   C44834786   6.633   7.428   5.321  0.0532  0.5307  0.2671
   60MOL   O44934787   6.680   7.535   5.413 -0.1296  0.6154  0.0216
   60MOL   H45034788   6.171   7.562   5.864 -0.8257 -0.1476  0.0534
   60MOL   H45134789   6.136   7.620   6.019 -0.0766  0.0665  0.5144
   60MOL   H45234790   6.031   7.385   6.069 -1.1206  2.8857 -0.7381
   60MOL   H45334791   6.297   7.357   6.006 -0.0054 -0.0445  0.2410
   60MOL   H45434792   6.094   7.189   5.925 -0.4962  0.1750 -0.6082
   60MOL   H45534793   5.997   7.299   5.846 -0.0541  1.0443  0.5255
   60MOL   H45634794   6.146   7.214   5.622  0.3553  0.8684 -1.3768
   60MOL   H45734795   6.189   7.103   5.749  2.9373  0.4330  0.5888
   60MOL   H45834796   6.363   7.104   5.583 -0.1400 -0.5905  0.3242
   60MOL   H45934797   6.432   7.204   5.708 -0.1267 -2.3757  0.1028
   60MOL   H46034798   6.277   7.308   5.467  0.0331  2.3299  0.3971
   60MOL   H46134799   6.334   7.415   5.597  0.8847  1.4236 -1.8799
   60MOL   H46234800   6.432   7.486   5.370 -0.9825 -1.0939 -1.8671
   60MOL   H46334801   6.496   7.261   5.210  0.9727  0.6737  1.0254
   60MOL   H46434802   6.707   7.349   5.337  2.7489  2.5636 -1.7053
   60MOL   H46534803   6.639   7.465   5.219 -0.1618  1.3948  0.5678
   60MOL   C46634804   6.813   7.575   5.389  0.1614  0.3180 -0.1371
   60MOL   C46734805   6.855   7.686   5.495 -0.5236 -0.1172 -0.2287
   60MOL   O46834806   6.773   0.109   5.469 -0.2603 -0.5550 -0.4605
   60MOL   C46934807   6.826   7.641   5.644 -0.3206  0.0470  0.3024
   60MOL   O47034808   6.880   0.010   5.750 -0.5083 -0.2004  0.4509
   60MOL   C47134809   7.017   0.007   5.780  0.1369 -0.0748  0.1037
   60MOL   C47234810   7.062   0.162   5.799  0.2654 -0.3647 -0.2731
   60MOL   C47334811   7.054   0.247   5.675 -0.0725  0.6226 -0.6872
   60MOL   O47434812   7.078   0.381   5.690 -0.0246  0.5344 -0.0211
   60MOL   C47534813   7.198   0.423   5.739 -0.5854  0.3602 -0.1534
   60MOL   O47634814   7.174   0.445   5.875 -0.2833  0.7250  0.6389
   60MOL   C47734815   7.226   0.564   5.680  0.7430 -0.1199 -0.0293
   60MOL   O47834816   7.119   0.645   5.728 -0.1244 -0.2102 -0.4758
   60MOL   H47934817   6.823   7.609   5.285 -1.7063 -1.3170 -0.8809
   60MOL   H48034818   6.869   7.483   5.405 -0.8406  0.0425  1.8313
   60MOL   H48134819   6.962   0.014   5.494 -0.3148 -0.3067  4.7220
   60MOL   H48234820   6.685   0.085   5.444 -0.0956 -1.9524  0.2648
   60MOL   H48334821   6.718   7.648   5.660 -0.7382  0.0621 -2.3768
   60MOL   H48434822   6.849   7.536   5.657 -2.2456 -0.6254 -1.5287
   60MOL   H48534823   7.074   7.654   5.700 -0.4789 -0.8096  0.0996
   60MOL   H48634824   7.032   7.634   5.865  1.3729 -1.5339 -1.2474
   60MOL   H48734825   7.151   0.173   5.861  0.8072 -1.5091 -0.8219
   60MOL   H48834826   6.986   0.208   5.862 -1.8566 -2.3438 -1.3147
   60MOL   H48934827   7.133   0.215   5.608 -0.4023 -0.5173 -0.5375
   60MOL   H49034828   6.954   0.230   5.635 -0.4753 -1.2010  1.0384
   60MOL   H49134829   7.282   0.355   5.725 -2.4593 -1.7000 -1.7967
   60MOL   H49234830   7.129   0.527   5.884  3.0729  2.7762 -0.1732
   60MOL   H49334831   7.324   0.599   5.713  0.2387  0.0406  1.3544
   60MOL   H49434832   7.237   0.565   5.572 -0.4021 -0.3332 -0.1643
   60MOL   C49534833   7.118   0.775   5.668 -0.6103  0.5160  0.5598
   60MOL   C49634834   7.009   0.853   5.729  0.4431  0.1513  0.0836
   60MOL   O49734835   7.051   0.903   5.857  0.2265  0.2205 -0.0590
   60MOL   C49834836   6.962   0.980   5.662  0.1023 -0.3474 -0.0241
   60MOL   O49934837   7.084   1.053   5.630  0.1851 -0.5766  0.6406
   60MOL   C50034838   7.059   1.159   5.550  0.3295  0.0617 -0.4861
   60MOL   C50134839   7.199   1.201   5.508  0.0656 -0.2875  0.0507
   60MOL   C50234840   7.280   1.265   5.622 -0.6332  0.1434  0.7401
   60MOL   O50334841   7.404   1.310   5.573 -0.1786 -0.0664  0.6197
   60MOL   C50434842   7.467   1.396   5.676 -0.1592 -0.8593  0.3998
   60MOL   O50534843   7.402   1.515   5.692  0.4869  0.1790 -0.3631
   60MOL   C50634844   7.611   1.419   5.641 -0.6017  0.3961  0.5712
   60MOL   O50734845   7.679   1.454   5.759  0.2070 -0.0883 -0.1171
   60MOL   H50834846   7.088   0.759   5.565  2.3821 -0.5799 -0.1895
   60MOL   H50934847   7.218   0.817   5.668 -0.2734 -0.2364 -0.9578
   60MOL   H51034848   6.928   0.782   5.744  0.2233 -0.0059 -1.7418
   60MOL   H51134849   6.986   0.967   5.882 -2.1700 -2.0980 -0.0686
   60MOL   H51234850   6.894   0.971   5.578  0.2790  1.6910 -0.4265
   60MOL   H51334851   6.901   1.040   5.729  0.5272 -0.1376  0.1817
   60MOL   H51434852   7.005   1.237   5.603  0.3886 -0.5767  0.5272
   60MOL   H51534853   6.998   1.130   5.464  1.9052 -0.5146 -1.4264
   60MOL   H51634854   7.206   1.260   5.417  3.0846 -1.0618 -0.2860
   60MOL   H51734855   7.249   1.109   5.476 -4.1506 -1.9384 -2.1218
   60MOL   H51834856   7.220   1.346   5.662  0.3758  2.8446 -2.9973
   60MOL   H51934857   7.302   1.188   5.696  1.7494 -0.2751 -0.3722
   60MOL   H52034858   7.466   1.340   5.770  0.5404  0.1599  1.0321
   60MOL   H52134859   7.462   1.588   5.693  1.9167 -0.9793  0.2470
   60MOL   H52234860   7.653   1.322   5.615 -0.6150 -0.2701  2.9020
   60MOL   H52334861   7.628   1.491   5.561 -1.9930  1.1936  0.9821
   60MOL   C52434862   0.123   1.429   5.746  0.2164 -0.0933 -0.2562
   60MOL   C52534863   0.182   1.489   5.879 -0.6978 -0.4448  0.0540
   60MOL   O52634864   0.231   1.620   5.845  0.1039 -0.5420 -0.0864
   60MOL   C52734865   0.309   1.410   5.932 -0.4081 -0.1684 -0.2878
   60MOL   O52834866   0.377   1.339   5.830  0.1523  0.4463  0.1872
   60MOL   C52934867   0.502   1.298   5.878 -0.7190  0.6840  0.3325
   60MOL   C53034868   0.566   1.203   5.778 -0.4605  0.1088 -0.0177
   60MOL   C53134869   0.693   1.141   5.820 -0.4890 -0.3729 -0.0094
   60MOL   O53234870   0.741   1.022   5.750 -0.7988  0.1698  0.8455
   60MOL   C53334871   0.873   0.988   5.783  0.0625  0.0399  0.3767
   60MOL   O53434872   0.865   0.926   5.908 -0.3170  0.3146 -0.1818
   60MOL   C53534873   0.938   0.884   5.679 -0.2712 -0.2674  0.7915
   60MOL   O53634874   0.839   0.787   5.643  0.0633  0.5528  0.0721
   60MOL   H53734875   0.160   1.481   5.658  0.4121  0.5156  0.1826
   60MOL   H53834876   0.142   1.321   5.739  1.7008  0.2517 -1.6864
   60MOL   H53934877   0.114   1.502   5.963 -0.4103  0.1505  0.2011
   60MOL   H54034878   0.295   1.608   5.777  0.7694 -1.5792  0.6920
   60MOL   H54134879   0.368   1.482   5.991 -0.6572 -1.8312  2.0771
   60MOL   H54234880   0.259   1.341   6.000  1.0140 -0.5472  0.3942
   60MOL   H54334881   0.494   1.242   5.971  2.3279 -1.9603 -0.8928
   60MOL   H54434882   0.569   1.381   5.903  1.2035 -0.2780 -1.4681
   60MOL   H54534883   0.577   1.236   5.674  2.2764 -1.8937 -0.4066
   60MOL   H54634884   0.490   1.126   5.760 -1.6499  1.8943 -2.9699
   60MOL   H54734885   0.773   1.215   5.828 -1.1970  0.3316  0.6693
   60MOL   H54834886   0.670   1.107   5.921  0.0251 -1.6712 -0.3241
   60MOL   H54934887   0.932   1.076   5.810  0.8568 -0.7864  1.3637
   60MOL   H55034888   0.790   0.869   5.901 -0.3405  0.3631 -0.3104
   60MOL   H55134889   0.969   0.944   5.593 -2.5186 -0.6554 -0.3218
   60MOL   H55234890   1.022   0.839   5.732 -0.9050  0.6927  2.6477
   60MOL   C55334891   0.909   0.663   5.599  0.0258 -0.6684 -0.0595
   60MOL   C55434892   0.791   0.572   5.557  0.4937 -0.0654  0.4143
   60MOL   O55534893   0.719   0.539   5.675 -0.1529 -1.0199  0.0408
   60MOL   C55634894   0.817   0.449   5.470 -0.1155  0.8443 -0.1399
   60MOL   O55734895   0.707   0.422   5.383 -0.4648  0.1077 -0.2949
   60MOL   C55834896   0.722   0.292   5.316 -0.2448  0.1186  0.0787
   60MOL   C55934897   0.614   0.266   5.207  0.5026  0.2841  0.0294
   60MOL   C56034898   0.643   0.127   5.132  0.1463 -0.2464 -0.0286
   60MOL   O56134899   0.533   0.088   5.054  0.1984 -0.1639  0.6496
   60MOL   C56234900   0.541   7.656   4.998  0.5833  0.6993 -0.3486
   60MOL   O56334901   0.530   7.547   5.088 -0.4467 -0.3184 -0.4186
   60MOL   C56434902   0.425   7.664   4.897  0.2485 -0.5967  0.2845
   60MOL   O56534903   0.458   0.060   4.793 -0.0824 -0.6740 -0.5008
   60MOL   H56634904   0.967   0.610   5.674  0.2334 -0.6572 -0.2120
   60MOL   H56734905   0.974   0.695   5.517 -0.7572 -0.2308 -0.5130
   60MOL   H56834906   0.726   0.637   5.498 -0.2980  1.5458  2.9953
   60MOL   H56934907   0.705   0.620   5.721  0.4659 -0.9286  0.0694
   60MOL   H57034908   0.912   0.465   5.419  0.2907  0.8654  0.6204
   60MOL   H57134909   0.834   0.361   5.533 -0.2592  0.6260 -0.4034
   60MOL   H57234910   0.815   0.311   5.263 -0.8176  2.0212 -0.2681
   60MOL   H57334911   0.732   0.212   5.389  0.1895  0.6544  0.6088
   60MOL   H57434912   0.610   0.347   5.135 -0.1053 -0.6693 -1.0160
   60MOL   H57534913   0.518   0.249   5.257  1.1363 -1.7121  0.6141
   60MOL   H57634914   0.736   0.148   5.079  1.2199  2.9687  2.9386
   60MOL   H57734915   0.657   0.049   5.206 -1.5383 -0.7464 -0.2182
   60MOL   H57834916   0.634   7.637   4.945  1.3295  0.4492  1.0370
   60MOL   H57934917   0.439   7.521   5.081 -0.3540 -1.0555  0.9875
   60MOL   H58034918   0.406   7.565   4.858 -0.9044 -1.0149  1.8550
   60MOL   H58134919   0.343   0.025   4.943 -1.1065 -1.4053 -1.1605
   60MOL   H58234920   0.512   0.127   4.832  0.3859 -1.6026  0.4594
   61MOL     C134921   1.239   1.834   1.607 -0.3414  0.1833  0.1966
   61MOL     C234922   1.380   1.869   1.655  0.1828 -0.0160  0.1030
   61MOL     O334923   1.414   1.754   1.732 -0.2779  0.1251 -0.3362
   61MOL     C434924   1.476   1.908   1.544  0.0859  0.0112 -0.3628
   61MOL     O534925   1.593   1.963   1.608  0.2278  0.9969  0.2020
   61MOL     C634926   1.672   2.023   1.511 -0.2461 -0.5449 -0.1441
   61MOL     C734927   1.814   2.055   1.571  0.5791  0.1256  0.4996
   61MOL     C834928   1.913   2.091   1.459  0.2701  0.7532 -0.3521
   61MOL     O934929   1.930   1.979   1.368 -0.5317 -0.2719 -0.7862
   61MOL    C1034930   2.006   2.014   1.261 -0.3131 -0.3532  0.2688
   61MOL    O1134931   1.945   2.112   1.183  0.5364  0.3772 -0.1397
   61MOL    C1234932   2.029   1.895   1.172  0.1963  0.2249 -0.0241
   61MOL    O1334933   2.168   1.892   1.131 -0.2717  0.0926 -0.0626
   61MOL    H1434934   1.180   1.811   1.695 -0.0738 -1.2117  0.0220
   61MOL    H1534935   1.231   1.748   1.541  1.6245 -1.1577  1.6370
   61MOL    H1634936   1.363   1.948   1.728  1.5521  1.2813 -0.9524
   61MOL    H1734937   1.489   1.781   1.782 -0.1195  1.4697 -1.2853
   61MOL    H1834938   1.500   1.825   1.478 -0.7635  0.9091 -1.8268
   61MOL    H1934939   1.436   1.986   1.479  2.2876  1.2097 -0.3629
   61MOL    H2034940   1.622   2.108   1.465 -2.6955 -1.6561  0.4234
   61MOL    H2134941   1.690   1.952   1.430  1.7360  0.0533 -0.2656
   61MOL    H2234942   1.849   1.971   1.632 -2.9552 -1.3936  0.6043
   61MOL    H2334943   1.799   2.144   1.632  0.0058 -0.1402  0.7538
   61MOL    H2434944   1.860   2.174   1.412 -0.7083  0.6431  0.5258
   61MOL    H2534945   2.010   2.115   1.501  1.0493 -0.3185 -1.4940
   61MOL    H2634946   2.103   2.052   1.294  0.8945 -1.3651 -2.0034
   61MOL    H2734947   1.852   2.101   1.178  0.5549 -1.2259  2.1523
   61MOL    H2834948   2.018   1.805   1.232 -0.4150 -0.2701 -0.8780
   61MOL    H2934949   1.960   1.893   1.088 -1.6072 -1.8916  1.4787
   61MOL    H3034950   1.190   1.919   1.559  2.4057  1.3750 -0.6097
   61MOL    C3134951   2.186   1.924   0.991  0.3387  0.9075 -0.5684
   61MOL    C3234952   2.329   1.914   0.940  0.2529  0.2398  0.2958
   61MOL    O3334953   2.393   2.000   1.033 -0.2633  0.1036  0.0277
   61MOL    C3434954   2.344   1.982   0.803  0.4625  0.6251  0.0593
   61MOL    O3534955   2.269   1.903   0.713 -0.2506 -0.3541 -0.1084
   61MOL    C3634956   2.251   1.955   0.587 -0.2428  0.2957 -0.1311
   61MOL    C3734957   2.178   1.854   0.491  0.2408 -0.2750 -0.8623
   61MOL    C3834958   2.178   1.903   0.343  0.3483  1.1208  0.1429
   61MOL    O3934959   2.091   1.822   0.267  0.0615  0.6496  0.0272
   61MOL    C4034960   2.046   1.894   0.157  0.3300 -0.1660  0.3052
   61MOL    O4134961   1.965   2.009   0.183 -0.0910 -0.2909  0.2264
   61MOL    C4234962   1.964   1.805   0.066  1.2118  0.2299 -0.0530
   61MOL    O4334963   1.861   1.726   0.129 -0.3153 -0.5424  0.1696
   61MOL    H4434964   2.135   1.847   0.932 -0.0287  1.1607 -0.5844
   61MOL    H4534965   2.142   2.014   0.949 -0.4177  0.0168 -1.7300
   61MOL    H4634966   2.383   1.819   0.950  0.8781  0.6369  0.7621
   61MOL    H4734967   2.337   1.989   1.108 -0.5696 -0.4329 -0.2737
   61MOL    H4834968   2.297   2.080   0.817 -0.3748  0.3528 -0.7521
   61MOL    H4934969   2.445   1.999   0.766  0.7366  2.4444  1.5518
   61MOL    H5034970   2.351   1.968   0.544 -0.7889 -1.2434 -1.9143
   61MOL    H5134971   2.215   2.058   0.590  1.5032  0.8849  1.6905
   61MOL    H5234972   2.078   1.823   0.521  0.8941  0.4144  2.2316
   61MOL    H5334973   2.235   1.761   0.497  2.8216  1.3041  0.5110
   61MOL    H5434974   2.151   2.009   0.337  1.6773  1.4851  0.4949
   61MOL    H5534975   2.275   1.895   0.294  1.0200 -0.4197  1.6790
   61MOL    H5634976   2.130   1.932   0.099 -0.2460  0.7708  0.0661
   61MOL    H5734977   1.901   1.975   0.243 -0.6648  0.0533 -0.1846
   61MOL    H5834978   1.937   1.865   7.674  1.8179  0.9766  0.2782
   61MOL    H5934979   2.023   1.729   0.016  1.2559  0.7091 -0.7271
   61MOL    C6034980   1.738   1.786   0.152 -0.2270  0.1000  0.8095
   61MOL    C6134981   1.714   1.800   0.306 -0.5272 -0.6801 -0.0497
   61MOL    O6234982   1.779   1.921   0.344 -0.0245 -0.0014  0.2831
   61MOL    C6334983   1.757   1.666   0.384 -0.3727  0.0997 -0.2603
   61MOL    O6434984   1.694   1.660   0.514  0.7403  0.1147 -0.1336
   61MOL    C6534985   1.552   1.620   0.505  0.0964 -0.5639  0.7069
   61MOL    C6634986   1.520   1.582   0.653  0.4289 -0.3510 -0.4758
   61MOL    C6734987   1.482   1.713   0.731 -0.0319  0.1624 -0.0894
   61MOL    O6834988   1.367   1.772   0.673  0.0845  0.4113  0.1461
   61MOL    C6934989   1.337   1.899   0.705 -0.1664  0.4833  0.1040
   61MOL    O7034990   1.420   1.994   0.637 -0.1598 -0.8212 -0.6251
   61MOL    C7134991   1.189   1.917   0.665 -0.5835  0.2550  1.0574
   61MOL    O7234992   1.116   1.937   0.779  0.2774 -0.0493  0.5892
   61MOL    H7334993   1.664   1.721   0.105 -1.6579  2.3479 -0.1267
   61MOL    H7434994   1.727   1.882   0.103  1.5429 -0.4272 -0.6524
   61MOL    H7534995   1.607   1.820   0.312 -0.8275 -2.4514  0.7351
   61MOL    H7634996   1.753   1.936   0.433  2.5670 -1.0443  1.2858
   61MOL    H7734997   1.728   1.577   0.329  0.3782 -0.7846  0.7745
   61MOL    H7834998   1.866   1.669   0.386 -0.3122 -0.8805 -1.5601
   61MOL    H7934999   1.545   1.526   0.450  1.5474 -1.8891  2.7283
   61MOL    H8035000   1.479   1.694   0.473 -1.8494 -0.6768  4.5260
   61MOL    H8135001   1.609   1.538   0.699  0.9972 -0.4226 -1.6307
   61MOL    H8235002   1.434   1.515   0.659 -0.0925  0.2504 -1.2355
   61MOL    H8335003   1.558   1.791   0.720  0.6021 -0.6771 -1.9223
   61MOL    H8435004   1.459   1.709   0.838 -2.4724 -2.2707 -0.6430
   61MOL    H8535005   1.346   1.905   0.814  1.4525  0.1822 -0.0149
   61MOL    H8635006   1.368   2.039   0.573 -0.7817  1.6074  1.4944
   61MOL    H8735007   1.182   2.004   0.599 -0.8660 -2.3031 -2.4303
   61MOL    H8835008   1.146   1.834   0.609 -1.3315  0.8902  0.6843
   61MOL    C8935009   0.977   1.946   0.770  0.2722  0.0232 -0.2376
   61MOL    C9035010   0.924   2.052   0.871 -0.6559  0.5358  0.5598
   61MOL    O9135011   0.937   2.019   1.004  0.5560  0.3680  0.2948
   61MOL    C9235012   0.978   2.189   0.843  0.0184  0.4301  0.4447
   61MOL    O9335013   1.110   2.197   0.891 -0.1813  0.0632 -0.4028
   61MOL    C9435014   1.190   2.285   0.815 -0.6255  0.4011 -0.2877
   61MOL    C9535015   1.337   2.289   0.865 -0.1402 -0.4119 -0.2753
   61MOL    C9635016   1.437   2.332   0.752 -0.1573  0.2018  0.3291
   61MOL    O9735017   1.401   2.464   0.712  0.4390  0.7860  0.2703
   61MOL    C9835018   1.460   2.497   0.589 -1.1589 -0.3892  0.4641
   61MOL    O9935019   1.383   2.453   0.484 -0.4353 -0.6030  0.6387
   61MOL   C10035020   1.481   2.651   0.574  0.1386 -0.5576  0.0257
   61MOL   O10135021   1.356   2.717   0.554 -0.3026  0.2028  0.7534
   61MOL   H10235022   0.946   1.843   0.788  2.1868 -0.5040  0.1691
   61MOL   H10335023   0.939   1.974   0.672  3.6514  0.2162 -1.5719
   61MOL   H10435024   0.815   2.060   0.868 -0.5548  2.8646  1.6272
   61MOL   H10535025   1.029   2.000   1.015  0.8615  0.9936 -1.1401
   61MOL   H10635026   0.977   2.204   0.735 -2.6031  0.1419  0.4166
   61MOL   H10735027   0.920   2.269   0.888  1.3165  0.9826  1.1665
   61MOL   H10835028   1.157   2.388   0.829 -2.5949 -0.3579  0.8559
   61MOL   H10935029   1.175   2.264   0.709  0.4525  2.5229 -0.8846
   61MOL   H11035030   1.383   2.195   0.896  0.3624 -1.2467 -3.4052
   61MOL   H11135031   1.345   2.359   0.948  1.4180 -0.8270 -0.0663
   61MOL   H11235032   1.534   2.339   0.800  0.5026 -1.5285 -0.7108
   61MOL   H11335033   1.439   2.262   0.668  1.2937 -0.8900  1.2725
   61MOL   H11435034   1.557   2.447   0.591 -2.0559 -2.1935 -0.2041
   61MOL   H11535035   1.310   2.512   0.475  0.0244 -0.2926 -1.5042
   61MOL   H11635036   1.546   2.686   0.654 -1.6368  0.6083  1.0160
   61MOL   H11735037   1.542   2.670   0.486 -1.4123  2.4625 -0.4855
   61MOL   C11835038   1.361   2.860   0.575  0.2450 -0.6029  0.2741
   61MOL   C11935039   1.216   2.891   0.620 -0.8178  0.5136 -0.0991
   61MOL   O12035040   1.175   3.030   0.607 -0.2190  0.3571 -0.2555
   61MOL   C12135041   1.190   2.839   0.762  1.1681  0.3550 -0.0811
   61MOL   O12235042   1.060   2.786   0.788  0.2416  0.4829  0.3047
   61MOL   C12335043   1.044   2.704   0.901 -1.0660 -0.0940 -0.1207
   61MOL   C12435044   0.893   2.680   0.929  0.5045  0.2346 -0.0088
   61MOL   C12535045   0.893   2.630   1.076  0.6020 -0.0770 -0.3106
   61MOL   O12635046   0.935   2.730   1.160  0.6423  0.6708 -0.4262
   61MOL   C12735047   0.970   2.698   1.294 -0.3449 -0.6318  0.1576
   61MOL   O12835048   0.863   2.671   1.383  0.0498  0.2576  0.1492
   61MOL   C12935049   1.061   2.810   1.353  0.2190  0.5627  0.1731
   61MOL   O13035050   1.194   2.756   1.380 -0.1995  0.4807 -0.2699
   61MOL   H13135051   1.421   2.902   0.655 -0.4060  1.0203 -0.0462
   61MOL   H13235052   1.396   2.914   0.487 -1.5055  1.2173  0.6465
   61MOL   H13335053   1.151   2.832   0.556  0.9548 -1.7096  0.0935
   61MOL   H13435054   1.083   3.023   0.628  0.4396 -0.3460  2.6200
   61MOL   H13535055   1.256   2.757   0.789  1.8805  0.3901 -1.6556
   61MOL   H13635056   1.236   2.906   0.834  0.4332  1.1417 -0.3301
   61MOL   H13735057   1.099   2.759   0.978 -0.5211 -0.0655 -0.5285
   61MOL   H13835058   1.092   2.610   0.877 -2.4443 -0.1347 -2.8748
   61MOL   H13935059   0.838   2.615   0.862  2.4501 -2.4988  0.9370
   61MOL   H14035060   0.838   2.774   0.931 -1.1772 -0.7223 -0.7509
   61MOL   H14135061   0.796   2.596   1.111 -0.3937  0.5622 -2.4062
   61MOL   H14235062   0.958   2.543   1.083 -0.5320 -0.9252 -0.1765
   61MOL   H14335063   1.036   2.611   1.300 -0.3074 -0.7237 -1.3092
   61MOL   H14435064   0.858   2.579   1.401 -0.9095  0.2757 -0.0145
   61MOL   H14535065   1.047   2.898   1.289 -3.5026  2.4154  3.3025
   61MOL   H14635066   1.007   2.834   1.445 -1.4115 -0.1846 -0.5661
   61MOL   C14735067   1.280   2.780   1.267 -0.3560  0.3102  0.0416
   61MOL   C14835068   1.411   2.705   1.289  0.1055 -0.3211  0.1748
   61MOL   O14935069   1.499   2.780   1.369 -0.0508 -0.5223  0.3698
   61MOL   C15035070   1.480   2.670   1.158 -0.3042  0.0552  0.7805
   61MOL   O15135071   1.563   2.555   1.184  0.0337 -0.0530 -0.3384
   61MOL   C15235072   1.657   2.514   1.091  0.1026  0.0756  0.3388
   61MOL   C15335073   1.724   2.392   1.146 -0.0277 -0.4731 -1.0223
   61MOL   C15435074   1.626   2.273   1.159 -0.3053  0.1192 -0.4115
   61MOL   O15535075   1.674   2.160   1.078  0.4123 -0.0346  0.1036
   61MOL   C15635076   1.590   2.047   1.077  0.2554 -0.1353 -0.3374
   61MOL   O15735077   1.559   2.003   1.206  0.0523  0.6784 -0.0715
   61MOL   C15835078   1.655   1.936   0.994  0.2834  0.2063 -0.0612
   61MOL   O15935079   1.671   1.977   0.852 -0.2602 -0.4232 -0.3433
   61MOL   H16035080   1.304   2.881   1.234 -3.6039  1.0106 -0.2874
   61MOL   H16135081   1.233   2.733   1.181  1.1599  2.1643 -1.8641
   61MOL   H16235082   1.393   2.610   1.339  0.1212 -0.6974 -0.5328
   61MOL   H16335083   1.518   2.855   1.315  1.6612 -0.4817  1.0075
   61MOL   H16435084   1.403   2.640   1.086  1.0324 -0.0403 -0.6437
   61MOL   H16535085   1.523   2.763   1.121  0.8522 -0.2669  1.3199
   61MOL   H16635086   1.731   2.591   1.067  0.9534 -0.5718  0.8687
   61MOL   H16735087   1.609   2.483   0.998  0.5994  3.0999 -0.9682
   61MOL   H16835088   1.768   2.427   1.240 -0.7855 -0.5220 -0.6441
   61MOL   H16935089   1.811   2.350   1.096 -0.0963 -4.4087  1.8804
   61MOL   H17035090   1.613   2.259   1.266  0.1011  2.5288 -0.0125
   61MOL   H17135091   1.527   2.302   1.123 -1.2983 -1.4893  0.9620
   61MOL   H17235092   1.496   2.083   1.035 -0.7527 -2.2147  0.1167
   61MOL   H17335093   1.479   1.952   1.206 -0.0825  0.8860  0.5920
   61MOL   H17435094   1.756   1.927   1.034  0.3653  1.1259 -0.0524
   61MOL   H17535095   1.590   1.849   0.990  0.7182 -0.2465  1.9714
   61MOL   C17635096   1.792   2.030   0.811 -0.4606  0.2556  0.2302
   61MOL   C17735097   1.768   2.084   0.663 -0.4763  0.1076 -0.0829
   61MOL   O17835098   1.719   1.979   0.589  0.2374 -0.1797  0.1255
   61MOL   C17935099   1.897   2.138   0.589  0.7352  0.0692 -0.3171
   61MOL   O18035100   1.920   2.264   0.646 -0.2521 -0.6429 -0.5304
   61MOL   C18135101   2.049   2.313   0.674 -0.4525 -0.1992  0.2180
   61MOL   C18235102   2.043   2.458   0.737  0.2003 -0.7724 -0.0478
   61MOL   C18335103   2.020   2.459   0.885  0.3630  0.3132 -0.4557
   61MOL   O18435104   2.149   2.444   0.952  0.0573 -0.3565 -0.1862
   61MOL   C18535105   2.141   2.455   1.091 -0.0115  0.0398 -0.0891
   61MOL   O18635106   2.126   2.587   1.129 -0.2748  0.1426  0.1514
   61MOL   C18735107   2.268   2.401   1.154  1.0344  0.1278  0.0617
   61MOL   O18835108   2.386   2.470   1.106 -0.0463  0.6688 -0.5439
   61MOL   H18935109   1.857   1.944   0.827 -0.1873  0.9559  3.1881
   61MOL   H19035110   1.826   2.112   0.875 -0.2835 -1.1483  1.9777
   61MOL   H19135111   1.694   2.164   0.670  0.0737  0.6186 -0.0912
   61MOL   H19235112   1.636   1.965   0.632  0.1542  0.9434  0.3420
   61MOL   H19335113   1.978   2.065   0.596  1.1268  0.4497 -0.8387
   61MOL   H19435114   1.894   2.152   0.481  2.1299  1.1749 -0.2250
   61MOL   H19535115   2.111   2.323   0.585  0.3204  0.7451  0.8543
   61MOL   H19635116   2.093   2.237   0.739  1.1449  0.5265 -0.0014
   61MOL   H19735117   1.973   2.524   0.685 -0.5389 -1.5251 -0.0074
   61MOL   H19835118   2.141   2.504   0.718 -0.8286  1.8508  0.7391
   61MOL   H19935119   1.964   2.547   0.916  0.0168  0.0610 -0.3718
   61MOL   H20035120   1.956   2.377   0.916  0.2974  0.1485 -1.0231
   61MOL   H20135121   2.059   2.392   1.124  1.4632 -1.3281  1.0524
   61MOL   H20235122   2.213   2.622   1.117  1.2111 -3.2944  0.4768
   61MOL   H20335123   2.260   2.406   1.263  4.2585 -3.4374  0.5688
   61MOL   H20435124   2.271   2.293   1.137 -0.4804 -0.2261  1.7803
   61MOL   C20535125   2.497   2.373   1.084 -0.5672  0.0014 -0.0315
   61MOL   C20635126   2.620   2.447   1.030 -0.0382 -0.2185 -0.2826
   61MOL   O20735127   2.702   2.469   1.142  0.0205  0.3186 -0.2372
   61MOL   C20835128   2.695   2.369   0.930 -0.9260  0.5704  0.1661
   61MOL   O20935129   2.614   2.373   0.814 -0.4501 -0.0075  0.0484
   61MOL   C21035130   2.633   2.259   0.735  0.3162  0.2869  0.4393
   61MOL   C21135131   2.562   2.289   0.603 -1.0265 -0.1779 -0.2876
   61MOL   C21235132   2.594   2.170   0.507 -0.4905 -0.1605 -0.1373
   61MOL   O21335133   2.525   2.185   0.383 -0.1682 -0.0663 -0.5625
   61MOL   C21435134   2.532   2.077   0.297 -0.5328 -0.4210 -0.3262
   61MOL   O21535135   2.663   2.027   0.264 -0.6951  0.4704 -0.1512
   61MOL   C21635136   2.455   2.119   0.167  0.5696  0.3907  0.0587
   61MOL   O21735137   2.532   2.208   0.084 -0.3689  0.9136  0.1695
   61MOL   H21835138   2.448   2.295   1.026 -1.5251 -0.9921  2.0327
   61MOL   H21935139   2.527   2.318   1.174 -0.0616  0.8753  0.3441
   61MOL   H22035140   2.589   2.537   0.978  0.2329 -0.3246 -0.6304
   61MOL   H22135141   2.772   2.406   1.145  0.0788  0.4233  1.1346
   61MOL   H22235142   2.786   2.426   0.908  0.0048  0.1145  2.6371
   61MOL   H22335143   2.714   2.267   0.964 -1.2215 -0.1607 -1.7583
   61MOL   H22435144   2.589   2.168   0.775 -1.1056  0.6211 -0.3247
   61MOL   H22535145   2.739   2.244   0.715  1.0236  0.3719  3.7818
   61MOL   H22635146   2.586   2.386   0.560 -4.4002 -0.1632 -2.3112
   61MOL   H22735147   2.456   2.289   0.627 -0.9091  0.1754  0.2412
   61MOL   H22835148   2.696   2.134   0.509 -0.2102  0.6752  3.9362
   61MOL   H22935149   2.546   2.082   0.550  2.6027 -1.8452 -0.0552
   61MOL   H23035150   2.488   1.989   0.345 -1.1468 -1.1481 -2.1717
   61MOL   H23135151   2.704   2.083   0.200  0.8117 -0.0606  0.3360
   61MOL   H23235152   2.429   2.030   0.109 -1.9716  0.6230  0.7554
   61MOL   H23335153   2.359   2.167   0.189  0.1029 -0.8530  0.7928
   61MOL   C23435154   2.468   2.234   7.651  0.4209  0.1413  0.0674
   61MOL   C23535155   2.563   2.291   7.547  0.7370 -0.5204 -0.0685
   61MOL   O23635156   2.494   2.309   7.425  0.0031 -0.4530  0.3857
   61MOL   C23735157   2.676   2.202   7.503  0.0133  0.2623  0.1224
   61MOL   O23835158   2.625   2.067   7.509  0.6252  0.2401 -0.2711
   61MOL   C23935159   2.723   1.967   7.511  0.1285  0.0947  0.1307
   61MOL   C24035160   2.739   1.909   7.649 -0.1416  0.0526  0.0351
   61MOL   C24135161   2.841   1.790   7.646  0.5580 -1.0198  0.3619
   61MOL   O24235162   2.965   1.846   7.613  0.4734  0.0777 -0.5371
   61MOL   C24335163   3.060   1.751   7.569 -0.6483  0.2319  0.2133
   61MOL   O24435164   3.093   1.660   7.670 -0.1754 -0.5347 -0.0119
   61MOL   C24535165   3.184   1.828   7.516  0.4940  0.5310  0.2396
   61MOL   O24635166   3.157   1.897   7.396 -0.3601 -0.5473  0.6588
   61MOL   H24735167   2.422   2.145   7.608  3.3969 -1.1167 -0.5896
   61MOL   H24835168   2.394   2.308   7.683 -1.8326 -2.2191  0.4960
   61MOL   H24935169   2.602   2.388   7.577 -0.0846  0.3324 -1.6976
   61MOL   H25035170   2.529   2.246   7.364  0.5785  0.0363  0.2027
   61MOL   H25135171   2.721   2.237   7.411  1.9126 -1.1295  0.4798
   61MOL   H25235172   2.751   2.208   7.582  0.2714 -2.0826  0.1067
   61MOL   H25335173   2.816   1.984   7.458  0.0630  0.4078  0.1159
   61MOL   H25435174   2.684   1.887   7.447  2.5317 -0.6982 -0.3920
   61MOL   H25535175   2.644   1.884   0.000 -0.1634  0.4164  0.1949
   61MOL   H25635176   2.789   1.986   0.014 -0.8228  0.5833 -0.0751
   61MOL   H25735177   2.836   1.744   0.051 -0.3140  2.1855  1.8737
   61MOL   H25835178   2.807   1.722   7.568  0.6558 -0.7566  0.0916
   61MOL   H25935179   3.028   1.695   7.481  1.6584  0.6329 -0.9113
   61MOL   H26035180   3.169   1.619   7.632 -1.5258 -2.4291 -0.7490
   61MOL   H26135181   3.238   1.891   7.587 -0.1028  1.6503 -0.2911
   61MOL   H26235182   3.245   1.745   7.480  0.2804 -0.1391  1.4008
   61MOL   C26335183   3.232   2.020   7.379 -0.1931 -0.2978 -0.2485
   61MOL   C26435184   3.383   1.991   7.360  0.0077  0.8894 -0.2433
   61MOL   O26535185   3.395   1.920   7.238  0.1877  0.1689 -0.3786
   61MOL   C26635186   3.477   2.116   7.340  0.2103  0.0737 -0.7372
   61MOL   O26735187   3.530   2.158   7.470 -0.4321  0.0352  0.0115
   61MOL   C26835188   3.648   2.241   7.450  0.3905  0.5034  0.7444
   61MOL   C26935189   3.777   2.161   7.430 -0.5437 -0.0701 -0.0116
   61MOL   C27035190   3.906   2.251   7.423 -0.4364  0.1802  0.9473
   61MOL   O27135191   4.000   2.196   7.323  0.5067 -0.2061 -0.3868
   61MOL   C27235192   4.093   2.288   7.283 -0.0764  0.0718 -0.2579
   61MOL   O27335193   4.184   2.332   7.384 -0.0349 -0.0113 -0.7543
   61MOL   C27435194   4.167   2.230   7.162 -0.0550  0.0571  0.7160
   61MOL   O27535195   4.229   2.110   7.212 -0.4372 -0.5728  0.1842
   61MOL   H27635196   3.235   2.093   7.460 -0.5323  0.2520 -0.7287
   61MOL   H27735197   3.194   2.069   7.289  1.5696 -1.9458 -1.9336
   61MOL   H27835198   3.420   1.931   7.444 -2.5197 -0.6663 -0.1956
   61MOL   H27935199   3.332   1.850   7.241  0.1675  0.1089 -1.6012
   61MOL   H28035200   3.548   2.106   7.258 -0.1493 -0.3823 -0.9964
   61MOL   H28135201   3.414   2.199   7.307 -0.0780 -0.8958 -2.6449
   61MOL   H28235202   3.655   2.311   7.533  1.5973  0.3871  0.7506
   61MOL   H28335203   3.621   2.301   7.364  0.5348  1.9111  1.6673
   61MOL   H28435204   3.767   2.097   7.342 -0.1553  0.6153 -0.5583
   61MOL   H28535205   3.793   2.093   7.514  1.5344  0.3510 -0.0398
   61MOL   H28635206   3.865   2.348   7.397  0.6206  0.9236  2.0357
   61MOL   H28735207   3.955   2.255   7.520  1.5711 -0.5390 -0.0115
   61MOL   H28835208   4.030   2.371   7.250 -0.6739 -0.7864 -1.3095
   61MOL   H28935209   4.205   2.252   7.430 -1.8385  0.2184  0.5269
   61MOL   H29035210   4.105   2.232   7.072 -0.2655 -1.2786  0.8155
   61MOL   H29135211   4.246   2.304   7.149 -2.0341  2.3140  1.2742
   61MOL   C29235212   4.245   1.998   7.125 -0.6915  0.8021 -0.9220
   61MOL   C29335213   4.319   1.890   7.219  0.2748 -0.1890 -0.5189
   61MOL   O29435214   4.218   1.824   7.306 -0.1147 -0.0698  0.1528
   61MOL   C29535215   4.390   1.787   7.140  0.3662  0.1588 -0.3685
   61MOL   O29635216   4.294   1.722   7.057 -0.0324 -0.2811 -0.0163
   61MOL   C29735217   4.336   1.633   6.949  1.0962  0.0827  0.8460
   61MOL   C29835218   4.219   1.568   6.878 -0.5116 -0.0311  0.5301
   61MOL   C29935219   4.134   1.474   6.968  0.6023  0.0300  0.6288
   61MOL   O30035220   4.058   1.389   6.879 -0.0771  0.1773  0.5688
   61MOL   C30135221   3.951   1.319   6.926 -0.5188 -0.0788 -0.3433
   61MOL   O30235222   3.858   1.393   6.998 -0.3491  0.2058 -0.2910
   61MOL   C30335223   3.884   1.247   6.805 -0.2013 -0.0212  0.0971
   61MOL   O30435224   3.979   1.173   6.729  0.5001 -0.4832 -0.2483
   61MOL   H30535225   4.155   1.957   7.081 -0.3285 -2.0917  0.9443
   61MOL   H30635226   4.319   2.039   7.055 -0.6228 -0.5881 -1.6671
   61MOL   H30735227   4.395   1.943   7.275 -2.0553  1.2276  1.4011
   61MOL   H30835228   4.148   1.801   7.247  1.3757  0.7457 -1.9955
   61MOL   H30935229   4.457   1.838   7.072  2.1818 -0.0464  1.1978
   61MOL   H31035230   4.463   1.730   7.199  0.1146 -0.4451 -0.6438
   61MOL   H31135231   4.395   1.557   7.000 -0.2367  0.2735  2.7181
   61MOL   H31235232   4.399   1.697   6.888  0.1435  0.6212  0.4108
   61MOL   H31335233   4.257   1.517   6.790  0.6151  0.3984  0.7636
   61MOL   H31435234   4.147   1.636   6.833 -0.5220  0.5492  1.4134
   61MOL   H31535235   4.200   1.404   7.019  0.9793 -0.3370 -0.3458
   61MOL   H31635236   4.074   1.533   7.037  1.0606  1.2082  0.0386
   61MOL   H31735237   3.987   1.246   7.000 -0.1254  0.7568  0.3034
   61MOL   H31835238   3.808   1.439   6.932  0.6019  0.2413 -1.0052
   61MOL   H31935239   3.832   1.314   6.737 -1.2535 -2.2890 -1.4089
   61MOL   H32035240   3.801   1.184   6.840 -0.7827  0.1852 -0.8933
   61MOL   C32135241   3.923   1.080   6.632  0.3275  0.5042  0.8706
   61MOL   C32235242   4.017   1.052   6.513 -0.5483 -0.1757  0.8070
   61MOL   O32335243   3.949   0.956   6.435  0.1948 -0.2813 -0.0298
   61MOL   C32435244   4.023   1.173   6.428 -0.0713 -0.3053 -0.1424
   61MOL   O32535245   4.098   1.147   6.318 -0.0893  0.7314 -0.2285
   61MOL   C32635246   4.087   1.244   6.219 -0.1676 -0.8168 -0.1323
   61MOL   C32735247   4.123   1.187   6.077  0.4674  0.4743 -0.1952
   61MOL   C32835248   4.258   1.129   6.073  0.0513  0.3826  0.6844
   61MOL   O32935249   4.261   1.094   5.936  0.0404 -0.0575  0.7795
   61MOL   C33035250   4.377   1.059   5.870 -0.0772  0.2159 -0.6769
   61MOL   O33135251   4.402   0.927   5.909  0.1655  0.1756 -0.1726
   61MOL   C33235252   4.340   1.065   5.718 -0.0111  0.2067 -0.6909
   61MOL   O33335253   4.349   1.193   5.657 -0.6025 -0.5808 -0.0314
   61MOL   H33435254   3.828   1.107   6.586  0.5867  2.1944  1.2898
   61MOL   H33535255   3.901   0.985   6.679  1.4882 -0.1890  0.0392
   61MOL   H33635256   4.111   1.004   6.541 -1.3633 -0.7158  2.6879
   61MOL   H33735257   3.987   0.965   6.349 -1.8235  0.6696 -0.8736
   61MOL   H33835258   4.089   1.248   6.471  0.7971 -0.5176 -1.1012
   61MOL   H33935259   3.924   1.205   6.395 -0.0282  1.8208  1.6382
   61MOL   H34035260   4.150   1.330   6.243  0.6047 -1.8339  1.5686
   61MOL   H34135261   3.984   1.278   6.226  0.1790  0.0668  0.7784
   61MOL   H34235262   4.051   1.111   6.049  0.8395 -0.4259  1.2501
   61MOL   H34335263   4.111   1.270   6.007 -2.6669 -0.5057 -0.8876
   61MOL   H34435264   4.334   1.204   6.090  0.1451  0.3465  0.4230
   61MOL   H34535265   4.263   1.042   6.138 -1.6562 -0.5378 -0.3694
   61MOL   H34635266   4.462   1.119   5.901 -1.0254  0.4253  1.5809
   61MOL   H34735267   4.443   0.927   5.995  2.7324 -0.6856 -1.3506
   61MOL   H34835268   4.424   1.019   5.666  0.1962 -1.5801  1.1735
   61MOL   H34935269   4.247   1.013   5.695  0.3006  0.2162 -1.9900
   61MOL   C35035270   4.233   1.267   5.691  0.6203 -0.0675  0.6219
   61MOL   C35135271   4.204   1.368   5.582 -0.2723 -0.2443 -0.1166
   61MOL   O35235272   4.152   1.296   5.467  0.2755 -0.5384 -0.4592
   61MOL   C35335273   4.112   1.488   5.619 -0.5326  0.4304 -0.6636
   61MOL   O35435274   4.141   1.552   5.743 -0.5722 -0.8239 -0.2388
   61MOL   C35535275   4.048   1.658   5.774 -0.8805  0.1541  0.7611
   61MOL   C35635276   4.090   1.716   5.919 -0.0253  0.0853  0.5481
   61MOL   C35735277   3.971   1.811   5.973 -0.5170  0.2433  0.0862
   61MOL   O35835278   4.021   1.866   6.100 -0.5046  0.0330 -0.7850
   61MOL   C35935279   3.920   1.904   6.184 -0.7079  0.2754 -0.0215
   61MOL   O36035280   3.869   1.795   6.259 -0.2087  0.3974  0.2413
   61MOL   C36135281   3.977   2.016   6.273  0.1650 -0.3025 -0.0524
   61MOL   O36235282   3.870   2.098   6.315 -0.1149  0.0717 -0.3324
   61MOL   H36335283   4.238   1.307   5.793 -0.1472  1.9840 -0.1077
   61MOL   H36435284   4.150   1.200   5.714  0.0877  0.5316  0.4807
   61MOL   H36535285   4.297   1.410   5.543 -1.2091  0.7557 -1.3011
   61MOL   H36635286   4.217   1.237   5.434 -0.5621 -1.8173  0.1141
   61MOL   H36735287   4.107   1.563   5.540 -1.2719  0.8807 -0.1968
   61MOL   H36835288   4.018   1.436   5.634  0.8425 -1.9106  0.0137
   61MOL   H36935289   3.951   1.610   5.776 -0.1052 -1.4107  1.2456
   61MOL   H37035290   4.056   1.728   5.690  1.5445 -2.8235 -1.6152
   61MOL   H37135291   4.181   1.775   5.917  1.0274 -1.5098  0.1372
   61MOL   H37235292   4.112   1.644   5.997 -0.9279 -2.3451 -1.3603
   61MOL   H37335293   3.935   1.891   5.908 -1.5190 -0.9408 -0.8656
   61MOL   H37435294   3.879   1.755   5.995  0.0587 -1.3989 -1.5291
   61MOL   H37535295   3.840   1.951   6.126 -1.6215 -2.6411 -1.2070
   61MOL   H37635296   3.936   1.754   6.312  0.9936 -0.1694 -1.6592
   61MOL   H37735297   4.035   1.988   6.361 -0.1751  1.2096  0.6675
   61MOL   H37835298   4.051   2.068   6.212  0.9422 -0.0338  1.1115
   61MOL   C37935299   3.926   2.218   6.370 -0.4368 -0.2703 -0.2622
   61MOL   C38035300   3.813   2.294   6.437 -0.4222  0.0968 -0.4514
   61MOL   O38135301   3.758   2.218   6.542 -0.0853  0.2348 -0.0535
   61MOL   C38235302   3.846   2.435   6.477 -0.2517  0.1743 -0.3738
   61MOL   O38335303   3.879   2.514   6.358  0.1137  0.0269  0.4926
   61MOL   C38435304   3.982   2.608   6.384 -0.4637  0.0381 -0.1725
   61MOL   C38535305   4.032   2.681   6.260 -1.0199  0.3654 -0.4016
   61MOL   C38635306   4.073   2.595   6.143  0.3734 -0.0105  0.2809
   61MOL   O38735307   4.176   2.657   6.065  0.1042 -0.1691 -0.2640
   61MOL   C38835308   4.193   2.605   5.937 -0.3831  0.1489 -0.3448
   61MOL   O38935309   4.079   2.625   5.858 -0.1731  0.3105  0.8201
   61MOL   C39035310   4.310   2.679   5.892  0.3130 -0.1057  0.0680
   61MOL   O39135311   4.294   2.815   5.930 -0.4030 -0.3653 -0.1740
   61MOL   H39235312   3.973   2.269   6.286  1.4613  0.6581  1.3155
   61MOL   H39335313   4.004   2.194   6.442 -1.1888 -1.2741  0.2143
   61MOL   H39435314   3.733   2.297   6.362 -4.1628 -1.0819  3.2840
   61MOL   H39535315   3.698   2.149   6.520  0.2337 -0.3195  0.7993
   61MOL   H39635316   3.768   2.482   6.536 -2.0510 -1.0685 -1.7304
   61MOL   H39735317   3.929   2.446   6.547 -0.6167  1.7844 -0.1754
   61MOL   H39835318   4.061   2.559   6.440 -0.0481  3.2256  2.1856
   61MOL   H39935319   3.952   2.684   6.456  1.9743  1.0623 -0.1901
   61MOL   H40035320   4.112   2.748   6.292 -0.7713  1.1943 -2.7272
   61MOL   H40135321   3.952   2.746   6.224 -1.1806 -0.3750 -1.4049
   61MOL   H40235322   4.117   2.501   6.174  1.4465  0.5022  0.3545
   61MOL   H40335323   3.986   2.576   6.081  1.6394 -0.3122 -1.4533
   61MOL   H40435324   4.212   2.498   5.946  0.8958  0.5510  2.2049
   61MOL   H40535325   4.080   2.717   5.835  2.3665  0.3726  1.0629
   61MOL   H40635326   4.394   2.630   5.943  0.2534  0.9458  1.2067
   61MOL   H40735327   4.320   2.672   5.784  1.4522 -1.0172  0.2132
   61MOL   C40835328   4.421   2.884   5.940 -0.1696  0.2854 -0.3193
   61MOL   C40935329   4.404   3.019   6.011  0.2812  0.1575  0.3720
   61MOL   O41035330   4.353   2.970   6.132 -0.1575  0.0840 -0.5912
   61MOL   C41135331   4.307   3.110   5.939 -0.1124 -0.4552  0.1521
   61MOL   O41235332   4.366   3.238   5.939 -0.3545 -0.2552  0.2893
   61MOL   C41335333   4.274   3.344   5.944 -0.5857 -0.1150  0.2126
   61MOL   C41435334   4.330   3.480   5.893  0.5599 -0.2656 -0.5626
   61MOL   C41535335   4.223   3.591   5.900 -0.4224 -0.2208  0.4351
   61MOL   O41635336   4.172   3.619   6.038  0.3661 -0.3163 -0.2740
   61MOL   C41735337   4.144   3.754   6.067  0.0747  0.2437 -0.1492
   61MOL   O41835338   4.267   3.829   6.076  0.1135 -0.4087 -0.3587
   61MOL   C41935339   4.057   3.765   6.193 -0.8525  0.6813  0.0224
   61MOL   O42035340   4.121   3.712   6.307 -0.3094 -0.4561 -0.5696
   61MOL   H42135341   4.459   2.899   5.839  3.9021  1.1763  1.2574
   61MOL   H42235342   4.485   2.819   5.999 -0.1640 -0.0975 -0.7513
   61MOL   H42335343   4.505   3.061   6.016 -0.3711  2.0182 -1.2313
   61MOL   H42435344   4.305   2.894   6.103 -0.0050 -1.2073  2.3743
   61MOL   H42535345   4.311   3.071   5.837  1.0910 -1.2200  0.4775
   61MOL   H42635346   4.203   3.098   5.970 -0.5687  0.4938 -0.9890
   61MOL   H42735347   4.185   3.308   5.892 -2.3973  1.6825  1.9659
   61MOL   H42835348   4.255   3.363   6.050  0.4447 -2.2401  0.8081
   61MOL   H42935349   4.358   3.459   5.790 -0.0147  0.5032 -0.8868
   61MOL   H43035350   4.426   3.515   5.931  0.0959 -0.7556  1.1098
   61MOL   H43135351   4.257   3.683   5.852  1.7593 -0.6964  0.9945
   61MOL   H43235352   4.140   3.557   5.838  0.4502 -1.6504  0.0362
   61MOL   H43335353   4.086   3.791   5.983  0.1666  2.7222  0.8565
   61MOL   H43435354   4.303   3.814   6.162  2.5696  0.6725 -1.1513
   61MOL   H43535355   4.045   3.873   6.204  1.0848  1.0744 -1.4029
   61MOL   H43635356   3.961   3.721   6.167 -0.4823  0.8156 -1.6070
   61MOL   C43735357   4.047   3.720   6.420 -0.2725 -0.0733 -0.4120
   61MOL   C43835358   4.143   3.676   6.532 -0.0600 -0.6977  0.6060
   61MOL   O43935359   4.160   3.538   6.520  0.0857  0.2903 -0.2202
   61MOL   C44035360   4.083   3.720   6.667 -0.2968 -0.2909 -0.6163
   61MOL   O44135361   4.032   3.851   6.672 -0.2322  0.7407  0.1999
   61MOL   C44235362   3.922   3.866   6.759 -0.5024 -0.2842 -0.1011
   61MOL   C44335363   3.914   4.018   6.801  0.1592  0.2189  0.9431
   61MOL   C44435364   3.877   4.122   6.697  0.4697  0.4239  0.8383
   61MOL   O44535365   3.878   4.256   6.745  0.0715 -0.4503 -0.0001
   61MOL   C44635366   4.003   4.310   6.797  0.2930  0.2089 -0.0471
   61MOL   O44735367   4.042   4.281   6.929 -0.7678 -0.3857  0.6302
   61MOL   C44835368   4.004   4.464   6.775 -0.0745 -0.0511  0.8730
   61MOL   O44935369   4.129   4.491   6.710 -0.1287 -0.0875 -0.4933
   61MOL   H45035370   4.014   3.823   6.427 -0.8515 -0.2919  0.1744
   61MOL   H45135371   3.952   3.667   6.433  0.6243 -0.7748  4.2426
   61MOL   H45235372   4.237   3.730   6.523 -1.8778  2.4695  0.0283
   61MOL   H45335373   4.187   3.530   6.430  0.9790  0.3534  0.0375
   61MOL   H45435374   4.008   3.646   6.693 -0.1278 -0.9210 -1.9191
   61MOL   H45535375   4.150   3.705   6.752  0.9003 -1.6477 -1.7813
   61MOL   H45635376   3.939   3.817   6.854 -1.8062 -0.0219  0.2774
   61MOL   H45735377   3.829   3.828   6.716 -0.8784  1.6102 -1.0300
   61MOL   H45835378   4.013   4.050   6.835 -0.0092  1.9802 -0.1636
   61MOL   H45935379   3.844   4.036   6.883  0.2197 -0.4207  1.1362
   61MOL   H46035380   3.950   4.113   6.617 -0.1407 -1.9818  0.5298
   61MOL   H46135381   3.773   4.104   6.670  0.8126  0.3651 -0.4799
   61MOL   H46235382   4.079   4.265   6.733 -1.6804 -3.2010 -0.1147
   61MOL   H46335383   4.134   4.303   6.935 -0.0337 -2.9627 -0.3170
   61MOL   H46435384   3.912   4.492   6.725  0.5349 -0.2211 -0.3642
   61MOL   H46535385   3.994   4.513   6.871 -2.0180 -2.3671  1.8949
   61MOL   C46635386   4.100   4.529   6.573 -0.3914  0.1336  0.6314
   61MOL   C46735387   4.165   4.428   6.476  0.0513 -0.4059 -0.1048
   61MOL   O46835388   4.078   4.321   6.460 -0.4522  0.0966  0.6331
   61MOL   C46935389   4.217   4.468   6.335  0.7950  0.6063  0.4952
   61MOL   O47035390   4.110   4.513   6.247 -0.4077 -0.1029 -0.0456
   61MOL   C47135391   4.162   4.547   6.120  0.4375 -0.2481 -0.3754
   61MOL   C47235392   4.061   4.641   6.046  0.3973  0.3518 -0.6391
   61MOL   C47335393   4.117   4.694   5.912 -0.4986 -0.0673 -0.0407
   61MOL   O47435394   4.172   4.597   5.836 -0.0108 -0.4353 -0.6300
   61MOL   C47535395   4.304   4.602   5.809  0.6369  0.0845 -0.3058
   61MOL   O47635396   4.332   4.714   5.736  0.4681 -0.2127 -0.2877
   61MOL   C47735397   4.347   4.480   5.733 -0.1145  0.1684 -0.6296
   61MOL   O47835398   4.302   4.474   5.596 -0.1997 -0.0834  0.1102
   61MOL   H47935399   4.159   4.621   6.566  0.9279 -0.4738  3.1237
   61MOL   H48035400   3.994   4.542   6.550 -0.0185  2.7002  0.2202
   61MOL   H48135401   4.256   4.405   6.532 -1.1941 -0.9895  1.7032
   61MOL   H48235402   4.030   4.339   6.380  0.5053 -0.0531  0.0203
   61MOL   H48335403   4.299   4.539   6.342  0.4770  0.8416  2.1671
   61MOL   H48435404   4.253   4.372   6.296 -0.6620 -0.1436  0.9557
   61MOL   H48535405   4.192   4.462   6.060  0.5488 -0.4068 -0.0926
   61MOL   H48635406   4.250   4.612   6.122  0.8036 -0.7058 -1.5280
   61MOL   H48735407   4.025   4.727   6.102  0.2914  0.6983 -1.2326
   61MOL   H48835408   3.971   4.589   6.014 -0.5594  2.3138 -1.2005
   61MOL   H48935409   4.041   4.757   5.866  0.5007  2.2794  1.4485
   61MOL   H49035410   4.194   4.765   5.939  1.4898 -1.8824 -0.7845
   61MOL   H49135411   4.353   4.592   5.906 -0.8596 -1.2909  0.3344
   61MOL   H49235412   4.391   4.690   5.666 -0.2143 -1.7482 -0.3616
   61MOL   H49335413   4.456   4.485   5.733 -0.2125  3.2677  0.0260
   61MOL   H49435414   4.310   4.393   5.788 -1.2693  1.0207 -0.0233
   61MOL   C49535415   4.163   4.454   5.572  0.6941  0.0839 -0.7091
   61MOL   C49635416   4.116   4.534   5.451 -0.0579 -0.0533 -0.2264
   61MOL   O49735417   4.035   4.449   5.371 -0.2245 -0.3349  0.2045
   61MOL   C49835418   4.046   4.661   5.485 -0.1463  0.1136  0.2766
   61MOL   O49935419   4.055   4.745   5.371  0.2098  0.6043  0.4774
   61MOL   C50035420   3.968   4.857   5.389 -0.2999  0.5184 -0.1864
   61MOL   C50135421   3.986   4.959   5.275 -0.6708  0.1140 -0.2338
   61MOL   C50235422   3.862   5.041   5.260 -0.6349  0.7622  0.6026
   61MOL   O50335423   3.895   5.136   5.161 -0.1935 -0.0754 -0.1348
   61MOL   C50435424   3.775   5.201   5.129  0.0155 -0.1644 -0.0355
   61MOL   O50535425   3.696   5.117   5.046 -0.2531  0.0377 -0.1650
   61MOL   C50635426   3.822   5.318   5.034 -0.4231  0.2381  0.0834
   61MOL   O50735427   3.883   5.271   4.912 -0.1934 -0.4359  0.7593
   61MOL   H50835428   4.106   4.466   5.665  0.6526 -0.7998 -0.6201
   61MOL   H50935429   4.150   4.348   5.552 -1.3444  0.5219 -1.8298
   61MOL   H51035430   4.208   4.561   5.398  0.7769 -0.1221  1.1604
   61MOL   H51135431   3.957   4.493   5.341 -0.4882 -1.3603 -0.6481
   61MOL   H51235432   3.943   4.630   5.503 -0.3478  0.9650  0.5831
   61MOL   H51335433   4.071   4.706   5.580  2.1769 -0.9536  0.2117
   61MOL   H51435434   3.980   4.903   5.487 -1.2727 -1.0863  0.7149
   61MOL   H51535435   3.863   4.828   5.388 -0.6218  1.5579  1.5653
   61MOL   H51635436   4.008   4.907   5.183  0.2128  0.6055 -0.3037
   61MOL   H51735437   4.079   5.012   5.298 -1.5894  2.7896 -2.4820
   61MOL   H51835438   3.778   4.979   5.231  0.1050 -0.1934  0.5016
   61MOL   H51935439   3.830   5.106   5.342 -2.9532  0.4944 -0.0674
   61MOL   H52035440   3.729   5.227   5.224  1.0410 -1.2550  0.7757
   61MOL   H52135441   3.745   5.114   4.966 -0.1317  0.1575 -0.0949
   61MOL   H52235442   3.731   5.373   5.010  0.6242  1.4425 -1.2242
   61MOL   H52335443   3.893   5.375   5.094 -0.8588 -0.4577  1.2739
   61MOL   C52435444   3.917   5.382   4.831 -0.0684  0.2873 -0.1744
   61MOL   C52535445   3.813   5.427   4.727 -0.1218 -0.0470  0.6091
   61MOL   O52635446   3.756   5.536   4.797  0.0663 -0.2344 -0.3760
   61MOL   C52735447   3.704   5.322   4.699  0.2170  0.0365  0.4217
   61MOL   O52835448   3.654   5.344   4.572 -0.0603  0.8318  0.0486
   61MOL   C52935449   3.533   5.277   4.566  0.2176 -0.5609  0.4807
   61MOL   C53035450   3.462   5.324   4.438  0.7141  0.2026 -0.0725
   61MOL   C53135451   3.334   5.245   4.409 -0.8150  0.6848 -0.1549
   61MOL   O53235452   3.271   5.293   4.290  0.0301  0.2962  0.4723
   61MOL   C53335453   3.171   5.214   4.233 -0.7033 -0.0489 -0.5347
   61MOL   O53435454   3.049   5.239   4.298  0.0242  0.2748 -0.2993
   61MOL   C53535455   3.161   5.259   4.087  0.2173  0.3253 -0.0021
   61MOL   O53635456   3.262   5.196   4.008  0.1609  0.1334  0.5765
   61MOL   H53735457   4.003   5.338   4.780 -0.6415  1.0384 -1.7896
   61MOL   H53835458   3.955   5.454   4.904 -1.2182  0.3265  0.3998
   61MOL   H53935459   3.865   5.463   4.638 -0.0446 -0.1051  0.6314
   61MOL   H54035460   3.670   5.554   4.761  0.3312 -2.2021 -2.0442
   61MOL   H54135461   3.752   5.224   4.700 -0.9379 -0.5404  0.2206
   61MOL   H54235462   3.627   5.326   4.775  0.3537 -0.4852  0.5849
   61MOL   H54335463   3.461   5.288   4.647  1.5808  1.3415  1.4624
   61MOL   H54435464   3.550   5.170   4.554 -0.2369 -0.5156 -0.6897
   61MOL   H54535465   3.523   5.323   4.348 -0.5807  0.1526 -0.9617
   61MOL   H54635466   3.436   5.430   4.439  0.6224  0.1794 -0.0179
   61MOL   H54735467   3.369   5.143   4.396  0.6415  0.9196  1.6356
   61MOL   H54835468   3.269   5.255   4.496 -0.9216 -3.0706  0.2543
   61MOL   H54935469   3.202   5.110   4.246 -1.4573 -0.4080 -1.6619
   61MOL   H55035470   2.997   5.292   4.239 -2.6662 -3.0912 -1.0859
   61MOL   H55135471   3.068   5.231   4.038  1.1312 -1.8705 -0.5262
   61MOL   H55235472   3.170   5.368   4.085 -2.6622  0.5937 -0.1494
   61MOL   C55335473   3.215   5.075   3.946  0.2059  0.5250  0.1908
   61MOL   C55435474   3.318   5.003   3.854  0.4106 -0.1412  0.2425
   61MOL   O55535475   3.367   4.891   3.915  0.1738 -0.0817 -0.2359
   61MOL   C55635476   3.439   5.091   3.824  0.0598 -0.1515 -0.1025
   61MOL   O55735477   3.491   5.049   3.696  0.1133 -0.2110 -0.2391
   61MOL   C55835478   3.558   5.160   3.633 -0.0968 -0.4255  0.5926
   61MOL   C55935479   3.591   5.103   3.498  0.0769 -0.2010 -0.7045
   61MOL   C56035480   3.674   5.185   3.412  0.5440  1.2784  0.3160
   61MOL   O56135481   3.671   5.117   3.281 -0.0797  0.7168  0.8254
   61MOL   C56235482   3.733   5.189   3.180 -0.0370 -0.2024  0.4752
   61MOL   O56335483   3.869   5.190   3.192  0.3491 -0.0097  0.7205
   61MOL   C56435484   3.712   5.107   3.052  0.8741 -0.1492  0.2051
   61MOL   O56535485   3.798   4.996   3.044 -0.1793  0.3566 -0.1469
   61MOL   H56635486   3.132   5.093   3.878 -1.2901 -1.1998  1.5282
   61MOL   H56735487   3.197   5.001   4.024 -0.8089  0.6116  0.0391
   61MOL   H56835488   3.268   4.978   3.760  1.9035  0.2703 -0.6663
   61MOL   H56935489   3.428   4.852   3.855 -1.2549 -0.1274 -1.7054
   61MOL   H57035490   3.416   5.198   3.829 -1.1839 -0.4400  0.4947
   61MOL   H57135491   3.509   5.088   3.907  0.4744  1.7677 -0.3508
   61MOL   H57235492   3.500   5.250   3.613  1.8193  0.3410 -1.7111
   61MOL   H57335493   3.642   5.188   3.697 -0.2755  0.9704  0.2248
   61MOL   H57435494   3.494   5.093   3.449 -1.2607  2.5271  1.2887
   61MOL   H57535495   3.642   5.007   3.503  0.2073 -0.1881 -1.5845
   61MOL   H57635496   3.638   5.287   3.396  1.8940  1.2342 -3.4249
   61MOL   H57735497   3.771   5.211   3.453  1.5007 -1.5313 -0.0606
   61MOL   H57835498   3.695   5.291   3.188 -1.2308 -0.6094  0.0667
   61MOL   H57935499   3.892   5.115   3.140  0.9719  0.7882 -0.1814
   61MOL   H58035500   3.608   5.099   3.022  0.5167 -2.7147  1.9566
   61MOL   H58135501   3.742   5.168   2.966 -0.7346  0.4948  0.0932
   61MOL   H58235502   3.809   4.962   3.132 -1.4352 -1.0632 -0.5036
   62MOL     C135503   3.297   5.328   7.552 -0.1001 -0.3400  0.1116
   62MOL     C235504   3.370   5.260   7.435  0.0374  0.9290 -0.9123
   62MOL     O335505   3.342   5.119   7.457 -0.2187  0.4204 -0.3998
   62MOL     C435506   3.335   5.302   7.292  0.3518 -0.7245 -0.3387
   62MOL     O535507   3.364   5.442   7.270 -0.1726  0.0764 -0.2392
   62MOL     C635508   3.320   5.492   7.137  1.0381 -0.2524 -0.4823
   62MOL     C735509   3.344   5.644   7.130  0.1164  1.0749  0.0602
   62MOL     C835510   3.498   5.677   7.148  0.3737  0.4302  0.2675
   62MOL     O935511   3.499   5.812   7.202 -0.1774  0.2550 -0.0723
   62MOL    C1035512   3.533   5.917   7.114  0.3196  0.3787 -0.0333
   62MOL    O1135513   3.669   5.914   7.074 -0.1460  0.0803  0.4636
   62MOL    C1235514   3.495   6.053   7.187 -0.1997  0.2457  0.3831
   62MOL    O1335515   3.526   6.053   7.326 -0.4044  0.1439 -0.0066
   62MOL    H1435516   3.355   5.312   7.643 -1.0192  0.2015  0.7999
   62MOL    H1535517   3.191   5.306   7.563 -0.2771  0.5751  0.2265
   62MOL    H1635518   3.475   5.285   7.450  0.4024 -1.5994  1.1073
   62MOL    H1735519   3.409   5.068   7.414  0.3932  0.7136  0.1966
   62MOL    H1835520   3.400   5.245   7.225  2.9305  0.4326  1.0870
   62MOL    H1935521   3.232   5.281   7.263  0.4069 -0.7513 -0.5172
   62MOL    H2035522   3.213   5.477   7.131  0.8403  0.0777  1.6698
   62MOL    H2135523   3.377   5.448   7.055  1.0057 -0.7653 -0.2284
   62MOL    H2235524   3.295   5.687   7.217 -0.3698 -0.9349  0.8135
   62MOL    H2335525   3.314   5.694   7.039 -1.3802 -0.8444 -0.5221
   62MOL    H2435526   3.552   5.619   7.224 -1.9319 -1.2400  0.6890
   62MOL    H2535527   3.558   5.671   7.058  1.0777  0.9692  0.6913
   62MOL    H2635528   3.469   5.915   7.025 -1.2979  1.2984  1.0940
   62MOL    H2735529   3.717   5.952   7.146 -0.8919  2.0170 -0.0222
   62MOL    H2835530   3.557   6.130   7.140  0.2497 -1.0647 -1.2345
   62MOL    H2935531   3.387   6.066   7.183 -0.3000  0.2335  2.5621
   62MOL    H3035532   3.291   5.436   7.540 -0.4757 -0.0938  2.2361
   62MOL    C3135533   3.488   6.171   7.387  0.3264  0.7158  0.3591
   62MOL    C3235534   3.477   6.144   7.539  0.8972  0.1622 -0.2460
   62MOL    O3335535   3.345   6.092   7.551  0.3738  0.1505  0.2296
   62MOL    C3435536   3.485   6.264   7.626  0.1004 -0.1398 -0.2576
   62MOL    O3535537   3.500   6.228   0.067  0.0336 -0.5933 -0.3707
   62MOL    C3635538   3.494   6.341   0.163 -0.2734 -0.0857  0.1764
   62MOL    C3735539   3.481   6.291   0.306 -0.0097 -0.7246 -0.1430
   62MOL    C3835540   3.527   6.387   0.418  0.3774  0.1117  0.3123
   62MOL    O3935541   3.506   6.335   0.541 -0.3990 -0.4302 -0.3944
   62MOL    C4035542   3.557   6.415   0.636  0.0113 -0.4022  0.5071
   62MOL    O4135543   3.692   6.390   0.670  0.4234  0.7127 -0.7833
   62MOL    C4235544   3.478   6.387   0.773  0.1649  0.0532  0.3847
   62MOL    O4335545   3.509   6.249   0.808  0.3099 -0.0122  0.2860
   62MOL    H4435546   3.556   6.254   7.366  1.1500  0.2095  1.0015
   62MOL    H4535547   3.391   6.208   7.354  0.6233  1.6002  0.4607
   62MOL    H4635548   3.549   6.065   7.563  0.7616  0.4900  1.2836
   62MOL    H4735549   3.339   6.011   7.503  0.8158 -0.5006  1.2503
   62MOL    H4835550   3.579   6.310   7.595  0.7759 -1.1587  0.2306
   62MOL    H4935551   3.399   6.331   7.618 -0.3447 -0.5771  0.7838
   62MOL    H5035552   3.411   6.411   0.155  0.6037  1.1814  1.8451
   62MOL    H5135553   3.586   6.397   0.150 -0.5744  0.6161  1.0123
   62MOL    H5235554   3.546   6.203   0.309 -0.1320 -0.8096  0.0191
   62MOL    H5335555   3.380   6.252   0.319 -0.0990 -0.3165  0.3788
   62MOL    H5435556   3.631   6.416   0.402 -0.0002  1.1156 -0.3999
   62MOL    H5535557   3.463   6.475   0.421  0.2048 -0.0708  2.6873
   62MOL    H5635558   3.555   6.523   0.619  2.0211 -0.2870  0.8676
   62MOL    H5735559   3.702   6.315   0.726 -1.0422  0.6035 -0.6578
   62MOL    H5835560   3.514   6.455   0.850 -1.3981  0.0254  1.1549
   62MOL    H5935561   3.375   6.405   0.745  0.5862  0.2797 -1.0688
   62MOL    C6035562   3.459   6.212   0.933  0.3300  0.2328  0.4313
   62MOL    C6135563   3.341   6.113   0.923  0.4189  0.2421 -0.1527
   62MOL    O6235564   3.241   6.148   1.017  0.0086 -0.2593 -0.3810
   62MOL    C6335565   3.373   5.961   0.926 -0.1939  0.5370  0.3674
   62MOL    O6435566   3.259   5.885   0.888 -0.4306  0.5686  0.2451
   62MOL    C6535567   3.287   5.747   0.880 -0.3830  0.0262 -0.6428
   62MOL    C6635568   3.154   5.682   0.876 -0.3235 -0.5529 -0.0106
   62MOL    C6735569   3.090   5.664   0.738 -0.0745 -0.4288  0.1746
   62MOL    O6835570   3.034   5.781   0.681  0.3287 -0.2135  0.3572
   62MOL    C6935571   2.932   5.759   0.585  0.9693  0.3597  0.8346
   62MOL    O7035572   2.813   5.721   0.652  0.1895  0.7891  0.5827
   62MOL    C7135573   2.898   5.888   0.505 -0.1193 -0.0773  0.5426
   62MOL    O7235574   2.859   5.997   0.592 -0.0080  0.5215  0.1058
   62MOL    H7335575   3.421   6.296   0.992 -0.0686  2.9296 -3.5182
   62MOL    H7435576   3.537   6.160   0.990  0.6813  0.8916  0.5572
   62MOL    H7535577   3.298   6.141   0.827 -1.2965  0.3276  0.6165
   62MOL    H7635578   3.155   6.137   0.980  0.2999 -2.7645 -0.4090
   62MOL    H7735579   3.459   5.923   0.871 -0.4717 -1.2688  1.1530
   62MOL    H7835580   3.405   5.930   1.025 -0.6534 -1.0450  0.0338
   62MOL    H7935581   3.345   5.712   0.966  1.3909  1.1436 -1.3860
   62MOL    H8035582   3.346   5.710   0.797 -1.9510 -1.0989 -1.2865
   62MOL    H8135583   3.081   5.729   0.941  0.6586 -0.9803  1.4138
   62MOL    H8235584   3.171   5.580   0.910 -0.2015 -0.2387  0.8842
   62MOL    H8335585   3.014   5.586   0.742 -1.0441  0.4374 -0.9599
   62MOL    H8435586   3.166   5.629   0.668 -0.4879 -1.3473  0.1744
   62MOL    H8535587   2.966   5.681   0.517 -1.7328  0.0391 -0.2137
   62MOL    H8635588   2.776   5.799   0.689 -2.5568 -0.2847  0.2632
   62MOL    H8735589   2.976   5.923   0.437  0.0832  1.7481  1.6650
   62MOL    H8835590   2.813   5.871   0.440 -0.3925 -0.8741  1.1145
   62MOL    C8935591   2.961   6.088   0.616  0.5666  0.1720 -0.0710
   62MOL    C9035592   2.949   6.159   0.749 -0.1554  0.0866 -0.2010
   62MOL    O9135593   2.859   6.268   0.734 -0.0587  0.6402  0.9716
   62MOL    C9235594   2.899   6.069   0.860 -0.2772 -0.0701  0.4429
   62MOL    O9335595   2.905   6.141   0.987 -0.3165 -0.3254 -0.0171
   62MOL    C9435596   2.890   6.048   1.095 -0.7260  0.1272  0.2313
   62MOL    C9535597   2.819   6.121   1.213 -0.3182 -0.1777 -0.3876
   62MOL    C9635598   2.898   6.246   1.259  0.0520 -0.2116 -0.4270
   62MOL    O9735599   2.861   6.274   1.395 -0.0111 -0.2720  0.1081
   62MOL    C9835600   2.940   6.368   1.460  0.1944 -0.7443  1.1325
   62MOL    O9935601   2.915   6.501   1.408  0.5243  0.1535 -0.2846
   62MOL   C10035602   2.920   6.363   1.613 -0.7361  0.1085 -0.1173
   62MOL   O10135603   2.793   6.420   1.642  0.0536 -0.0946 -0.1646
   62MOL   H10235604   2.960   6.165   0.539  1.6679 -1.1661 -1.4322
   62MOL   H10335605   3.060   6.042   0.616  0.6905  0.4413 -0.2745
   62MOL   H10435606   3.040   6.204   0.789 -1.8376  2.9307  0.6129
   62MOL   H10535607   2.770   6.240   0.719 -0.5517  2.4827  0.2639
   62MOL   H10635608   2.794   6.043   0.847 -0.2184 -0.6103  1.0359
   62MOL   H10735609   2.962   5.981   0.867 -1.1938 -0.5727  2.9637
   62MOL   H10835610   2.990   6.017   1.125 -0.0855 -2.3519 -3.9905
   62MOL   H10935611   2.826   5.968   1.057 -0.2541  0.2119 -0.7724
   62MOL   H11035612   2.816   6.050   1.296  1.5189  0.9572  0.6923
   62MOL   H11135613   2.717   6.153   1.192 -0.4990 -0.0847  0.5915
   62MOL   H11235614   3.003   6.216   1.257  0.3457  0.8420 -1.9032
   62MOL   H11335615   2.871   6.335   1.202  3.1803  0.7517 -0.5417
   62MOL   H11435616   3.043   6.341   1.439  0.5198 -0.4336  2.3377
   62MOL   H11535617   2.836   6.533   1.448 -0.9400 -2.4887 -0.8884
   62MOL   H11635618   2.943   6.261   1.644  0.9214  0.3663 -0.4473
   62MOL   H11735619   3.001   6.421   1.656 -2.0722  1.9976 -0.1206
   62MOL   C11835620   2.768   6.447   1.780  0.1316 -0.2063 -0.0033
   62MOL   C11935621   2.765   6.318   1.863 -0.0735  0.5718 -0.4018
   62MOL   O12035622   2.670   6.230   1.807  0.0878 -0.3361  0.3572
   62MOL   C12135623   2.718   6.350   2.003  0.2303 -0.1014  0.8332
   62MOL   O12235624   2.798   6.446   2.067  0.2197  0.4596  0.0505
   62MOL   C12335625   2.748   6.476   2.197 -0.0680  0.0866 -0.4210
   62MOL   C12435626   2.804   6.606   2.236  0.5231  0.5323 -0.2998
   62MOL   C12535627   2.762   6.653   2.380  0.1697  0.0546 -0.0078
   62MOL   O12635628   2.659   6.751   2.367 -0.4199  0.9600 -0.7256
   62MOL   C12735629   2.638   6.837   2.475  0.0818  0.9320  0.3785
   62MOL   O12835630   2.591   6.762   2.586  0.0389  0.2058 -0.0268
   62MOL   C12935631   2.539   6.935   2.423 -0.3996  0.1990 -0.1853
   62MOL   O13035632   2.600   7.022   2.328 -0.4836  0.8448 -0.3286
   62MOL   H13135633   2.850   6.513   1.810  1.9802 -0.5315 -3.9742
   62MOL   H13235634   2.669   6.491   1.779 -0.2191 -0.9543 -2.2506
   62MOL   H13335635   2.865   6.275   1.862 -0.1330  0.4486 -0.8430
   62MOL   H13435636   2.584   6.267   1.813 -0.0187 -0.5662  0.2546
   62MOL   H13535637   2.618   6.394   1.997  0.5908  0.6376  0.0985
   62MOL   H13635638   2.734   6.251   2.046  1.4315  0.3172  1.3718
   62MOL   H13735639   2.761   6.390   2.262 -0.9263  0.9289  0.8728
   62MOL   H13835640   2.640   6.487   2.188 -0.0121  0.6092 -0.4503
   62MOL   H13935641   2.779   6.690   2.172 -1.7858  1.0217  1.1877
   62MOL   H14035642   2.913   6.598   2.240  0.4715 -0.5766 -0.9326
   62MOL   H14135643   2.730   6.560   2.428 -0.3236  0.2610  0.0691
   62MOL   H14235644   2.848   6.695   2.432  0.6170  1.2818 -1.6774
   62MOL   H14335645   2.735   6.881   2.498  1.0032 -0.1843 -1.2321
   62MOL   H14435646   2.500   6.784   2.597  0.1543  1.0574 -0.7261
   62MOL   H14535647   2.454   6.883   2.379  0.3550 -0.7832 -0.5135
   62MOL   H14635648   2.514   7.004   2.504  1.6683 -0.3938  1.0221
   62MOL   C14735649   2.597   6.969   2.198 -0.0487 -0.5081  0.0843
   62MOL   C14835650   2.643   7.077   2.097  0.6860  0.2222  0.6601
   62MOL   O14935651   2.603   7.059   1.964  0.2053 -0.2334  0.2185
   62MOL   C15035652   2.798   7.089   2.086  0.2677  0.5981 -0.3955
   62MOL   O15135653   2.838   7.222   2.038 -0.4538 -0.2026 -0.5225
   62MOL   C15235654   2.829   7.327   2.132 -0.3617  0.0574  0.4293
   62MOL   C15335655   2.784   7.455   2.069  1.0420 -0.5840 -0.1789
   62MOL   C15435656   2.744   7.566   2.175  0.0227  0.3791 -0.2942
   62MOL   O15535657   2.833   7.675   2.184 -0.1617 -0.3223 -0.2042
   62MOL   C15635658   2.776   0.090   2.253  0.5108 -0.1797  0.8006
   62MOL   O15735659   2.719   0.175   2.154 -0.4287 -0.2262  0.3262
   62MOL   C15835660   2.899   0.157   2.314 -0.0523  0.5007  0.6095
   62MOL   O15935661   2.963   0.065   2.403  0.3694  0.4751  0.2795
   62MOL   H16035662   2.492   6.955   2.171  0.0874  1.6654 -1.7411
   62MOL   H16135663   2.642   6.873   2.175 -0.1545 -0.9502  1.7007
   62MOL   H16235664   2.605   7.173   2.131 -1.4314 -0.3933  0.1392
   62MOL   H16335665   2.630   7.126   1.905 -0.1400  0.8715  1.2922
   62MOL   H16435666   2.849   7.070   2.180 -0.6017  0.4379  0.0487
   62MOL   H16535667   2.840   7.011   2.023  0.4483  1.8803 -1.9072
   62MOL   H16635668   2.928   7.343   2.173  0.6289  0.6163 -2.1044
   62MOL   H16735669   2.770   7.297   2.219  0.3270 -0.2340  0.8000
   62MOL   H16835670   2.697   7.431   2.008  1.0022 -0.6245 -0.1054
   62MOL   H16935671   2.867   7.477   2.001 -0.5182  2.6073 -1.1264
   62MOL   H17035672   2.640   7.596   2.163 -0.2299  0.3607  1.7919
   62MOL   H17135673   2.746   7.519   2.273 -0.2521  1.5444  0.2773
   62MOL   H17235674   2.705   0.065   2.332  1.9496 -4.1022  0.9400
   62MOL   H17335675   2.779   0.194   2.084 -1.5340 -0.2952 -0.6481
   62MOL   H17435676   2.960   0.192   2.231  0.3491  0.3177  0.8296
   62MOL   H17535677   2.883   0.254   2.361  2.7135  1.1739  0.2434
   62MOL   C17635678   3.102   0.082   2.397  0.1516 -0.8865  0.1109
   62MOL   C17735679   3.170   7.656   2.451 -0.1390 -0.2319 -0.4579
   62MOL   O17835680   3.307   7.661   2.420 -0.2789  0.1388  0.1263
   62MOL   C17935681   3.125   7.516   2.402 -0.5029 -0.2709  0.2494
   62MOL   O18035682   3.208   7.424   2.469  0.1844 -0.0352 -0.1021
   62MOL   C18135683   3.190   7.292   2.415  0.0130 -0.5483 -0.0435
   62MOL   C18235684   3.270   7.191   2.506  0.4176 -0.0849 -0.4216
   62MOL   C18335685   3.412   7.149   2.459 -0.5633 -0.4317 -0.1686
   62MOL   O18435686   3.447   7.050   2.550  0.2454 -0.4378 -0.0559
   62MOL   C18535687   3.575   6.994   2.523  0.7057  0.1353  0.7930
   62MOL   O18635688   3.560   6.891   2.419 -0.0583 -0.5275  0.5339
   62MOL   C18735689   3.627   6.923   2.655  0.3068 -0.3238 -0.1656
   62MOL   O18835690   3.765   6.954   2.680 -0.0765 -0.2382 -0.6385
   62MOL   H18935691   3.125   0.173   2.452 -0.4522 -1.0344  0.6124
   62MOL   H19035692   3.129   0.103   2.293  1.7566  4.6941  1.4512
   62MOL   H19135693   3.153   7.657   2.559  1.0233 -0.6169 -0.2678
   62MOL   H19235694   3.350   7.582   2.448  0.5921  1.0478  1.4203
   62MOL   H19335695   3.018   7.502   2.421  0.3708 -3.3160  3.4347
   62MOL   H19435696   3.140   7.510   2.294  2.2023  0.8832  0.5409
   62MOL   H19535697   3.228   7.284   2.313  0.3621 -3.2774  0.2516
   62MOL   H19635698   3.087   7.258   2.420  0.4346 -1.8470  0.0424
   62MOL   H19735699   3.201   7.106   2.510 -0.9292  1.0572  0.8856
   62MOL   H19835700   3.274   7.234   2.606 -0.8398 -1.2888  0.1616
   62MOL   H19935701   3.410   7.124   2.353  0.4870  0.0658 -0.3146
   62MOL   H20035702   3.473   7.239   2.460 -1.3195  0.0895 -0.4244
   62MOL   H20135703   3.644   7.072   2.490  2.1202 -1.3259  0.2373
   62MOL   H20235704   3.515   6.817   2.457 -2.8826  0.1905 -1.2186
   62MOL   H20335705   3.567   6.956   2.740 -0.0618 -2.2989  0.3763
   62MOL   H20435706   3.611   6.817   2.635 -2.9574 -0.2223  1.5353
   62MOL   C20535707   3.856   6.901   2.584  0.3446  0.2901 -0.4370
   62MOL   C20635708   3.994   6.929   2.644 -0.7040 -0.5008 -0.2612
   62MOL   O20735709   4.009   6.825   2.739 -0.0040 -0.0514  0.0091
   62MOL   C20835710   4.113   6.903   2.536  0.6521 -0.3516 -0.2322
   62MOL   O20935711   4.232   6.939   2.603  0.1447  0.2616 -0.3406
   62MOL   C21035712   4.350   6.922   2.519  0.2693 -0.4273  0.0211
   62MOL   C21135713   4.474   6.914   2.612 -0.3808  0.6798  0.2024
   62MOL   C21235714   4.524   7.047   2.665 -0.1025 -0.3739 -0.1289
   62MOL   O21335715   4.561   7.119   2.552 -0.0242  0.1609  0.4466
   62MOL   C21435716   4.665   7.214   2.570  0.3068 -1.0163 -0.4785
   62MOL   O21535717   4.628   7.327   2.651 -0.1866  0.1210 -0.0769
   62MOL   C21635718   4.709   7.262   2.440 -0.0352  0.3175  0.1639
   62MOL   O21735719   4.595   7.320   2.377 -0.1901  0.0348 -0.2103
   62MOL   H21835720   3.854   6.957   2.491  0.4419  0.9283 -0.0595
   62MOL   H21935721   3.841   6.794   2.573  1.1057  0.4251 -3.0558
   62MOL   H22035722   3.994   7.031   2.682  0.1110  0.4753 -2.7725
   62MOL   H22135723   4.098   6.847   2.763 -0.5801  3.3326 -0.6955
   62MOL   H22235724   4.109   6.803   2.493 -1.8087  0.5308 -2.2002
   62MOL   H22335725   4.103   6.969   2.450 -0.8369  3.5547  2.7771
   62MOL   H22435726   4.357   6.999   2.443 -0.3814  0.2066  0.5991
   62MOL   H22535727   4.345   6.834   2.455  1.5876 -0.3967 -0.1403
   62MOL   H22635728   4.561   6.876   2.557 -0.0231  0.3987  0.9528
   62MOL   H22735729   4.448   6.857   2.701 -2.9673 -1.4273 -1.7943
   62MOL   H22835730   4.450   7.106   2.720 -0.7161 -0.4207 -0.8798
   62MOL   H22935731   4.609   7.033   2.731  1.3669 -1.9938 -2.2616
   62MOL   H23035732   4.738   7.153   2.623  1.0031  1.1544  1.1285
   62MOL   H23135733   4.593   7.395   2.595  3.1990  1.8510 -0.2314
   62MOL   H23235734   4.789   7.332   2.461  3.0607 -2.7074 -1.0727
   62MOL   H23335735   4.750   7.181   2.379 -0.0689 -0.2009  0.8287
   62MOL   C23435736   4.619   7.402   2.263  0.0218 -0.7451 -0.1334
   62MOL   C23535737   4.488   7.471   2.213  0.2041 -0.6509 -0.1969
   62MOL   O23635738   4.502   7.488   2.078  0.2362 -0.0757  0.4289
   62MOL   C23735739   4.465   7.607   2.278  0.0909  0.5093 -0.5060
   62MOL   O23835740   4.332   7.657   2.257  0.1382 -0.2167  0.2230
   62MOL   C23935741   4.290   0.063   2.348 -0.1107 -0.2329 -0.2218
   62MOL   C24035742   4.140   0.038   2.373 -0.3208  0.2822 -0.0721
   62MOL   C24135743   4.088   0.140   2.472 -0.1766  0.0399  0.4674
   62MOL   O24235744   3.945   0.114   2.485 -0.0821  0.2870 -0.1098
   62MOL   C24335745   3.877   0.222   2.542 -0.2312  0.8232 -0.0113
   62MOL   O24435746   3.918   0.224   2.675 -0.1518  0.0185 -0.3776
   62MOL   C24535747   3.730   0.183   2.519 -0.0468 -0.0342  0.2081
   62MOL   O24635748   3.685   0.234   2.397 -0.1301 -0.0813  0.5676
   62MOL   H24735749   4.694   7.479   2.278 -0.3859 -0.4754  0.5559
   62MOL   H24835750   4.661   7.344   2.181  0.7818  1.9586 -1.6904
   62MOL   H24935751   4.400   7.408   2.223 -0.1654 -0.5079 -2.2651
   62MOL   H25035752   4.419   7.526   2.055  0.1302 -0.1107  0.7544
   62MOL   H25135753   4.479   7.580   2.383  2.0302 -0.8623 -1.0978
   62MOL   H25235754   4.548   7.666   2.240 -1.7179  2.7904 -1.0933
   62MOL   H25335755   4.308   0.164   2.310 -0.5853 -1.3503 -3.5345
   62MOL   H25435756   4.344   0.055   2.443 -0.3827  1.4423  0.0870
   62MOL   H25535757   4.115   7.633   2.409  1.0952 -0.6553 -1.6447
   62MOL   H25635758   4.087   0.049   2.278 -1.5944 -0.4961  0.5312
   62MOL   H25735759   4.145   0.132   2.564 -1.0365  0.0314  0.9988
   62MOL   H25835760   4.112   0.245   2.455 -0.3616  0.4432  2.6243
   62MOL   H25935761   3.895   0.321   2.499  2.5504  0.2125 -0.3752
   62MOL   H26035762   3.890   0.142   2.714  0.1207  0.4549  0.7397
   62MOL   H26135763   3.715   0.076   2.534  1.1076 -0.3674 -0.8832
   62MOL   H26235764   3.672   0.234   2.596  0.8127  2.8957 -1.0065
   62MOL   C26335765   3.554   0.205   2.365 -0.1294  0.2974  0.3331
   62MOL   C26435766   3.530   0.254   2.223  1.0992  0.3230 -0.1186
   62MOL   O26535767   3.576   0.151   2.136 -1.1657  0.2007  0.2894
   62MOL   C26635768   3.380   0.263   2.207 -0.1852 -0.0938 -0.4662
   62MOL   O26735769   3.339   0.385   2.276 -0.3334 -0.3650 -0.2273
   62MOL   C26835770   3.200   0.423   2.250  0.7624 -0.2789 -0.1855
   62MOL   C26935771   3.176   0.546   2.334  0.5469  0.4464  1.0520
   62MOL   C27035772   3.168   0.506   2.483  0.6036 -0.1683  0.4901
   62MOL   O27135773   3.037   0.553   2.533 -0.1215 -0.1525 -0.5306
   62MOL   C27235774   2.988   0.472   2.633 -0.7477  0.3771 -0.1615
   62MOL   O27335775   3.073   0.465   2.749 -0.2162 -0.4285 -0.3143
   62MOL   C27435776   2.858   0.533   2.673  0.3862  1.2535 -0.3231
   62MOL   O27535777   2.766   0.435   2.729 -0.1367  0.1068 -0.8728
   62MOL   H27635778   3.494   0.243   2.448  0.1349 -1.0935  1.1902
   62MOL   H27735779   3.525   0.099   2.365  0.6148  0.0526 -2.5900
   62MOL   H27835780   3.576   0.349   2.198  1.4245 -0.4659 -2.7092
   62MOL   H27935781   3.530   0.075   2.166  0.5819 -0.9008  0.2538
   62MOL   H28035782   3.356   0.254   2.101  2.2967 -0.0816 -1.0597
   62MOL   H28135783   3.327   0.189   2.268 -0.5489 -0.6753 -1.4795
   62MOL   H28235784   3.128   0.345   2.278  0.6772  0.5343  1.9564
   62MOL   H28335785   3.199   0.448   2.144 -0.5142  1.0645  0.1232
   62MOL   H28435786   3.085   0.595   2.298  1.0023 -0.0412 -0.8290
   62MOL   H28535787   3.256   0.618   2.317 -0.9337  1.6753 -1.0343
   62MOL   H28635788   3.179   0.400   2.503  1.2168  0.0281  1.1780
   62MOL   H28735789   3.242   0.543   2.553  2.1302  0.7213 -1.5411
   62MOL   H28835790   2.962   0.369   2.607 -1.6447  0.4895  0.2596
   62MOL   H28935791   3.154   0.419   2.736  0.5464  0.4481  1.1919
   62MOL   H29035792   2.879   0.622   2.733  0.3208 -0.5409  2.4793
   62MOL   H29135793   2.815   0.564   2.578  0.5696 -0.1650 -0.8858
   62MOL   C29235794   2.641   0.489   2.753 -0.7710 -0.6498  0.8823
   62MOL   C29335795   2.529   0.384   2.775  0.8273 -0.0661 -0.5037
   62MOL   O29435796   2.525   0.336   2.909  0.3441  0.2213 -0.1156
   62MOL   C29535797   2.391   0.434   2.738 -0.2024  0.6293 -0.5337
   62MOL   O29635798   2.348   0.551   2.805  0.3782 -0.4246  0.2808
   62MOL   C29735799   2.210   0.576   2.783 -0.8053  0.4665 -0.1163
   62MOL   C29835800   2.116   0.512   2.890  0.4050  0.8380 -0.7488
   62MOL   C29935801   1.967   0.509   2.853  0.5923 -1.0349 -0.7652
   62MOL   O30035802   1.880   0.495   2.966  0.5765 -0.3178 -0.0190
   62MOL   C30135803   1.742   0.513   2.941  0.8315  0.6657  0.2046
   62MOL   O30235804   1.691   0.391   2.880  0.5947 -0.2591  0.3857
   62MOL   C30335805   1.679   0.522   3.084 -0.3417  0.0729  0.3008
   62MOL   O30435806   1.694   0.399   3.148  0.0865  0.2699 -0.3967
   62MOL   H30535807   2.651   0.568   2.828  0.3040  0.7707 -0.7241
   62MOL   H30635808   2.602   0.548   2.671 -2.0713 -2.5342  0.1279
   62MOL   H30735809   2.562   0.302   2.712 -0.0716  0.3226 -1.4851
   62MOL   H30835810   2.504   0.407   2.968 -1.0369 -1.5335  1.5887
   62MOL   H30935811   2.402   0.446   2.630 -0.6117 -2.7191 -1.0102
   62MOL   H31035812   2.324   0.351   2.761  1.0822  0.0020  0.9565
   62MOL   H31135813   2.183   0.523   2.692  0.0072  0.1332 -0.1633
   62MOL   H31235814   2.188   0.682   2.767 -2.3107  0.1108 -0.4549
   62MOL   H31335815   2.130   0.562   2.986  0.7103  1.1949 -0.9799
   62MOL   H31435816   2.132   0.406   2.912  0.7664  0.9228 -0.6102
   62MOL   H31535817   1.931   0.601   2.807  0.8666 -0.7440 -0.4076
   62MOL   H31635818   1.944   0.425   2.788 -0.9469 -0.5735 -0.8439
   62MOL   H31735819   1.711   0.598   2.881  2.3932  1.0306 -0.1188
   62MOL   H31835820   1.633   0.346   2.939  2.5886 -3.6483 -0.0987
   62MOL   H31935821   1.572   0.523   3.065 -0.1083  2.3867 -0.9335
   62MOL   H32035822   1.714   0.611   3.136 -1.9009  1.7511 -1.4940
   62MOL   C32135823   1.623   0.392   3.272  0.1273 -0.0967 -0.3143
   62MOL   C32235824   1.640   0.253   3.342 -0.2583 -0.6474 -0.0905
   62MOL   O32335825   1.570   0.162   3.259 -0.1612 -0.1204  0.1447
   62MOL   C32435826   1.788   0.209   3.359 -0.2079 -0.1586 -0.2884
   62MOL   O32535827   1.795   0.170   3.490 -0.6180  0.5955 -1.3136
   62MOL   C32635828   1.921   0.112   3.518 -0.3847 -0.1174 -0.9629
   62MOL   C32735829   1.935   0.083   3.670  0.0670  0.0565  0.5243
   62MOL   C32835830   1.902   0.200   3.756  0.4401 -0.2989 -0.0825
   62MOL   O32935831   1.889   0.150   3.889  0.0822  0.2984  0.0192
   62MOL   C33035832   1.824   0.243   3.970 -0.2549 -0.8563  0.7856
   62MOL   O33135833   1.688   0.263   3.942  0.2964 -0.2393  0.5391
   62MOL   C33235834   1.840   0.194   4.120 -0.4016  0.0064  0.2652
   62MOL   O33335835   1.962   0.254   4.177 -0.5454 -0.2401  0.1847
   62MOL   H33435836   1.519   0.414   3.248 -0.1999 -2.3775 -1.0603
   62MOL   H33535837   1.649   0.463   3.351 -0.7173  1.0041 -1.0154
   62MOL   H33635838   1.590   0.262   3.439  1.6886  3.3336  0.6388
   62MOL   H33735839   1.628   0.144   3.186  0.4281  0.5703  0.4447
   62MOL   H33835840   1.850   0.294   3.328  0.6256 -0.6670 -0.0174
   62MOL   H33935841   1.815   0.123   3.298  0.2754  0.0403 -0.3616
   62MOL   H34035842   2.008   0.168   3.483  0.7937 -0.4217  1.4187
   62MOL   H34135843   1.920   0.020   3.460 -0.8509 -0.3052 -0.6608
   62MOL   H34235844   1.871   7.693   3.696 -2.4268  1.1947 -1.6392
   62MOL   H34335845   2.041   0.065   3.684 -0.0015 -0.5719  0.2607
   62MOL   H34435846   1.975   0.281   3.754  0.3381 -0.1732  0.8217
   62MOL   H34535847   1.810   0.249   3.724 -0.0772  0.3670  2.3103
   62MOL   H34635848   1.876   0.338   3.961  0.8640 -1.5880 -0.7258
   62MOL   H34735849   1.655   0.174   3.937 -0.7481  0.0613  1.8954
   62MOL   H34835850   1.756   0.227   4.180 -0.5619  1.4458 -0.7214
   62MOL   H34935851   1.833   0.086   4.134  2.4212 -0.2532  0.0174
   62MOL   C35035852   2.090   0.202   4.139  0.3597 -0.5253  0.0331
   62MOL   C35135853   2.205   0.303   4.158 -0.7458  0.1014 -0.8532
   62MOL   O35235854   2.326   0.250   4.195 -0.0112  0.2770  0.1885
   62MOL   C35335855   2.230   0.392   4.038 -0.2248  0.3437  0.3486
   62MOL   O35435856   2.126   0.486   4.032 -0.0066  0.0982 -0.0191
   62MOL   C35535857   2.160   0.591   3.942  0.4116 -0.5583  0.1741
   62MOL   C35635858   2.048   0.685   3.914 -0.3315  0.2237 -0.5585
   62MOL   C35735859   1.958   0.621   3.808 -1.1428  0.2395  0.1449
   62MOL   O35835860   1.856   0.710   3.760  0.1269 -0.5720  0.1509
   62MOL   C35935861   1.762   0.652   3.677  0.0868  0.1199  0.3572
   62MOL   O36035862   1.684   0.554   3.742  0.1029  0.0301  0.4370
   62MOL   C36135863   1.675   0.750   3.607 -0.4923 -0.7948 -0.9823
   62MOL   O36235864   1.569   0.788   3.701 -0.5879 -0.7019  0.0856
   62MOL   H36335865   2.089   0.163   4.037  1.0145  0.7067 -0.4459
   62MOL   H36435866   2.100   0.113   4.202  1.3404 -0.9900 -0.7532
   62MOL   H36535867   2.179   0.378   4.233 -1.8450 -1.2802  0.1703
   62MOL   H36635868   2.393   0.316   4.182 -0.0815  0.0535 -1.3777
   62MOL   H36735869   2.328   0.440   4.034  1.1572 -2.4884 -0.9721
   62MOL   H36835870   2.225   0.325   3.953  0.6209  1.5065 -0.6501
   62MOL   H36935871   2.216   0.565   3.852  1.3674  0.2428  0.5243
   62MOL   H37035872   2.234   0.649   3.999  1.1812  0.9043 -2.2305
   62MOL   H37135873   2.082   0.784   3.886 -0.2221  1.2700  3.0415
   62MOL   H37235874   1.997   0.697   4.009  0.3529 -0.2899 -0.1209
   62MOL   H37335875   2.016   0.604   3.718  2.1659  1.4589  1.9651
   62MOL   H37435876   1.927   0.520   3.835 -0.2838 -0.1598 -0.3498
   62MOL   H37535877   1.813   0.595   3.599  1.1037  1.5475 -0.0476
   62MOL   H37635878   1.625   0.600   3.800  0.5563 -0.0124  0.9309
   62MOL   H37735879   1.735   0.834   3.573  0.2124 -0.9837 -0.2224
   62MOL   H37835880   1.647   0.702   3.513  0.5431 -1.3310 -1.0214
   62MOL   C37935881   1.510   0.907   3.652 -0.3578  0.2637  0.7399
   62MOL   C38035882   1.410   0.973   3.746  0.4036 -0.2144 -0.1084
   62MOL   O38135883   1.394   1.107   3.694  0.3803  0.4828 -0.0757
   62MOL   C38235884   1.270   0.901   3.748  0.2100 -0.3119  0.4232
   62MOL   O38335885   1.196   0.935   3.872  0.0855  0.2247  0.0980
   62MOL   C38435886   1.145   1.064   3.885 -0.1276 -0.5664  0.0137
   62MOL   C38535887   1.064   1.077   4.018  0.6961 -0.4216 -0.2751
   62MOL   C38635888   0.978   1.200   4.026  0.6739  0.3285 -0.8684
   62MOL   O38735889   0.884   1.189   4.129  0.5460  0.0975 -0.0803
   62MOL   C38835890   0.918   1.237   4.253 -0.0773  0.1659 -0.5561
   62MOL   O38935891   0.935   1.376   4.255 -0.1735  0.0508  0.0797
   62MOL   C39035892   0.802   1.200   4.348  0.2267 -0.1213 -0.2675
   62MOL   O39135893   0.682   1.268   4.316  0.2092 -0.1226  0.2881
   62MOL   H39235894   1.466   0.886   3.555 -0.0024  2.6011  0.0449
   62MOL   H39335895   1.593   0.976   3.635 -1.4825  1.5247  0.2870
   62MOL   H39435896   1.449   0.974   3.848  0.6065 -1.0532 -0.1797
   62MOL   H39535897   1.309   1.116   3.652 -0.1388 -3.4984 -0.0751
   62MOL   H39635898   1.211   0.922   3.659  0.1159 -0.7168  0.3892
   62MOL   H39735899   1.278   0.792   3.742  0.3911 -0.1482 -2.9088
   62MOL   H39835900   1.092   1.083   3.791  2.0964 -1.7479 -1.5290
   62MOL   H39935901   1.222   1.141   3.890 -0.3194 -0.4072  0.5413
   62MOL   H40035902   1.147   1.075   4.088 -0.5118 -2.6987  1.1697
   62MOL   H40135903   1.006   0.986   4.035 -0.7158 -0.0103 -2.6482
   62MOL   H40235904   1.039   1.290   4.037 -0.5062  1.0141  0.2779
   62MOL   H40335905   0.907   1.217   3.944  0.0334 -0.9125 -0.5882
   62MOL   H40435906   1.010   1.193   4.290 -0.3169 -0.3910 -0.6091
   62MOL   H40535907   0.852   1.417   4.239  0.7536  1.3712 -1.5247
   62MOL   H40635908   0.788   1.093   4.362 -2.3167  0.4696  1.9507
   62MOL   H40735909   0.828   1.216   4.452 -3.0209 -0.0959  0.5848
   62MOL   C40835910   0.591   1.254   4.426 -0.4606  0.8104  0.1021
   62MOL   C40935911   0.453   1.299   4.395 -0.5190  0.5909 -0.3096
   62MOL   O41035912   0.449   1.447   4.388 -0.4241  0.0174  0.0631
   62MOL   C41135913   0.349   1.262   4.510 -0.3490 -0.0500 -0.2971
   62MOL   O41235914   0.226   1.216   4.462 -0.4702 -0.3350  0.1410
   62MOL   C41335915   0.212   1.081   4.464 -0.3886 -0.5586 -0.2940
   62MOL   C41435916   0.076   1.041   4.426  0.6536 -0.0486  0.4563
   62MOL   C41535917   0.055   1.045   4.274 -0.0085 -0.2378 -0.0197
   62MOL   O41635918   7.634   0.975   4.230 -0.1189 -0.0071 -0.0897
   62MOL   C41735919   7.611   0.974   4.094 -0.5878 -0.9763  0.6237
   62MOL   O41835920   7.597   1.105   4.035 -0.4087 -0.8169 -0.1005
   62MOL   C41935921   7.496   0.878   4.069 -0.2890  0.0894 -0.2431
   62MOL   O42035922   7.384   0.915   4.145  0.3847  0.2769 -0.3372
   62MOL   H42135923   0.635   1.299   4.515  1.0936  0.3861 -0.4425
   62MOL   H42235924   0.594   1.151   4.462 -1.1155 -0.2350 -2.7161
   62MOL   H42335925   0.404   1.252   4.310  1.2484  0.8001 -1.4739
   62MOL   H42435926   0.373   1.466   4.336  0.2945  0.5626 -0.7996
   62MOL   H42535927   0.390   1.181   4.571 -1.3492 -0.5698 -0.3120
   62MOL   H42635928   0.327   1.350   4.571 -1.4561 -1.2167  1.0138
   62MOL   H42735929   0.285   1.030   4.401  1.5227  1.0089  0.5779
   62MOL   H42835930   0.231   1.045   4.565 -2.8487 -1.5717 -0.1677
   62MOL   H42935931   0.006   1.111   4.471  0.5152  0.0621  0.0712
   62MOL   H43035932   0.075   0.942   4.470  0.0986 -0.3955 -0.3363
   62MOL   H43135933   0.036   1.151   4.256  3.2498  0.4149  0.1820
   62MOL   H43235934   0.143   1.015   4.217  0.9453  1.7338  0.3809
   62MOL   H43335935   7.694   0.920   4.049  0.0188  1.2081 -0.9735
   62MOL   H43435936   7.550   1.159   4.097  3.1393  2.7651 -0.2925
   62MOL   H43535937   7.477   0.877   3.961 -0.2673 -0.7534 -0.2461
   62MOL   H43635938   7.532   0.781   4.103  2.3918  1.2956  0.4877
   62MOL   C43735939   7.267   0.840   4.150  0.6546  0.3662 -0.4250
   62MOL   C43835940   7.154   0.924   4.184  0.6022  0.5003  0.3715
   62MOL   O43935941   7.050   0.843   4.228  0.0083 -0.1155  0.3575
   62MOL   C44035942   7.095   1.008   4.071 -0.1889  0.1810 -0.4497
   62MOL   O44135943   6.982   1.073   4.133  0.2775  0.2207 -0.0023
   62MOL   C44235944   6.918   1.162   4.048 -0.2463  0.5989 -0.0957
   62MOL   C44335945   6.782   1.208   4.096 -0.4346  0.4744 -0.5828
   62MOL   C44435946   6.722   1.303   4.006 -0.7830  0.1017  0.2267
   62MOL   O44535947   6.590   1.342   4.041  0.1200  0.1248 -0.1126
   62MOL   C44635948   6.543   1.462   3.978 -0.7062  0.2285 -0.1199
   62MOL   O44735949   6.617   1.576   4.013 -0.0714 -0.3990  0.6868
   62MOL   C44835950   6.397   1.481   4.027 -0.1973 -0.0885 -0.0671
   62MOL   O44935951   6.315   1.557   3.928  0.3863  0.5970 -0.0882
   62MOL   H45035952   7.249   0.782   4.060  1.6622 -1.0897  0.2864
   62MOL   H45135953   7.297   0.773   4.231  3.1550 -0.2169 -1.7696
   62MOL   H45235954   7.185   0.998   4.258 -1.1795 -0.3275  1.9905
   62MOL   H45335955   6.998   0.903   4.278  0.4311  0.7468 -0.2137
   62MOL   H45435956   7.163   1.079   4.023  1.0331 -1.0198 -0.5222
   62MOL   H45535957   7.061   0.947   3.988  2.6192 -2.8012  0.4885
   62MOL   H45635958   6.910   1.109   3.952  4.5176  2.0899 -1.4648
   62MOL   H45735959   6.987   1.243   4.024 -0.2756  0.4694 -0.6242
   62MOL   H45835960   6.811   1.251   4.191  1.4519  0.0181 -0.9469
   62MOL   H45935961   6.711   1.128   4.118 -1.5295  1.1798 -1.4871
   62MOL   H46035962   6.788   1.389   3.994 -1.1809  0.1851 -1.4315
   62MOL   H46135963   6.721   1.257   3.907  0.4773  3.1981 -1.3173
   62MOL   H46235964   6.527   1.445   3.871 -2.8377 -2.4592  0.5824
   62MOL   H46335965   6.559   1.647   4.038 -0.4482 -0.0125 -1.2353
   62MOL   H46435966   6.351   1.384   4.048 -0.4228 -0.0574 -0.4031
   62MOL   H46535967   6.394   1.549   4.112 -3.2188 -1.9109  1.3752
   62MOL   C46635968   6.341   1.688   3.908 -0.0722 -0.0775  0.6740
   62MOL   C46735969   6.217   1.767   3.846  0.3139  0.2671 -0.5508
   62MOL   O46835970   6.231   1.913   3.865 -0.4587 -0.1562  0.2789
   62MOL   C46935971   6.182   1.726   3.707 -0.2788  0.5729 -0.7500
   62MOL   O47035972   6.303   1.737   3.628  0.8327 -0.1049 -0.1683
   62MOL   C47135973   6.288   1.682   3.498 -0.0081 -0.2663  0.0233
   62MOL   C47235974   6.399   1.584   3.460 -0.0992  0.6024 -0.2491
   62MOL   C47335975   6.416   1.469   3.553  0.4881 -0.8245  0.5175
   62MOL   O47435976   6.515   1.379   3.508 -0.2537 -0.3970 -0.5605
   62MOL   C47535977   6.518   1.243   3.543  0.2564 -0.5116 -0.3799
   62MOL   O47635978   6.547   1.219   3.679 -0.2055  0.6947 -0.5028
   62MOL   C47735979   6.626   1.178   3.454 -0.2092  0.7658 -0.1681
   62MOL   O47835980   6.571   1.058   3.407 -0.6781  0.4528 -0.0180
   62MOL   H47935981   6.426   1.700   3.841  0.0922 -1.9004  0.5330
   62MOL   H48035982   6.356   1.730   4.008 -2.9235  0.7362  0.7888
   62MOL   H48135983   6.134   1.733   3.909 -0.2534 -0.0334 -1.4491
   62MOL   H48235984   6.321   1.942   3.873 -1.4757  2.8007  1.5048
   62MOL   H48335985   6.139   1.626   3.712  0.4547  0.2185 -1.4861
   62MOL   H48435986   6.104   1.797   3.678 -0.9063 -0.3140 -1.2437
   62MOL   H48535987   6.278   1.764   3.427  1.7657  1.1245  1.3356
   62MOL   H48635988   6.196   1.624   3.486  0.1813 -0.2967 -1.3874
   62MOL   H48735989   6.487   1.647   3.472  0.0393  0.1591  1.1790
   62MOL   H48835990   6.390   1.570   3.352  1.9920  0.1251 -0.3770
   62MOL   H48935991   6.444   1.492   3.656  0.1156 -0.4717  0.5397
   62MOL   H49035992   6.324   1.411   3.557 -1.1812  1.6573 -0.6286
   62MOL   H49135993   6.419   1.197   3.530  0.1574 -0.4651  0.2054
   62MOL   H49235994   6.589   1.135   3.687  1.8623  1.6020 -1.5020
   62MOL   H49335995   6.654   1.250   3.378  1.9338 -0.8528 -0.9783
   62MOL   H49435996   6.709   1.169   3.524  0.9998  3.2264 -1.2436
   62MOL   C49535997   6.661   0.987   3.326 -0.1072  0.5811  0.1528
   62MOL   C49635998   6.672   1.033   3.185 -0.1816  0.3239  0.0738
   62MOL   O49735999   6.749   1.149   3.169 -0.7219 -0.1853  0.1262
   62MOL   C49836000   6.735   0.925   3.085  0.0418  0.3103  0.2339
   62MOL   O49936001   6.850   0.867   3.141 -0.2339 -0.2637 -0.1077
   62MOL   C50036002   6.913   0.786   3.041 -0.7970  0.0470  0.0768
   62MOL   C50136003   7.031   0.719   3.116 -0.4615 -0.5490  0.5157
   62MOL   C50236004   7.089   0.603   3.026  0.0268 -0.3572  0.3379
   62MOL   O50336005   6.997   0.499   3.008  0.2578  0.1436 -0.9107
   62MOL   C50436006   7.028   0.394   2.919  0.0859 -0.3047 -0.2363
   62MOL   O50536007   6.917   0.360   2.838  0.0720  0.2627  0.3504
   62MOL   C50636008   7.083   0.274   3.000 -0.0332  0.5768 -0.2752
   62MOL   O50736009   7.186   0.216   2.925 -0.0430  0.1943  0.1200
   62MOL   H50836010   6.622   0.885   3.334 -3.3174  1.7940  0.9286
   62MOL   H50936011   6.760   0.979   3.370 -0.1584 -0.8131  0.0431
   62MOL   H51036012   6.576   1.055   3.137 -1.1493 -2.4408  0.6749
   62MOL   H51136013   6.833   1.121   3.136 -0.5419  0.6549 -0.1549
   62MOL   H51236014   6.660   0.846   3.076 -0.6437  1.0714 -0.8132
   62MOL   H51336015   6.754   0.965   2.986  2.3297 -0.0980  0.4877
   62MOL   H51436016   6.951   0.850   2.962 -2.8556  0.2636 -0.7607
   62MOL   H51536017   6.841   0.715   3.001 -0.0723 -1.2152  0.9731
   62MOL   H51636018   6.993   0.689   3.213 -1.0983 -1.6173 -0.0611
   62MOL   H51736019   7.096   0.806   3.128  1.0946 -1.9313  2.2919
   62MOL   H51836020   7.098   0.653   2.930  0.4228  2.8296  1.9785
   62MOL   H51936021   7.184   0.562   3.063  0.1614  1.4512  2.0780
   62MOL   H52036022   7.102   0.432   2.848 -0.8460  0.1496 -0.9860
   62MOL   H52136023   6.960   0.333   2.759 -0.8518  0.1366 -0.1144
   62MOL   H52236024   7.123   0.296   3.099  0.1853  2.0931 -0.6825
   62MOL   H52336025   6.998   0.206   3.012  1.4260 -1.2093  0.1599
   62MOL   C52436026   7.239   0.098   2.976  0.1391  0.3844  0.2229
   62MOL   C52536027   7.352   0.072   2.873 -0.6066  0.2471  0.1156
   62MOL   O52636028   7.286   0.059   2.747 -0.4682  0.4832  0.4433
   62MOL   C52736029   7.430   7.633   2.904  0.0187 -0.4620  0.1898
   62MOL   O52836030   7.570   7.640   2.866  0.1564 -0.6888  0.4365
   62MOL   C52936031   7.646   7.522   2.911  0.0219  0.1631  0.5233
   62MOL   C53036032   0.089   7.536   2.850  0.3562 -0.2107 -0.2516
   62MOL   C53136033   0.193   7.453   2.923 -0.2007 -0.2518  0.2802
   62MOL   O53236034   0.314   7.468   2.853 -0.2490  0.5684  0.4905
   62MOL   C53336035   0.430   7.419   2.920 -0.0382 -0.0696 -0.1777
   62MOL   O53436036   0.443   7.280   2.881  0.1937 -0.6062 -0.0543
   62MOL   C53536037   0.552   7.494   2.861 -0.4639  0.1935  0.6379
   62MOL   O53636038   0.563   7.629   2.897 -0.5201  0.0269  0.2897
   62MOL   H53736039   7.156   0.028   2.994  0.1225  0.6310  1.1123
   62MOL   H53836040   7.293   0.111   3.069  1.5037  0.7558 -0.6155
   62MOL   H53936041   7.419   0.157   2.865  1.3680 -1.0729  1.9172
   62MOL   H54036042   7.212   0.001   2.756 -0.5283  0.6421  0.9600
   62MOL   H54136043   7.416   7.624   3.012  0.4512 -0.7254  0.2248
   62MOL   H54236044   7.383   7.546   2.858  1.0648 -0.0201 -1.7464
   62MOL   H54336045   7.613   7.428   2.867 -1.4136 -0.9697  3.8664
   62MOL   H54436046   7.653   7.513   3.020 -2.4234 -0.8585  0.6106
   62MOL   H54536047   0.118   7.641   2.856  0.7874 -0.1168 -3.0486
   62MOL   H54636048   0.085   7.509   2.744  0.3227 -0.4190 -0.1966
   62MOL   H54736049   0.205   7.489   3.026 -2.1130  0.1164  0.3861
   62MOL   H54836050   0.167   7.348   2.919 -0.4532 -0.1066 -2.8883
   62MOL   H54936051   0.421   7.423   3.028  1.0675  2.2655 -0.1460
   62MOL   H55036052   0.361   7.233   2.887 -0.8515  1.1527 -0.0846
   62MOL   H55136053   0.642   7.443   2.894 -0.3126  0.0276 -0.0295
   62MOL   H55236054   0.561   7.477   2.753  0.9831 -3.2498  1.2424
   62MOL   C55336055   0.454   0.017   2.862  1.1640  0.0347 -0.0277
   62MOL   C55436056   0.518   0.156   2.885 -0.1663 -0.3021 -0.4050
   62MOL   O55536057   0.492   0.198   3.021 -0.2063 -0.2893 -0.2063
   62MOL   C55636058   0.439   0.255   2.795  0.4656 -0.7386 -0.0661
   62MOL   O55736059   0.484   0.392   2.824  0.1883 -0.3904  0.6259
   62MOL   C55836060   0.451   0.495   2.729 -0.7439  0.4950 -0.2412
   62MOL   C55936061   0.533   0.619   2.761  0.4502  0.4734 -0.3233
   62MOL   C56036062   0.685   0.602   2.734 -0.4576  0.3236 -0.1323
   62MOL   O56136063   0.716   0.605   2.597  0.2794  0.6864 -0.1030
   62MOL   C56236064   0.847   0.562   2.573  0.0491 -0.7392 -0.6586
   62MOL   O56336065   0.863   0.425   2.584 -0.5900  0.1707 -0.1552
   62MOL   C56436066   0.873   0.608   2.428  0.2333 -0.1606  0.2393
   62MOL   O56536067   0.807   0.526   2.334 -0.3962 -0.1062 -0.0431
   62MOL   H56636068   0.368   0.002   2.927  1.9309 -3.0377  0.3933
   62MOL   H56736069   0.424   7.685   2.761  2.2409  0.2279 -0.4049
   62MOL   H56836070   0.624   0.157   2.863  0.5923 -1.3790  2.8908
   62MOL   H56936071   0.504   0.291   3.023  0.7241 -0.3765 -1.3886
   62MOL   H57036072   0.459   0.247   2.688 -0.3655 -0.2463 -0.2676
   62MOL   H57136073   0.331   0.246   2.808  0.3816  0.3503  0.0271
   62MOL   H57236074   0.476   0.451   2.632  0.8398  1.6560 -0.3770
   62MOL   H57336075   0.344   0.514   2.729 -0.8585 -0.0183  2.0714
   62MOL   H57436076   0.511   0.640   2.865  1.6671  0.8171 -0.1258
   62MOL   H57536077   0.497   0.705   2.705 -0.8322 -0.0191 -0.2541
   62MOL   H57636078   0.747   0.676   2.784  0.0074 -0.7802  0.9702
   62MOL   H57736079   0.718   0.508   2.779 -0.7352  0.9623  1.4291
   62MOL   H57836080   0.915   0.603   2.647 -1.7769  0.3349  0.4588
   62MOL   H57936081   0.851   0.389   2.497 -0.4869 -2.0845  0.7181
   62MOL   H58036082   0.855   0.713   2.406 -0.6098 -0.4984 -0.6947
   62MOL   H58136083   0.978   0.597   2.400 -0.3869 -0.4525 -2.1104
   62MOL   H58236084   0.717   0.555   2.341 -0.9572 -2.3710  2.9276
   63MOL     C136085   7.159   5.500   6.565  0.6288 -0.1982 -0.9317
   63MOL     C236086   7.094   5.632   6.520 -0.4611  0.3776 -0.0368
   63MOL     O336087   6.967   5.614   6.455 -1.0230  0.5396  0.1373
   63MOL     C436088   7.088   5.741   6.628 -0.0782 -0.1800 -0.5258
   63MOL     O536089   7.042   5.690   6.750  0.1813  0.2447  0.0183
   63MOL     C636090   6.902   5.678   6.774 -0.0679  0.5353  0.3473
   63MOL     C736091   6.886   5.563   6.875 -0.1670  0.1563 -1.2207
   63MOL     C836092   6.737   5.512   6.896  0.5365  0.7872 -0.0064
   63MOL     O936093   6.676   5.595   6.991 -0.2174  0.1049  0.9663
   63MOL    C1036094   6.571   5.673   6.948  0.5341  0.2450  0.7919
   63MOL    O1136095   6.607   5.778   6.861  0.3379 -0.0415 -0.2263
   63MOL    C1236096   6.498   5.727   7.071 -0.1988 -0.7011 -0.6021
   63MOL    O1336097   6.575   5.826   7.132 -0.2692 -0.4309 -0.0449
   63MOL    H1436098   7.254   5.480   6.516  0.8838 -1.3694  0.0277
   63MOL    H1536099   7.103   5.410   6.540  1.2362 -0.6356 -0.7045
   63MOL    H1636100   7.155   5.674   6.440 -2.1360  3.7460  0.3489
   63MOL    H1736101   6.915   5.692   6.466 -0.3595  0.8610  1.0818
   63MOL    H1836102   7.183   5.793   6.645 -0.1820 -0.6675  1.8271
   63MOL    H1936103   7.026   5.824   6.595  1.4387  1.0269 -0.3960
   63MOL    H2036104   6.838   5.674   6.686  0.4523 -0.5238  0.0088
   63MOL    H2136105   6.882   5.771   6.827  0.6662  0.2778  1.0856
   63MOL    H2236106   6.931   5.584   6.972 -0.5919 -1.0778 -0.7454
   63MOL    H2336107   6.942   5.475   6.842  1.6406  0.8543 -0.0837
   63MOL    H2436108   6.687   5.509   6.799  0.1057  0.1894  0.2322
   63MOL    H2536109   6.745   5.414   6.942  2.3120 -0.0369 -1.9819
   63MOL    H2636110   6.506   5.608   6.890  2.1947  0.0481 -0.8803
   63MOL    H2736111   6.655   5.834   6.922  1.4065 -1.7004  0.4908
   63MOL    H2836112   6.415   5.791   7.044  0.3885  0.5336  0.4710
   63MOL    H2936113   6.467   5.650   7.142 -1.5691 -1.4188 -1.9447
   63MOL    H3036114   7.176   5.509   6.672  1.0916  0.6157 -1.0691
   63MOL    C3136115   6.514   5.883   7.251 -0.6277 -0.4771 -0.2230
   63MOL    C3236116   6.647   5.914   7.340 -0.6278  0.2970 -0.1572
   63MOL    O3336117   6.688   5.803   7.423  0.4661  0.1944 -0.2792
   63MOL    C3436118   6.620   6.035   7.422 -0.5243 -0.0614  0.1223
   63MOL    O3536119   6.619   6.157   7.341 -0.1730  0.0528  0.2036
   63MOL    C3636120   6.591   6.275   7.417  0.1383  1.0005  0.6122
   63MOL    C3736121   6.622   6.404   7.340 -0.4969 -0.0083  0.5611
   63MOL    C3836122   6.544   6.419   7.210 -0.0691 -0.7749 -0.2240
   63MOL    O3936123   6.571   6.534   7.134 -0.0102  0.2555  0.0866
   63MOL    C4036124   6.707   6.564   7.100 -0.1214 -0.0228  0.0923
   63MOL    O4136125   6.762   6.653   7.197 -0.1688 -0.0645  0.2208
   63MOL    C4236126   6.710   6.628   6.960 -0.8693 -0.4896 -0.0489
   63MOL    O4336127   6.720   6.523   6.860  0.4399  0.0903 -0.5782
   63MOL    H4436128   6.463   5.978   7.238  0.8709  0.6121  1.5573
   63MOL    H4536129   6.448   5.820   7.311 -1.7287  3.3186  2.7875
   63MOL    H4636130   6.727   5.931   7.269 -1.9643  1.3516 -1.4436
   63MOL    H4736131   6.725   5.731   7.375  1.0040 -0.2336  0.7636
   63MOL    H4836132   6.531   6.024   7.485 -0.1208  1.7514  1.0698
   63MOL    H4936133   6.712   6.047   7.479 -1.2923  3.8801  0.7242
   63MOL    H5036134   6.642   6.281   7.514  2.0957 -1.2833 -0.2320
   63MOL    H5136135   6.486   6.276   7.445 -0.1912 -2.1224 -0.4185
   63MOL    H5236136   6.728   6.409   7.317 -0.1939  1.1774  2.1336
   63MOL    H5336137   6.606   6.492   7.402  0.0719  0.9509 -0.6220
   63MOL    H5436138   6.560   6.325   7.157  2.1485 -0.3169 -0.4344
   63MOL    H5536139   6.439   6.424   7.239  0.2654 -1.1630  1.0692
   63MOL    H5636140   6.781   6.484   7.095  0.7407  0.7887 -0.3945
   63MOL    H5736141   6.731   6.740   7.180  0.7660 -0.1532 -2.1108
   63MOL    H5836142   6.616   6.683   6.957 -0.2905  0.4545 -1.7891
   63MOL    H5936143   6.799   6.691   6.952  1.9898 -4.0501  1.8711
   63MOL    C6036144   6.746   6.576   6.730 -0.6155 -0.1475  0.6688
   63MOL    C6136145   6.810   6.466   6.646  0.5331 -0.5416 -0.1270
   63MOL    O6236146   6.872   6.520   6.531 -0.1794  0.3013 -0.0552
   63MOL    C6336147   6.708   6.355   6.610 -0.0195 -0.3466 -0.3996
   63MOL    O6436148   6.602   6.399   6.528 -0.1595  0.3031  0.2109
   63MOL    C6536149   6.550   6.292   6.452  0.8688  0.1499  0.0581
   63MOL    C6636150   6.402   6.321   6.392 -0.1431 -0.4098  0.2638
   63MOL    C6736151   6.333   6.204   6.309 -0.5060  0.3814 -0.0972
   63MOL    O6836152   6.410   6.164   6.198 -0.2674  0.0397  0.3693
   63MOL    C6936153   6.359   6.051   6.132 -0.8480 -0.0110 -0.4226
   63MOL    O7036154   6.272   6.094   6.031  0.3605  0.0948 -0.1984
   63MOL    C7136155   6.482   5.976   6.090 -0.5730  0.0441  0.4091
   63MOL    O7236156   6.521   5.879   6.187  0.5008 -0.0827  0.0079
   63MOL    H7336157   6.816   6.659   6.725 -0.3812 -0.3751  0.0774
   63MOL    H7436158   6.652   6.611   6.688  0.1292  3.0921  1.5903
   63MOL    H7536159   6.894   6.420   6.697  0.8772 -0.2189 -0.3957
   63MOL    H7636160   6.798   6.524   6.472 -1.9908  0.1758  2.1453
   63MOL    H7736161   6.772   6.276   6.573  0.6309  0.0415 -0.1080
   63MOL    H7836162   6.658   6.313   6.697  1.8571 -0.2871  0.7221
   63MOL    H7936163   6.543   6.197   6.504 -1.0455 -0.2708 -0.9175
   63MOL    H8036164   6.625   6.260   6.379  1.6548 -0.4808  1.1303
   63MOL    H8136165   6.416   6.414   6.338 -1.3321 -0.8784 -0.8608
   63MOL    H8236166   6.329   6.328   6.472 -1.3844  2.9631 -1.1203
   63MOL    H8336167   6.236   6.229   6.266 -0.2709 -0.4580 -1.1260
   63MOL    H8436168   6.320   6.122   6.380  0.4281  1.9574  1.9610
   63MOL    H8536169   6.301   5.984   6.196  0.9858 -1.9251 -0.7488
   63MOL    H8636170   6.289   6.184   6.005 -0.9383  0.4911  0.3003
   63MOL    H8736171   6.460   5.927   5.995 -0.8642  1.2557 -0.1596
   63MOL    H8836172   6.564   6.045   6.070 -0.1114 -0.8487 -0.9033
   63MOL    C8936173   6.590   5.920   6.297 -0.9063  0.6031 -0.6521
   63MOL    C9036174   6.655   5.798   6.366  0.1034  0.1354 -0.7019
   63MOL    O9136175   6.732   5.853   6.470  0.1335 -0.1412 -0.0652
   63MOL    C9236176   6.557   5.694   6.430 -0.1253  0.2347  1.1488
   63MOL    O9336177   6.637   5.581   6.460  0.1726  0.2987  0.2830
   63MOL    C9436178   6.582   5.478   6.514  0.3761  0.4362 -0.3987
   63MOL    C9536179   6.684   5.367   6.534 -1.0266 -0.3025  0.3623
   63MOL    C9636180   6.628   5.249   6.614 -0.2699  0.2735 -0.6296
   63MOL    O9736181   6.512   5.189   6.553  0.2101 -0.4767 -0.3542
   63MOL    C9836182   6.487   5.058   6.598 -0.7631 -0.1084  0.0043
   63MOL    O9936183   6.428   5.042   6.721  0.2465  0.1254 -0.2408
   63MOL   C10036184   6.396   5.004   6.482  0.5487 -0.1127 -0.0192
   63MOL   O10136185   6.456   4.889   6.435 -0.3548 -0.2557 -0.0150
   63MOL   H10236186   6.519   5.968   6.364 -1.4591  2.4271 -2.5010
   63MOL   H10336187   6.671   5.991   6.278 -0.4613  0.1959 -0.3122
   63MOL   H10436188   6.719   5.752   6.290 -1.5703 -0.0117 -2.0539
   63MOL   H10536189   6.677   5.859   6.546  1.3152 -1.6883  0.9409
   63MOL   H10636190   6.499   5.737   6.512  0.1780  0.0528  1.4584
   63MOL   H10736191   6.477   5.674   6.359  2.5966 -1.0518 -1.6494
   63MOL   H10836192   6.512   5.436   6.441  1.1718 -0.4424 -0.6770
   63MOL   H10936193   6.526   5.499   6.605  1.2373 -0.9277  0.4667
   63MOL   H11036194   6.769   5.411   6.586 -2.1804 -1.6905  3.5838
   63MOL   H11136195   6.720   5.325   6.440 -3.2041  0.0258 -0.6630
   63MOL   H11236196   6.710   5.179   6.624 -2.0447 -1.6243  1.0572
   63MOL   H11336197   6.606   5.270   6.719  0.7994 -1.4572 -0.0501
   63MOL   H11436198   6.582   5.006   6.614 -1.4915 -0.8996  1.8086
   63MOL   H11536199   6.349   4.993   6.703  0.2814  0.4813 -1.3989
   63MOL   H11636200   6.296   4.981   6.518  0.5418 -1.3465 -0.8065
   63MOL   H11736201   6.392   5.077   6.400 -0.8788 -0.4680 -0.2666
   63MOL   C11836202   6.394   4.843   6.314 -0.4530  0.0740 -0.1123
   63MOL   C11936203   6.380   4.694   6.332  0.4220  0.0725  0.0077
   63MOL   O12036204   6.470   4.624   6.255 -0.0645 -0.4345 -0.4353
   63MOL   C12136205   6.246   4.634   6.301  0.0893  0.0961  0.5623
   63MOL   O12236206   6.224   4.519   6.380  0.7031 -0.1118 -0.4924
   63MOL   C12336207   6.088   4.481   6.364 -0.2015 -0.4266  0.0246
   63MOL   C12436208   6.066   4.388   6.245  0.2792 -1.1314 -0.7382
   63MOL   C12536209   5.923   4.330   6.248 -0.4728  0.3923 -0.3578
   63MOL   O12636210   5.832   4.438   6.229  0.3904 -0.2314 -0.4668
   63MOL   C12736211   5.701   4.404   6.228  0.0748  0.0642  0.6770
   63MOL   O12836212   5.671   4.328   6.115 -0.2344 -0.0757 -0.2471
   63MOL   C12936213   5.620   4.539   6.235  0.6734 -0.1537  0.5663
   63MOL   O13036214   5.668   4.613   6.344  0.8164  0.2997  0.5930
   63MOL   H13136215   6.302   4.900   6.305 -0.0483  1.1360  2.1427
   63MOL   H13236216   6.459   4.864   6.229 -1.9469 -2.3413 -1.9092
   63MOL   H13336217   6.396   4.669   6.436 -3.7279  3.0513  1.5256
   63MOL   H13436218   6.452   4.533   6.271 -0.0411 -0.5934 -1.3164
   63MOL   H13536219   6.176   4.717   6.313  0.6165  0.7108 -0.5314
   63MOL   H13636220   6.233   4.603   6.198  1.1989  0.2045  0.3873
   63MOL   H13736221   6.022   4.567   6.350  0.4568  0.4868  2.3292
   63MOL   H13836222   6.053   4.433   6.456  1.3459  1.3312  1.5730
   63MOL   H13936223   6.142   4.310   6.251 -0.0586 -1.4026  0.1785
   63MOL   H14036224   6.089   4.452   6.160 -0.6215  2.0254  1.3304
   63MOL   H14136225   5.902   4.255   6.172 -2.8582  0.4453  0.2107
   63MOL   H14236226   5.907   4.275   6.341  0.1839 -0.8588 -0.9769
   63MOL   H14336227   5.686   4.340   6.315 -1.3643 -2.4882 -1.3683
   63MOL   H14436228   5.578   4.329   6.094  0.0604 -0.6832 -1.6670
   63MOL   H14536229   5.630   4.590   6.138  1.3631 -0.1169  0.6499
   63MOL   H14636230   5.517   4.507   6.249  0.9086 -0.4220  1.7138
   63MOL   C14736231   5.588   4.735   6.367 -0.3740 -0.3079  0.3940
   63MOL   C14836232   5.634   4.786   6.499 -0.4879  0.1160 -0.6154
   63MOL   O14936233   5.546   4.894   6.531  0.1032  0.2114  0.2046
   63MOL   C15036234   5.773   4.842   6.503 -0.6440  0.0746 -0.0945
   63MOL   O15136235   5.792   4.888   6.638 -0.4211  0.2389  0.1878
   63MOL   C15236236   5.893   4.988   6.667  0.5613  0.1970  0.4693
   63MOL   C15336237   6.042   4.946   6.633 -0.3354  0.2085  0.3977
   63MOL   C15436238   6.090   4.814   6.698  0.4605 -0.0644  0.2814
   63MOL   O15536239   6.233   4.822   6.728 -0.0495  0.0313  0.2381
   63MOL   C15636240   6.289   4.699   6.759  0.5963  0.9699 -0.2025
   63MOL   O15736241   6.226   4.642   6.872  0.0226 -0.0498 -0.1800
   63MOL   C15836242   6.436   4.723   6.790  0.1333 -0.3650 -0.1349
   63MOL   O15936243   6.523   4.735   6.677 -0.2935 -0.1912  0.3075
   63MOL   H16036244   5.481   4.714   6.356  0.0570 -1.2233 -2.2969
   63MOL   H16136245   5.614   4.803   6.287 -0.4139  0.5359  1.0968
   63MOL   H16236246   5.630   4.715   6.581  1.6494  0.4326 -0.1924
   63MOL   H16336247   5.583   4.928   6.611 -1.0323  1.6851  0.1195
   63MOL   H16436248   5.852   4.771   6.480  0.7708  1.5710  0.0627
   63MOL   H16536249   5.783   4.923   6.430  1.4287 -3.6920 -4.2330
   63MOL   H16636250   5.883   5.025   6.770 -0.5150  0.3155  0.3280
   63MOL   H16736251   5.858   5.067   6.602  0.1151  1.3848  2.1062
   63MOL   H16836252   6.108   5.020   6.677 -0.5815  0.4148  0.4246
   63MOL   H16936253   6.056   4.925   6.527  1.6807 -1.9607  1.0606
   63MOL   H17036254   6.045   4.811   6.797 -0.1186  2.9663  0.1444
   63MOL   H17136255   6.063   4.721   6.647  1.6562 -0.0155 -0.4711
   63MOL   H17236256   6.278   4.634   6.672  0.6243  0.7849 -0.0670
   63MOL   H17336257   6.255   4.557   6.900 -0.3284 -0.1323 -0.0673
   63MOL   H17436258   6.435   4.817   6.844 -0.2518 -2.0460  2.9017
   63MOL   H17536259   6.467   4.643   6.858 -0.0757 -0.5246 -0.2255
   63MOL   C17636260   6.660   4.761   6.719  0.0118 -0.0998  0.3778
   63MOL   C17736261   6.760   4.745   6.603  0.0483 -0.9644  1.3945
   63MOL   O17836262   6.763   4.607   6.574 -0.0136 -0.1209 -0.1159
   63MOL   C17936263   6.895   4.796   6.652  0.6271 -0.5732  0.4773
   63MOL   O18036264   6.897   4.936   6.679  0.6164 -0.4376  0.1046
   63MOL   C18136265   7.003   4.979   6.744 -0.5476 -0.4238  0.0976
   63MOL   C18236266   7.115   5.056   6.659 -0.6322  0.7915  0.2726
   63MOL   C18336267   7.216   5.119   6.750 -0.2727  0.1907  0.1005
   63MOL   O18436268   7.343   5.057   6.741 -0.0938  0.0290  0.2156
   63MOL   C18536269   7.446   5.126   6.799 -0.0424 -0.5662 -0.3612
   63MOL   O18636270   7.479   5.236   6.720 -0.2467  0.2769  0.2380
   63MOL   C18736271   7.565   5.047   6.810 -0.2279  0.0992  0.6566
   63MOL   O18836272   7.613   5.018   6.679  0.1576 -0.3309 -0.2186
   63MOL   H18936273   6.690   4.681   6.786  1.6056 -0.4365 -0.7184
   63MOL   H19036274   6.675   4.860   6.763 -3.8299  0.5149  0.4833
   63MOL   H19136275   6.735   4.804   6.515  4.0664 -2.0849 -0.6075
   63MOL   H19236276   6.673   4.580   6.584  0.0071  0.4873  1.9489
   63MOL   H19336277   6.923   4.738   6.740 -1.1572 -0.3472  1.2348
   63MOL   H19436278   6.966   4.779   6.572  1.3418 -1.2246  1.2450
   63MOL   H19536279   7.057   4.909   6.808  1.8447  2.2658  1.1272
   63MOL   H19636280   6.967   5.039   6.828 -0.5765  2.2455 -1.7712
   63MOL   H19736281   7.072   5.125   6.587  0.2536  1.6295  0.5233
   63MOL   H19836282   7.162   4.989   6.587 -3.5835 -0.0769 -0.8892
   63MOL   H19936283   7.223   5.227   6.746 -0.0527  0.1216 -1.6835
   63MOL   H20036284   7.178   5.105   6.852 -1.5436 -0.5421 -0.4653
   63MOL   H20136285   7.418   5.149   6.902  4.1107  0.6545  0.5691
   63MOL   H20236286   7.512   5.194   6.642 -1.9704 -2.1690  0.7738
   63MOL   H20336287   7.646   5.095   6.865  0.0940 -0.2728  0.5080
   63MOL   H20436288   7.538   4.962   6.873 -1.2947  0.8333  1.1880
   63MOL   C20536289   0.037   4.950   6.685  0.1616  0.2149  0.9450
   63MOL   C20636290   0.089   4.930   6.543  0.2385  0.2673  0.7815
   63MOL   O20736291   0.203   4.851   6.566  0.3000  0.1822  0.6879
   63MOL   C20836292   7.686   4.842   6.446  0.3208  0.0162  0.9959
   63MOL   O20936293   0.046   4.864   6.315 -0.3190 -0.4358  0.2207
   63MOL   C21036294   7.672   4.795   6.213  0.1925  0.7491 -0.0149
   63MOL   C21136295   0.033   4.846   6.081  0.6736  0.0638 -0.1645
   63MOL   C21236296   7.682   4.985   6.042 -0.2057 -0.2739  0.1148
   63MOL   O21336297   0.094   5.083   6.039 -0.1622 -0.4409  0.6734
   63MOL   C21436298   0.097   5.171   6.144  0.1421  0.4683 -0.3035
   63MOL   O21536299   7.678   5.262   6.138 -0.1383  0.5118 -0.9494
   63MOL   C21636300   0.223   5.248   6.145 -1.0012 -0.3089 -0.3180
   63MOL   O21736301   0.312   5.201   6.250 -0.0198  0.2646  0.2695
   63MOL   H21836302   0.034   4.854   6.737  2.8094  0.9110  2.4868
   63MOL   H21936303   0.117   5.007   6.734 -0.9134  1.8979  0.7985
   63MOL   H22036304   0.118   5.030   6.511  0.3437 -0.2020 -0.6370
   63MOL   H22136305   0.241   4.846   6.479 -1.1293 -1.5961  0.1453
   63MOL   H22236306   7.681   4.736   6.471  1.8621 -0.5341 -0.9932
   63MOL   H22336307   7.581   4.873   6.452  0.9528  2.7999 -1.6854
   63MOL   H22436308   7.565   4.812   6.227 -0.0622 -1.8879  1.6575
   63MOL   H22536309   7.690   4.689   6.230  0.0289  1.1401  2.9735
   63MOL   H22636310   7.694   4.779   6.003 -0.4124  2.2087 -1.6102
   63MOL   H22736311   0.142   4.839   6.089  0.9337  1.1378 -2.5053
   63MOL   H22836312   7.621   4.969   5.954 -0.0792  0.2024 -0.0629
   63MOL   H22936313   7.606   5.018   6.113  0.0148  2.3069 -0.7711
   63MOL   H23036314   0.094   5.127   6.244  1.4043  1.7288  0.3191
   63MOL   H23136315   0.001   5.316   6.062  2.2004  0.4637 -0.4750
   63MOL   H23236316   0.273   5.238   6.049 -1.3027  1.4069 -0.6680
   63MOL   H23336317   0.209   5.356   6.152  0.3849 -0.1442  0.1669
   63MOL   C23436318   0.376   5.080   6.223 -0.2032  0.4138  0.0123
   63MOL   C23536319   0.452   5.046   6.352  0.4486  0.3721  0.4510
   63MOL   O23636320   0.577   5.121   6.352 -0.8317 -0.3661 -0.1194
   63MOL   C23736321   0.488   4.891   6.353  0.1345  1.1278 -0.1683
   63MOL   O23836322   0.373   4.806   6.366  0.1062 -0.3792  0.0027
   63MOL   C23936323   0.380   4.674   6.299  0.6137 -0.3182 -0.5150
   63MOL   C24036324   0.273   4.584   6.355  0.5107  0.4223 -0.1550
   63MOL   C24136325   0.267   4.442   6.290 -0.3693  0.5877 -0.1606
   63MOL   O24236326   0.256   4.473   6.155  0.5746  0.0840  0.1838
   63MOL   C24336327   0.232   4.365   6.068 -0.2538 -0.8028  0.0676
   63MOL   O24436328   0.301   4.382   5.948 -0.9004 -0.3630  0.4018
   63MOL   C24536329   0.082   4.358   6.034  0.3516 -1.0582  0.3107
   63MOL   O24636330   0.004   4.298   6.134 -0.5519  0.2173  0.4337
   63MOL   H24736331   0.298   5.006   6.205 -1.5321  2.0214 -0.9762
   63MOL   H24836332   0.442   5.081   6.137  1.7563  0.4977  1.4710
   63MOL   H24936333   0.398   5.072   6.443 -1.4336 -3.2997  0.4874
   63MOL   H25036334   0.556   5.208   6.322 -2.0570 -0.0397  1.6029
   63MOL   H25136335   0.548   4.873   6.264 -0.7922  0.1985 -0.6064
   63MOL   H25236336   0.553   4.873   6.439  1.3998  0.3803 -1.2600
   63MOL   H25336337   0.476   4.624   6.310  0.1115 -0.9801  0.8945
   63MOL   H25436338   0.363   4.693   6.193 -2.7123 -4.2408 -0.7789
   63MOL   H25536339   0.180   4.639   6.336 -0.1963 -0.4178  0.7980
   63MOL   H25636340   0.285   4.592   6.463  2.0149  1.9670 -0.4134
   63MOL   H25736341   0.367   4.405   6.312 -0.1126 -0.0114 -2.2163
   63MOL   H25836342   0.186   4.376   6.321 -1.2848  1.3446 -0.9088
   63MOL   H25936343   0.259   4.267   6.106  1.6157 -1.5476 -3.0551
   63MOL   H26036344   0.274   4.464   5.909 -1.1216 -1.0514 -0.9125
   63MOL   H26136345   0.058   4.462   6.015  2.4887 -0.1558  2.4140
   63MOL   H26236346   0.070   4.296   5.945 -0.5814 -0.2372 -0.1476
   63MOL   C26336347   7.563   4.298   6.102  0.1340  0.1727  0.1650
   63MOL   C26436348   7.482   4.424   6.147 -0.5224  0.1408  0.3191
   63MOL   O26536349   7.344   4.403   6.121 -1.0769 -0.6465 -0.0544
   63MOL   C26636350   7.500   4.454   6.289  0.2413 -0.3690 -0.2966
   63MOL   O26736351   7.413   4.555   6.338  0.8187  0.1222 -0.7666
   63MOL   C26836352   7.421   4.572   6.480 -0.4292  0.0883  0.4998
   63MOL   C26936353   7.328   4.693   6.522  0.0576 -0.3057  0.3312
   63MOL   C27036354   7.360   4.754   6.662 -0.4820  0.2876 -0.8075
   63MOL   O27136355   7.378   4.652   6.757  0.3148  0.0877  0.2050
   63MOL   C27236356   7.350   4.706   6.884 -0.7395 -0.0943 -0.2665
   63MOL   O27336357   7.215   4.719   6.903  0.1201  0.0384 -0.0536
   63MOL   C27436358   7.411   4.613   6.993  0.0223 -0.0157 -0.4939
   63MOL   O27536359   7.538   4.661   7.040 -0.1284  0.0947 -0.1608
   63MOL   H27636360   7.520   4.212   6.153 -0.3643 -0.0594 -0.6366
   63MOL   H27736361   7.544   4.280   5.996 -3.1191  0.3100  0.6624
   63MOL   H27836362   7.512   4.511   6.088  0.4118  0.9989  2.0347
   63MOL   H27936363   7.295   4.454   6.184 -0.5590  0.3041 -0.4192
   63MOL   H28036364   7.495   4.363   6.349 -2.9313  0.2920  0.4870
   63MOL   H28136365   7.605   4.484   6.301  0.6926 -1.5680 -1.1653
   63MOL   H28236366   7.521   4.615   6.487 -0.8962  1.7113 -2.2799
   63MOL   H28336367   7.408   4.477   6.533  0.3629  0.7425  1.9101
   63MOL   H28436368   7.226   4.655   6.526  0.9182 -2.5148  1.8793
   63MOL   H28536369   7.345   4.775   6.452  2.5828 -1.0741 -0.0068
   63MOL   H28636370   7.453   4.809   6.652 -1.3622  2.3426  1.6088
   63MOL   H28736371   7.284   4.831   6.674 -2.5837 -2.1623  2.6602
   63MOL   H28836372   7.390   4.807   6.893  1.5541 -0.7913 -2.0538
   63MOL   H28936373   7.175   4.633   6.911 -4.6523  2.1548  0.4133
   63MOL   H29036374   7.338   4.609   7.074  0.0133  1.2887 -0.4162
   63MOL   H29136375   7.413   4.510   6.959 -0.8580 -0.5213  0.9574
   63MOL   C29236376   7.593   4.586   7.144  0.7645  0.2231  0.5389
   63MOL   C29336377   7.554   4.643   7.283  1.2035  0.4961  0.2567
   63MOL   O29436378   7.431   4.591   7.331 -0.1308 -0.0958 -0.3461
   63MOL   C29536379   7.664   4.621   7.386 -0.2223 -0.0067 -0.0664
   63MOL   O29636380   7.657   4.709   7.497  0.2590 -0.1639 -0.1428
   63MOL   C29736381   0.058   4.686   7.599  0.4304 -0.0078  0.0067
   63MOL   C29836382   0.028   4.774   0.025 -0.2581 -0.1554 -0.7150
   63MOL   C29936383   0.113   4.749   0.152 -0.7717  0.3546  0.5014
   63MOL   O30036384   0.249   4.728   0.108  0.2270 -0.4341  0.1524
   63MOL   C30136385   0.345   4.754   0.205  0.2249 -0.6457 -0.0222
   63MOL   O30236386   0.327   4.666   0.319  0.4059  0.0377  0.4568
   63MOL   C30336387   0.474   4.717   0.139 -0.0487  0.1966 -0.1640
   63MOL   O30436388   0.580   4.762   0.223  0.4811 -0.1187  0.1792
   63MOL   H30536389   7.578   4.479   7.131  0.8330  0.0269  1.9465
   63MOL   H30636390   0.007   4.591   7.132  0.6387 -1.3638 -1.4211
   63MOL   H30736391   7.537   4.750   7.276 -0.6132  0.3444  1.8549
   63MOL   H30836392   7.398   4.646   7.400  0.9311  0.2562 -0.1154
   63MOL   H30936393   7.661   4.517   7.418 -0.1552 -0.3568 -1.2127
   63MOL   H31036394   0.067   4.632   7.340 -0.3487 -0.9151 -0.5536
   63MOL   H31136395   0.154   4.705   7.551 -0.3986  2.1386 -0.8460
   63MOL   H31236396   0.036   4.585   7.633 -3.3308  1.1987  1.3603
   63MOL   H31336397   7.618   4.782   0.055 -1.0895  0.0610 -3.5621
   63MOL   H31436398   0.041   4.876   7.683 -0.1363 -0.8060 -2.5612
   63MOL   H31536399   0.110   4.831   0.225 -1.5472  0.4650  0.3469
   63MOL   H31636400   0.088   4.653   0.196 -3.2550  0.0377 -1.4955
   63MOL   H31736401   0.348   4.856   0.243  0.9327 -0.2563 -1.0755
   63MOL   H31836402   0.320   4.583   0.275  0.6499  0.6966 -0.8771
   63MOL   H31936403   0.493   4.768   0.045 -1.6470 -0.9860 -1.1443
   63MOL   H32036404   0.472   4.609   0.121 -1.6364 -0.3081  2.7517
   63MOL   C32136405   0.715   4.719   0.199 -0.3601  0.0737  0.6069
   63MOL   C32236406   0.765   4.827   0.103 -0.4961  0.6655  0.2035
   63MOL   O32336407   0.801   4.955   0.146  0.4448 -0.5524  0.1543
   63MOL   C32436408   0.880   4.770   0.012  0.4936  0.1567  0.6395
   63MOL   O32536409   0.819   4.693   7.608 -0.1269 -0.5303  0.0562
   63MOL   C32636410   0.912   4.669   7.498  0.3657 -0.0690 -0.1109
   63MOL   C32736411   0.847   4.577   7.395  0.5168  0.2557  0.3408
   63MOL   C32836412   0.798   4.434   7.451  0.5374 -0.0407  0.4613
   63MOL   O32936413   0.726   4.366   7.349 -0.0530 -0.0414 -0.7038
   63MOL   C33036414   0.702   4.235   7.378 -0.5475  0.6210 -0.3284
   63MOL   O33136415   0.623   4.210   7.489  0.2137  0.1794 -0.5426
   63MOL   C33236416   0.634   4.161   7.261 -0.0195  0.3549  0.2146
   63MOL   O33336417   0.501   4.214   7.248  0.0708  0.3700  0.6654
   63MOL   H33436418   0.725   4.613   0.173 -2.4404 -0.5336  2.0748
   63MOL   H33536419   0.774   4.725   0.291  0.0937 -1.0913  0.4043
   63MOL   H33636420   0.688   4.851   0.030 -2.5360 -0.9354  1.7791
   63MOL   H33736421   0.766   4.959   0.234 -0.1094 -0.1681 -0.0843
   63MOL   H33836422   0.958   4.718   0.068  1.0188  2.6408  2.2895
   63MOL   H33936423   0.932   4.855   7.661  2.9797 -0.7293  1.7334
   63MOL   H34036424   1.010   4.634   7.531 -0.1364 -1.4986 -0.0849
   63MOL   H34136425   0.934   4.761   7.444  1.4986 -0.4598 -0.3477
   63MOL   H34236426   0.767   4.630   7.344  1.5688 -0.0561 -1.7071
   63MOL   H34336427   0.921   4.566   7.315  1.2362  2.5444  0.6409
   63MOL   H34436428   0.888   4.374   7.464 -0.0960 -1.5642 -1.9377
   63MOL   H34536429   0.748   4.441   7.548 -1.6927  0.9575 -0.7328
   63MOL   H34636430   0.794   4.178   7.393 -1.3068 -0.1085  1.7492
   63MOL   H34736431   0.533   4.225   7.464 -0.5378  2.2257  2.9482
   63MOL   H34836432   0.678   4.192   7.166 -0.4277 -1.7834 -0.7204
   63MOL   H34936433   0.640   4.053   7.275  0.8678  0.3504 -0.1309
   63MOL   C35036434   0.397   4.112   7.217  0.3712  0.1821 -0.4031
   63MOL   C35136435   0.272   4.175   7.152  0.1080 -0.3534  0.0027
   63MOL   O35236436   0.314   4.222   7.025  0.5865  0.5667 -0.2044
   63MOL   C35336437   0.159   4.077   7.113 -0.0337  0.5068  0.4214
   63MOL   O35436438   0.213   3.961   7.049 -0.3798  0.1218  0.6167
   63MOL   C35536439   0.120   3.883   6.976 -0.4424  0.4316 -0.0649
   63MOL   C35636440   0.170   3.738   6.964 -0.3821 -0.2344 -0.1450
   63MOL   C35736441   0.077   3.648   6.886  0.2210 -0.5414 -0.2417
   63MOL   O35836442   7.679   3.591   6.975  0.0475  0.0475  0.2414
   63MOL   C35936443   7.561   3.549   6.912 -0.1653 -0.2258 -0.2792
   63MOL   O36036444   7.573   3.429   6.838 -0.2168 -0.3253 -0.3427
   63MOL   C36136445   7.454   3.528   7.027  0.3178 -0.9158  0.2447
   63MOL   O36236446   7.422   3.657   7.085  0.0669 -0.0357  0.0867
   63MOL   H36336447   0.368   4.068   7.312 -2.7890  1.0568 -0.8980
   63MOL   H36436448   0.448   4.032   7.163 -0.0805 -1.3818  1.4366
   63MOL   H36536449   0.236   4.255   7.216  1.1927  1.8126 -1.9871
   63MOL   H36636450   0.346   4.142   6.985  1.2883  1.8982 -2.4063
   63MOL   H36736451   0.112   4.047   7.207  2.0209 -0.0313  1.3186
   63MOL   H36836452   0.080   4.132   7.062  0.2844  2.0982  1.6072
   63MOL   H36936453   0.114   3.933   6.880 -0.0933 -1.2323 -0.9681
   63MOL   H37036454   0.029   3.898   7.034  0.3975  2.1579  0.8303
   63MOL   H37136455   0.177   3.712   7.070 -1.6884  0.9230  0.2400
   63MOL   H37236456   0.271   3.730   6.923 -0.1114  1.0639  0.2468
   63MOL   H37336457   0.030   3.711   6.811  2.0392  1.0476 -0.0753
   63MOL   H37436458   0.138   3.570   6.839  1.0859 -0.0757  0.0994
   63MOL   H37536459   7.523   3.628   6.847  0.0830 -0.6305 -0.9177
   63MOL   H37636460   7.573   3.445   6.745  0.4159 -0.5023 -0.3738
   63MOL   H37736461   7.366   3.484   6.981 -0.5334  0.7735  0.2319
   63MOL   H37836462   7.495   3.456   7.097 -0.9505 -1.9446 -0.0509
   63MOL   C37936463   7.347   3.654   7.202 -0.5847 -0.0497  0.0411
   63MOL   C38036464   7.301   3.793   7.238 -0.7633 -0.6444  0.4608
   63MOL   O38136465   7.225   3.784   7.352 -0.2092  0.7442  0.2920
   63MOL   C38236466   7.416   3.881   7.272  0.4732 -0.2885 -0.6419
   63MOL   O38336467   7.461   3.819   7.395 -0.4545  0.3880  0.1812
   63MOL   C38436468   7.599   3.768   7.383  1.0075  0.4453 -0.0911
   63MOL   C38536469   7.638   3.716   7.522 -0.4977 -0.4089  0.0407
   63MOL   C38636470   0.084   3.652   7.536 -0.2852 -0.3266  0.2108
   63MOL   O38736471   0.091   3.555   7.434  0.0020  0.3584 -0.5963
   63MOL   C38836472   0.213   3.525   7.369  0.2102 -0.2182 -0.5299
   63MOL   O38936473   0.310   3.463   7.451 -0.5031 -0.5191  0.1987
   63MOL   C39036474   0.173   3.436   7.248  0.2091  0.0737 -0.0163
   63MOL   O39136475   0.104   3.321   7.291 -0.1907  0.2151 -0.7753
   63MOL   H39236476   7.390   3.605   7.289 -0.6726 -3.5895 -1.8250
   63MOL   H39336477   7.257   3.602   7.168 -0.9614 -0.0746  1.0774
   63MOL   H39436478   7.234   3.838   7.164 -0.1357 -1.5593 -0.6899
   63MOL   H39536479   7.289   3.800   7.421  1.9641 -1.0687 -1.2248
   63MOL   H39636480   7.484   3.878   7.187  0.6639 -0.1991 -0.4936
   63MOL   H39736481   7.395   3.987   7.288  0.1794 -0.0981 -2.2507
   63MOL   H39836482   7.670   3.845   7.354 -0.2197  1.1455 -1.2930
   63MOL   H39936483   7.610   3.699   7.300  2.0523  2.0023 -1.2669
   63MOL   H40036484   7.565   3.637   7.539 -0.2527 -0.2888  1.7986
   63MOL   H40136485   7.625   3.794   7.598  0.0768 -0.9426  0.6813
   63MOL   H40236486   0.161   3.726   7.511  0.6266 -1.0410  0.9134
   63MOL   H40336487   0.116   3.605   7.628  0.9882  0.6538  0.2784
   63MOL   H40436488   0.255   3.619   7.332 -2.2177 -0.2722 -3.6330
   63MOL   H40536489   0.278   3.378   7.476 -1.4924  0.7800  3.7456
   63MOL   H40636490   0.116   3.497   7.177 -1.6326  0.9671  2.1740
   63MOL   H40736491   0.267   3.416   7.197  0.7970  1.3600  0.5362
   63MOL   C40836492   0.055   3.248   7.180 -0.1363 -0.5629 -0.5491
   63MOL   C40936493   7.659   3.129   7.231  0.3508  0.1458  0.3434
   63MOL   O41036494   0.007   3.024   7.149  0.3138  0.2582 -0.1184
   63MOL   C41136495   7.505   3.150   7.216  0.2531 -0.3111  0.2960
   63MOL   O41236496   7.447   3.044   7.298 -0.0070  0.1977  0.0990
   63MOL   C41336497   7.308   3.018   7.272  0.3570  0.4501 -0.7340
   63MOL   C41436498   7.262   2.946   7.399 -0.0849 -0.5661  0.3558
   63MOL   C41536499   7.111   2.926   7.393 -0.1665 -0.7809  0.6347
   63MOL   O41636500   7.068   2.868   7.511 -0.2827 -0.7556 -0.3360
   63MOL   C41736501   6.933   2.864   7.527 -0.2335 -0.3420 -0.5129
   63MOL   O41836502   6.875   2.997   7.545  0.5421  0.3837 -0.2721
   63MOL   C41936503   6.909   2.774   7.650 -0.0002  0.0994 -0.1548
   63MOL   O42036504   6.901   2.642   7.605  0.2768 -0.2029  0.2905
   63MOL   H42136505   0.143   3.213   7.126  1.3442  1.4175  0.5276
   63MOL   H42236506   7.691   3.300   7.105 -0.6696  1.1001  0.9799
   63MOL   H42336507   7.690   3.110   7.334  0.2916 -3.6102 -0.2537
   63MOL   H42436508   7.631   2.963   7.170  0.2133 -0.2015 -1.7893
   63MOL   H42536509   7.472   3.238   7.273 -0.0305 -0.0749 -0.2326
   63MOL   H42636510   7.473   3.150   7.112  2.3379  2.2897 -0.3995
   63MOL   H42736511   7.258   3.114   7.262  0.6702  0.4359 -2.5889
   63MOL   H42836512   7.294   2.959   7.181  3.7910 -2.7525  0.6876
   63MOL   H42936513   7.281   3.020   7.477  1.6137  1.0788 -1.5413
   63MOL   H43036514   7.316   2.855   7.424  4.6282  2.0040  0.0653
   63MOL   H43136515   7.060   3.019   7.369  0.2590 -0.0436  2.4794
   63MOL   H43236516   7.088   2.850   7.319 -0.3413  0.5946 -0.7391
   63MOL   H43336517   6.897   2.810   7.440 -0.4260 -1.5773  0.3087
   63MOL   H43436518   6.809   2.981   7.611  1.6080 -1.0404  0.4596
   63MOL   H43536519   6.994   2.786   0.023 -1.0090 -0.4802  1.2528
   63MOL   H43636520   6.821   2.807   0.010  0.9198  3.1510 -0.4269
   63MOL   C43736521   6.902   2.545   0.012 -0.2464 -0.1208 -0.3354
   63MOL   C43836522   6.942   2.405   7.655  0.0647 -0.2134 -0.6082
   63MOL   O43936523   6.827   2.337   7.617  0.2056  0.9017 -0.5863
   63MOL   C44036524   7.018   2.306   0.057 -0.3910  0.4699  0.2455
   63MOL   O44136525   7.118   2.226   7.690  0.2753  0.2296 -0.4659
   63MOL   C44236526   7.214   2.177   0.081 -0.1147  0.3499  0.2282
   63MOL   C44336527   7.283   2.059   7.692 -0.4165  0.6598  0.2659
   63MOL   C44436528   7.400   1.992   0.085 -0.1102 -0.4846  0.2053
   63MOL   O44536529   7.464   1.900   7.692 -0.0258 -0.1603  0.1905
   63MOL   C44636530   7.481   1.776   0.065 -0.3148 -0.5383  0.5157
   63MOL   O44736531   7.558   1.786   0.177  0.3035  0.0158 -0.6645
   63MOL   C44836532   7.549   1.679   7.658 -0.3316  0.0195  0.4728
   63MOL   O44936533   7.685   1.721   7.633 -1.2141  0.3703  0.9400
   63MOL   H45036534   6.986   2.577   0.073 -0.7977  0.6583  0.0201
   63MOL   H45136535   6.808   2.555   0.067  0.1723  1.0058  0.1873
   63MOL   H45236536   6.994   2.410   7.559 -0.6185  0.7467 -0.9304
   63MOL   H45336537   6.761   2.361   7.681 -1.2862  2.3668 -2.6019
   63MOL   H45436538   7.070   2.370   0.129  2.5098 -1.3268 -0.1716
   63MOL   H45536539   6.948   2.252   0.121 -1.0178  0.2183 -0.6603
   63MOL   H45636540   7.152   2.130   0.158  0.7448  0.2085  0.8413
   63MOL   H45736541   7.278   2.252   0.126  0.6225 -1.0988  1.6881
   63MOL   H45836542   7.321   2.108   7.603  1.1872  1.3606  1.2995
   63MOL   H45936543   7.213   1.979   7.667  0.5032  0.4689 -1.8074
   63MOL   H46036544   7.479   2.065   0.101 -1.0424  0.2918  1.3738
   63MOL   H46136545   7.375   1.948   0.182  0.9154  0.5021  0.9388
   63MOL   H46236546   7.380   1.741   0.087 -0.4608  0.1340  0.9447
   63MOL   H46336547   7.642   1.815   0.144  0.6399 -0.4196 -0.2069
   63MOL   H46436548   7.551   1.575   7.689 -1.9776  0.0070  0.5938
   63MOL   H46536549   7.488   1.677   7.568 -2.3168 -0.8174  1.8029
   63MOL   C46636550   0.046   1.671   7.514  0.0780  0.2061 -0.4589
   63MOL   C46736551   0.082   1.515   7.531  0.2790  1.1539 -0.0564
   63MOL   O46836552   7.680   1.431   7.471 -0.4035 -0.0097  0.2584
   63MOL   C46936553   0.218   1.473   7.480  0.8717  0.6061  0.0675
   63MOL   O47036554   0.252   1.342   7.524  0.5659 -0.1681 -0.0239
   63MOL   C47136555   0.389   1.313   7.526  0.0890  0.1109 -0.3313
   63MOL   C47236556   0.426   1.178   7.600 -0.0347 -0.8926 -0.0323
   63MOL   C47336557   0.573   1.133   7.584 -0.6827  0.0201  0.4837
   63MOL   O47436558   0.594   1.033   7.678  0.8038  0.4914 -0.0723
   63MOL   C47536559   0.728   1.018   0.021  0.7267 -0.6124 -0.5721
   63MOL   O47636560   0.803   0.945   7.626  0.7069  0.0995 -0.3453
   63MOL   C47736561   0.729   0.939   0.155 -0.6306 -0.2066 -0.6252
   63MOL   O47836562   0.640   0.824   0.147  0.6347  0.0741  0.3694
   63MOL   H47936563   0.138   1.729   7.505  1.2964 -1.6628 -0.4321
   63MOL   H48036564   7.676   1.692   7.428  0.2942  1.1266 -0.4009
   63MOL   H48136565   0.086   1.497   7.638 -1.0618  1.8369  0.1174
   63MOL   H48236566   0.033   1.353   7.448  1.1886  0.0757  3.0436
   63MOL   H48336567   0.219   1.468   7.371  0.4453  3.2445 -0.0920
   63MOL   H48436568   0.293   1.551   7.488 -0.4197  1.7222  1.8584
   63MOL   H48536569   0.446   1.388   7.581  1.4690 -0.4880 -0.9022
   63MOL   H48636570   0.423   1.314   7.422 -2.2718  0.1251 -1.1156
   63MOL   H48736571   0.352   1.104   7.572 -0.6787 -0.2767  0.0070
   63MOL   H48836572   0.405   1.191   0.012  1.2340 -0.1797  0.1413
   63MOL   H48936573   0.598   1.098   7.484  1.1471  2.3592  0.0721
   63MOL   H49036574   0.640   1.214   7.612  1.4906 -0.5099 -2.9478
   63MOL   H49136575   0.772   1.116   0.043 -1.4427 -0.5479  4.2019
   63MOL   H49236576   0.780   0.855   7.644  0.1250  0.1602 -0.7420
   63MOL   H49336577   0.828   0.905   0.187 -0.4675  0.8614  0.0522
   63MOL   H49436578   0.699   1.003   0.238 -1.3347 -0.1431 -0.9254
   63MOL   C49536579   0.514   0.850   0.198  0.3121 -0.0896  0.2553
   63MOL   C49636580   0.405   0.761   0.132 -0.0298  0.3416  0.6776
   63MOL   O49736581   0.277   0.810   0.175  0.3939 -0.2075 -0.2679
   63MOL   C49836582   0.406   0.776   7.674  0.1649 -0.0385  0.5576
   63MOL   O49936583   0.373   0.648   7.611 -0.1950  0.1061  0.2172
   63MOL   C50036584   0.392   0.637   7.477  0.4315 -0.3174  0.1985
   63MOL   C50136585   0.371   0.492   7.437 -0.6521  0.8513  0.1413
   63MOL   C50236586   0.393   0.467   7.284 -0.2804  0.2819  0.1982
   63MOL   O50336587   0.337   0.343   7.253  0.0604  0.0658  0.0322
   63MOL   C50436588   0.365   0.295   7.128 -0.3262 -0.2198 -0.4702
   63MOL   O50536589   0.302   0.377   7.035 -0.3099  0.3699 -0.1744
   63MOL   C50636590   0.315   0.146   7.115  0.0146  0.3844  0.1148
   63MOL   O50736591   0.175   0.147   7.124 -0.3529 -0.1987  0.1718
   63MOL   H50836592   0.490   0.955   0.181 -0.2143 -0.4934 -1.6401
   63MOL   H50936593   0.519   0.840   0.307 -0.2886  2.1972  0.5265
   63MOL   H51036594   0.421   0.655   0.153 -1.1856 -0.4201 -1.9808
   63MOL   H51136595   0.214   0.764   0.123  0.4307  0.2547 -0.7312
   63MOL   H51236596   0.348   0.861   7.639 -1.6891 -1.0798  0.9823
   63MOL   H51336597   0.505   0.812   7.646 -0.2961  0.9003  0.1194
   63MOL   H51436598   0.495   0.662   7.453  1.1352  0.4993  3.7795
   63MOL   H51536599   0.325   0.709   7.430 -1.1507  0.2573  3.2051
   63MOL   H51636600   0.273   0.450   7.462  0.0111 -0.3132  0.8199
   63MOL   H51736601   0.442   0.431   7.492  2.5351  2.3139 -2.2206
   63MOL   H51836602   0.344   0.546   7.228 -1.0203 -0.6105 -0.4226
   63MOL   H51936603   0.498   0.471   7.254 -0.5545  1.0162 -0.6633
   63MOL   H52036604   0.472   0.294   7.107 -0.2187  1.3792  0.0022
   63MOL   H52136605   0.216   0.337   7.037 -0.5730  0.8843 -1.0840
   63MOL   H52236606   0.342   0.110   7.016 -0.2519  2.1614 -0.6201
   63MOL   H52336607   0.364   0.089   7.194  1.3204 -0.3706 -1.2103
   63MOL   C52436608   0.126   0.024   7.164  0.3159  0.3171  0.2992
   63MOL   C52536609   0.056   0.043   7.301 -0.2746  0.0239 -0.7327
   63MOL   O52636610   0.009   7.608   7.328  0.1436 -0.6683  0.7238
   63MOL   C52736611   7.640   0.151   7.314 -0.2287  0.0719  0.6581
   63MOL   O52836612   7.614   0.174   7.457 -0.6195 -0.7237  0.8247
   63MOL   C52936613   7.512   0.274   7.477 -0.1527  0.6033 -0.5676
   63MOL   C53036614   7.532   0.334   7.613  0.0908 -0.6968 -0.1180
   63MOL   C53136615   7.677   0.382   7.653 -0.0361 -0.6122  0.0655
   63MOL   O53236616   7.681   0.431   0.092 -0.0371 -0.1332 -0.4639
   63MOL   C53336617   0.093   0.514   0.124  0.2523 -0.1478  0.8416
   63MOL   O53436618   0.067   0.640   0.065 -0.0273 -0.5122 -0.6708
   63MOL   C53536619   0.103   0.535   0.275  0.0101  0.0539 -0.3820
   63MOL   O53636620   7.678   0.619   0.304 -0.8893 -0.6019 -0.1805
   63MOL   H53736621   0.202   7.642   7.180 -0.1232 -0.0137  0.8293
   63MOL   H53836622   0.052   7.686   7.091 -0.9727 -0.4947  1.9279
   63MOL   H53936623   0.133   0.062   7.376 -0.5946  0.2956 -0.4713
   63MOL   H54036624   7.665   7.616   7.414 -1.5625  2.0763 -0.2357
   63MOL   H54136625   7.687   0.241   7.274  1.3078 -1.1008 -0.2445
   63MOL   H54236626   7.548   0.126   7.261  0.1328  1.1849 -0.5198
   63MOL   H54336627   7.409   0.239   7.466 -0.5456  1.7363 -0.4806
   63MOL   H54436628   7.545   0.355   7.413  0.3434  0.4522 -0.5114
   63MOL   H54536629   7.512   0.259   7.690 -1.3653  0.1071  0.2975
   63MOL   H54636630   7.466   0.420   7.617 -0.7051 -1.1393 -2.7474
   63MOL   H54736631   0.058   0.304   7.644 -0.5061 -1.1981  1.1190
   63MOL   H54836632   0.011   0.463   7.586 -1.1443  1.1149  1.6449
   63MOL   H54936633   0.181   0.468   0.078  0.6250  1.2374  0.1373
   63MOL   H55036634   7.674   0.674   0.081  0.6558  2.0944 -2.2271
   63MOL   H55136635   0.108   0.442   0.331  1.5128  0.6412  0.4989
   63MOL   H55236636   0.193   0.595   0.290  1.0474 -1.6346  0.2915
   63MOL   C55336637   7.691   0.685   0.429  0.3596 -0.3744  0.5677
   63MOL   C55436638   7.565   0.769   0.461 -0.0367  0.5203  0.5689
   63MOL   O55536639   7.447   0.687   0.465 -0.2314  0.1723  0.4082
   63MOL   C55636640   7.556   0.890   0.363 -0.3931 -0.1672  0.4695
   63MOL   O55736641   7.470   0.993   0.421 -0.3227 -0.3857 -0.7031
   63MOL   C55836642   7.330   0.977   0.393 -0.2457  0.2515  0.5709
   63MOL   C55936643   7.254   1.097   0.448 -0.0835 -0.0303 -0.8125
   63MOL   C56036644   7.120   1.104   0.381 -0.0763  0.0826  0.3785
   63MOL   O56136645   7.138   1.124   0.240  0.2429  0.4189  0.3795
   63MOL   C56236646   7.021   1.120   0.157 -0.6270 -0.1955 -0.1115
   63MOL   O56336647   6.937   1.232   0.176  0.0363 -0.2548  0.5104
   63MOL   C56436648   7.064   1.129   0.016  0.3019 -0.4376  0.5417
   63MOL   O56536649   7.082   1.263   7.656  0.6414  0.1755  0.0408
   63MOL   H56636650   0.088   0.743   0.425  0.4687 -0.6207 -0.9175
   63MOL   H56736651   7.690   0.621   0.517 -1.5097 -0.5783  0.4363
   63MOL   H56836652   7.577   0.803   0.564  0.3936  0.8333  0.4208
   63MOL   H56936653   7.467   0.614   0.409  1.1739  1.2333 -0.5001
   63MOL   H57036654   7.657   0.926   0.343  0.3002 -1.5072  1.4633
   63MOL   H57136655   7.525   0.862   0.263 -2.8375  0.3749  1.0518
   63MOL   H57236656   7.316   0.984   0.285 -1.1298 -1.6794  0.5436
   63MOL   H57336657   7.290   0.883   0.430 -3.2720  0.8357 -1.0421
   63MOL   H57436658   7.307   1.191   0.428 -1.6597  1.4813  1.8351
   63MOL   H57536659   7.228   1.096   0.554  0.5535 -0.8203 -0.6607
   63MOL   H57636660   7.064   1.011   0.385 -0.0679  0.0636  0.0491
   63MOL   H57736661   7.062   1.185   0.424 -3.0276 -1.4981 -0.4854
   63MOL   H57836662   6.961   1.029   0.168  1.6241 -1.9733 -1.9548
   63MOL   H57936663   6.966   1.295   0.112  0.5225  0.1513  1.1327
   63MOL   H58036664   7.145   1.060   7.687  2.1714  1.9074  0.0230
   63MOL   H58136665   6.985   1.085   7.649  0.7772  1.1821 -1.2567
   63MOL   H58236666   7.148   1.257   7.589  0.7340 -1.1497  0.2286
   64MOL     C136667   5.402   1.635   1.689 -0.9035 -0.2229 -0.3623
   64MOL     C236668   5.544   1.615   1.640  0.9570 -0.4288 -0.3258
   64MOL     O336669   5.580   1.475   1.649 -0.2227  0.2013  0.6290
   64MOL     C436670   5.559   1.665   1.496 -0.1391  0.7179  0.0847
   64MOL     O536671   5.465   1.610   1.404  0.1240 -0.0903  0.0074
   64MOL     C636672   5.489   1.629   1.264 -0.0304 -0.7128  0.4234
   64MOL     C736673   5.360   1.627   1.189  0.2075  0.2839  0.1591
   64MOL     C836674   5.381   1.642   1.040 -0.0433 -0.3444 -0.0066
   64MOL     O936675   5.423   1.519   0.985 -0.1687  0.0973  0.0417
   64MOL    C1036676   5.452   1.516   0.848 -0.2629 -0.1243  0.6152
   64MOL    O1136677   5.337   1.505   0.773  0.1287 -0.0083 -0.4881
   64MOL    C1236678   5.535   1.386   0.816  0.5377  0.5421 -0.5722
   64MOL    O1336679   5.451   1.274   0.852  0.7746  0.6832  0.8134
   64MOL    H1436680   5.338   1.584   1.617 -0.5029 -1.3482  0.0689
   64MOL    H1536681   5.381   1.741   1.702 -0.0584 -0.3376  2.1909
   64MOL    H1636682   5.621   1.668   1.696 -2.2771  2.4986  1.5388
   64MOL    H1736683   5.527   1.426   1.588  0.6052  2.3324 -1.9260
   64MOL    H1836684   5.554   1.774   1.489 -1.9384  0.7036  0.8468
   64MOL    H1936685   5.658   1.643   1.457 -0.0184  3.5898 -1.3951
   64MOL    H2036686   5.568   1.564   1.226  0.9142  0.3109  0.6081
   64MOL    H2136687   5.528   1.730   1.253 -1.2711 -0.0037  2.3353
   64MOL    H2236688   5.272   1.683   1.220  1.6011  0.7752  3.3959
   64MOL    H2336689   5.308   1.535   1.216  0.1624 -0.0422 -1.0261
   64MOL    H2436690   5.285   1.672   0.999 -1.1455  0.7944  3.2756
   64MOL    H2536691   5.453   1.717   1.007  0.2029  0.2287  1.7783
   64MOL    H2636692   5.505   1.606   0.818 -1.5576  1.0370  1.7160
   64MOL    H2736693   5.304   1.419   0.794  1.4632 -0.1395  1.1148
   64MOL    H2836694   5.557   1.400   0.710  1.5475  1.3893 -0.2554
   64MOL    H2936695   5.633   1.381   0.863  1.6614 -1.5468 -2.9611
   64MOL    H3036696   5.379   1.586   1.784 -2.6167  0.9399 -0.1615
   64MOL    C3136697   5.508   1.145   0.838 -0.3949  0.7965 -0.5544
   64MOL    C3236698   5.491   1.093   0.693 -0.2166 -0.8242  0.1541
   64MOL    O3336699   5.598   1.142   0.609 -0.3550 -0.2652 -0.2747
   64MOL    C3436700   5.356   1.117   0.631 -0.1287  0.2604 -0.1913
   64MOL    O3536701   5.362   1.038   0.514 -0.1414 -0.3922  0.2031
   64MOL    C3636702   5.236   1.045   0.450  0.4514 -0.2365  0.2941
   64MOL    C3736703   5.267   1.045   0.299 -0.4851  0.2038 -0.0122
   64MOL    C3836704   5.142   1.043   0.210 -0.7250  0.0891 -1.0811
   64MOL    O3936705   5.168   1.023   0.072 -0.0311  0.2939 -0.7762
   64MOL    C4036706   5.244   1.113   0.008 -0.3574 -0.2001  0.3044
   64MOL    O4136707   5.209   1.250   0.041 -0.4494 -0.1402 -0.1523
   64MOL    C4236708   5.222   1.093   7.551  0.6266  0.3125 -0.1972
   64MOL    O4336709   5.296   0.991   7.491  0.0088 -0.3008 -0.7804
   64MOL    H4436710   5.611   1.136   0.873 -1.2250 -3.9584  1.0314
   64MOL    H4536711   5.446   1.084   0.904 -0.4321  1.2021 -0.2163
   64MOL    H4636712   5.495   0.985   0.699 -0.7644 -0.8926 -0.6465
   64MOL    H4736713   5.604   1.085   0.533 -1.2400  1.0032 -1.3085
   64MOL    H4836714   5.279   1.073   0.694 -1.3511 -0.7170 -2.3225
   64MOL    H4936715   5.333   1.223   0.614  1.2261  0.1885 -2.7291
   64MOL    H5036716   5.173   1.131   0.472  0.1074 -0.1753 -0.8874
   64MOL    H5136717   5.186   0.957   0.491 -0.0582 -0.3361 -0.5148
   64MOL    H5236718   5.336   0.965   0.275  0.3442  0.3790  1.6916
   64MOL    H5336719   5.321   1.136   0.273  0.5751  0.0436  1.5310
   64MOL    H5436720   5.083   0.957   0.241  0.9013 -1.4565 -2.2080
   64MOL    H5536721   5.079   1.130   0.230  0.0732  0.5432 -0.5296
   64MOL    H5636722   5.350   1.101   0.031 -0.1537 -1.0415 -1.0805
   64MOL    H5736723   5.124   1.267   0.005  0.8829  3.2899 -1.9076
   64MOL    H5836724   5.116   1.076   7.533  0.4355  0.8544  0.4008
   64MOL    H5936725   5.261   1.174   7.489 -1.3675  0.0206 -1.8939
   64MOL    C6036726   5.291   0.867   7.550 -0.3137 -0.1063  0.5195
   64MOL    C6136727   5.396   0.785   7.478 -0.0451 -0.2904 -0.4414
   64MOL    O6236728   5.340   0.760   7.352 -0.3325  0.0889 -0.1526
   64MOL    C6336729   5.419   0.649   7.556  0.2005 -0.6975 -0.0777
   64MOL    O6436730   5.485   0.668   7.680 -0.0323 -0.8345 -0.1824
   64MOL    C6536731   5.550   0.552   0.030 -0.2769 -1.3216  0.2224
   64MOL    C6636732   5.557   0.556   0.181  0.5542 -0.8231 -0.0305
   64MOL    C6736733   5.633   0.671   0.243  0.3078  0.9856 -0.1110
   64MOL    O6836734   5.628   0.654   0.388  0.2998 -0.2579  0.2448
   64MOL    C6936735   5.679   0.766   0.453 -0.1652 -0.0651 -0.3267
   64MOL    O7036736   5.596   0.878   0.435 -0.2547  0.0358  0.3247
   64MOL    C7136737   5.698   0.738   0.601  0.1523 -0.1261  0.0854
   64MOL    O7236738   5.781   0.630   0.625 -0.1554  0.5778 -0.2748
   64MOL    H7336739   5.193   0.820   7.553 -0.7663  0.8846  1.5271
   64MOL    H7436740   5.322   0.878   7.654  0.7922 -0.3095  0.2257
   64MOL    H7536741   5.493   0.834   7.469  0.0787 -0.3294  0.6136
   64MOL    H7636742   5.299   0.840   7.324  1.4712  0.8210 -0.8009
   64MOL    H7736743   5.317   0.613   7.568  0.6646 -2.5980 -1.4277
   64MOL    H7836744   5.464   0.577   7.486 -0.0384 -1.1132  0.1939
   64MOL    H7936745   5.651   0.559   7.683 -0.8315 -1.7517 -1.2498
   64MOL    H8036746   5.489   0.465   0.008  0.3044 -1.1703 -2.1029
   64MOL    H8136747   5.605   0.465   0.217  0.6943 -0.3885  0.9025
   64MOL    H8236748   5.457   0.569   0.223  0.8469 -0.4997  0.5603
   64MOL    H8336749   5.574   0.756   0.210 -1.6867 -0.7517 -1.1749
   64MOL    H8436750   5.734   0.682   0.206 -0.2228  0.7147 -1.6503
   64MOL    H8536751   5.771   0.793   0.402 -1.6499 -0.8760 -3.6192
   64MOL    H8636752   5.507   0.857   0.458 -0.5643  0.6315 -0.3168
   64MOL    H8736753   5.742   0.828   0.644  2.0782  0.4701 -2.9325
   64MOL    H8836754   5.600   0.719   0.643  0.4621  0.1258  0.9343
   64MOL    C8936755   5.783   0.580   0.756  0.0929 -0.1885  0.1264
   64MOL    C9036756   5.818   0.436   0.767  0.2478 -0.2621 -0.3773
   64MOL    O9136757   5.713   0.358   0.717 -0.4415 -0.1704  0.1634
   64MOL    C9236758   5.954   0.400   0.698  0.0192  0.0882  0.8741
   64MOL    O9336759   6.014   0.290   0.757 -0.2133 -0.5333  0.2782
   64MOL    C9436760   5.936   0.168   0.731 -0.0588  0.4739 -0.0526
   64MOL    C9536761   6.010   0.058   0.811  0.0337 -0.4085 -0.4532
   64MOL    C9636762   5.989   0.034   0.965  0.1255  0.4443 -0.8050
   64MOL    O9736763   5.973   7.587   0.983  0.1332 -0.1331 -0.0172
   64MOL    C9836764   5.950   7.551   1.118 -0.1658  0.1468 -0.0009
   64MOL    O9936765   5.824   7.598   1.169 -0.4535 -0.2813  0.1732
   64MOL   C10036766   5.958   7.399   1.144  0.2153 -0.0557  0.5611
   64MOL   O10136767   5.848   7.347   1.070 -0.2116 -0.6569 -0.6315
   64MOL   H10236768   5.693   0.590   0.817  1.4210 -1.7941  2.4299
   64MOL   H10336769   5.863   0.630   0.811  0.0006  1.6078 -1.3355
   64MOL   H10436770   5.831   0.409   0.872 -0.4421 -1.0533 -0.4937
   64MOL   H10536771   5.717   0.385   0.627 -0.5446 -0.2063  0.1490
   64MOL   H10636772   5.931   0.391   0.591  0.8962  1.4140  0.5654
   64MOL   H10736773   6.030   0.475   0.720  1.3597 -0.6142 -1.1722
   64MOL   H10836774   5.956   0.146   0.626  0.2860 -2.2224  0.5467
   64MOL   H10936775   5.827   0.161   0.739 -0.1727  1.1375 -0.8758
   64MOL   H11036776   6.117   0.053   0.790  0.6693  4.5219  1.0428
   64MOL   H11136777   5.975   7.655   0.777 -0.0440 -0.6352  0.2606
   64MOL   H11236778   6.067   0.070   1.032 -0.1728 -1.8947  0.8488
   64MOL   H11336779   5.902   0.086   1.005  1.1468  2.4818 -1.1419
   64MOL   H11436780   6.030   7.599   1.175 -0.3135  1.1113 -0.6018
   64MOL   H11536781   5.767   7.529   1.137  1.9537 -3.4942  2.3813
   64MOL   H11636782   6.059   7.368   1.117 -0.0463  0.5004 -1.1871
   64MOL   H11736783   5.950   7.381   1.251 -1.3177  0.6918  0.5872
   64MOL   C11836784   5.876   7.216   1.033 -0.3836  0.3031  0.1424
   64MOL   C11936785   5.745   7.134   1.030 -0.3477  0.5915 -0.6224
   64MOL   O12036786   5.661   7.196   0.927  0.3089  0.3154 -0.2858
   64MOL   C12136787   5.676   7.133   1.169  0.7260  0.4337  0.5873
   64MOL   O12236788   5.583   7.022   1.162  0.0316  0.0478 -0.3404
   64MOL   C12336789   5.466   7.053   1.096  0.6252  0.1028  0.0136
   64MOL   C12436790   5.351   6.983   1.172  0.2855  0.4199  0.3639
   64MOL   C12536791   5.213   7.044   1.114 -0.0368 -0.7980 -0.1109
   64MOL   O12636792   5.174   6.986   0.994  0.1628 -0.0051  0.4307
   64MOL   C12736793   5.140   7.071   0.893 -0.5991  0.4040  0.3864
   64MOL   O12836794   5.025   7.146   0.921  0.3633  0.3187  0.2630
   64MOL   C12936795   5.112   6.984   0.767  0.0748  0.9915 -1.1653
   64MOL   O13036796   5.229   6.929   0.708  0.4858  0.6747 -0.0318
   64MOL   H13136797   5.925   7.215   0.936 -0.6308  2.1688 -0.0099
   64MOL   H13236798   5.955   7.166   1.091 -1.5690 -1.5298  0.2119
   64MOL   H13336799   5.778   7.034   1.003  0.1178  0.6272 -0.1766
   64MOL   H13436800   5.667   7.287   0.955 -0.1628  0.2085  0.1668
   64MOL   H13536801   5.737   7.122   1.258  1.8419 -0.7459 -0.3100
   64MOL   H13636802   5.628   7.230   1.181 -0.5041  0.0765 -1.1653
   64MOL   H13736803   5.473   7.008   0.997  2.9782  1.1347 -0.3249
   64MOL   H13836804   5.440   7.157   1.077 -2.0455 -0.4983  0.1944
   64MOL   H13936805   5.355   7.016   1.276 -1.8871 -2.7653  1.5437
   64MOL   H14036806   5.346   6.874   1.163 -0.5338  0.5918 -1.3429
   64MOL   H14136807   5.137   7.025   1.190 -0.1351 -0.3887 -0.1085
   64MOL   H14236808   5.226   7.152   1.107  0.9634 -0.9104 -0.0941
   64MOL   H14336809   5.220   7.141   0.871 -0.5314  0.1115 -0.3104
   64MOL   H14436810   4.959   7.145   0.854 -0.8469 -0.5103  1.4491
   64MOL   H14536811   5.039   6.906   0.787  1.1874  0.3026  0.2599
   64MOL   H14636812   5.061   7.052   0.698 -2.8136  1.5116  1.3620
   64MOL   C14736813   5.268   6.805   0.760  0.4027  0.0365  0.0112
   64MOL   C14836814   5.399   6.755   0.700 -0.4214  0.4014 -0.4326
   64MOL   O14936815   5.409   6.621   0.729  0.4781  0.4301  0.3644
   64MOL   C15036816   5.525   6.811   0.767 -0.4059 -0.1254  0.0260
   64MOL   O15136817   5.640   6.748   0.722 -0.0769 -0.3853 -0.4057
   64MOL   C15236818   5.757   6.827   0.752  0.0463 -0.5812 -0.6950
   64MOL   C15336819   5.885   6.745   0.731  0.0879 -0.2340 -0.8043
   64MOL   C15436820   5.878   6.665   0.604  0.0517 -0.3685  0.0670
   64MOL   O15536821   6.000   6.599   0.600  0.4954  0.4636 -0.6690
   64MOL   C15636822   6.030   6.531   0.491 -0.3809  0.4477  0.3633
   64MOL   O15736823   5.999   6.394   0.504  0.1436  0.2430  0.0672
   64MOL   C15836824   6.179   6.550   0.466 -0.5407  0.4939  0.2341
   64MOL   O15936825   6.199   6.684   0.414 -0.3391 -0.4505 -0.2827
   64MOL   H16036826   5.180   6.743   0.740  0.8725  0.2379 -2.8148
   64MOL   H16136827   5.287   6.807   0.867 -2.0634  0.0295  0.4793
   64MOL   H16236828   5.401   6.764   0.591  0.7823  1.1379 -0.3646
   64MOL   H16336829   5.501   6.599   0.728  0.7859  1.6946  0.1297
   64MOL   H16436830   5.532   6.916   0.741 -1.5464 -0.6767 -2.7674
   64MOL   H16536831   5.519   6.793   0.874 -1.7913 -0.3810 -0.0850
   64MOL   H16636832   5.746   6.872   0.851 -0.1696  1.8545 -1.7707
   64MOL   H16736833   5.766   6.911   0.682  0.4385 -2.0223 -2.4119
   64MOL   H16836834   5.884   6.672   0.812 -0.4100  0.0860 -0.5218
   64MOL   H16936835   5.978   6.801   0.739 -0.3712  0.2290  1.4738
   64MOL   H17036836   5.796   6.593   0.612 -0.1804 -0.1097  0.0072
   64MOL   H17136837   5.864   6.738   0.525 -0.4053  2.5474  2.7170
   64MOL   H17236838   5.976   6.563   0.402 -0.0020  0.7824  0.2516
   64MOL   H17336839   5.906   6.388   0.523 -0.5122  0.1232 -2.8732
   64MOL   H17436840   6.240   6.537   0.555 -2.1540  0.0225  1.2842
   64MOL   H17536841   6.205   6.471   0.395 -1.4545  0.8447 -0.4996
   64MOL   C17636842   6.336   6.717   0.427 -0.5557  0.3410 -0.5520
   64MOL   C17736843   6.371   6.836   0.345 -0.4311 -0.1649  0.4727
   64MOL   O17836844   6.286   6.946   0.383  0.0246  0.1762  0.0758
   64MOL   C17936845   6.354   6.811   0.192  0.1980  0.7480  0.6241
   64MOL   O18036846   6.434   6.711   0.139  0.1568 -0.6596 -0.5795
   64MOL   C18136847   6.380   6.657   0.025  0.3975  0.0075  0.0901
   64MOL   C18236848   6.474   6.534   0.003  0.3976 -0.0656  1.2901
   64MOL   C18336849   6.458   6.419   0.104  0.0894 -0.4838  0.2342
   64MOL   O18436850   6.562   6.321   0.077  0.0966  0.2526 -0.2424
   64MOL   C18536851   6.575   6.233   0.177 -0.3627  0.4199  0.8408
   64MOL   O18636852   6.616   6.285   0.302 -0.1782 -0.3296  0.5392
   64MOL   C18736853   6.676   6.129   0.131 -0.1688 -0.2490 -0.1803
   64MOL   O18836854   6.603   6.010   0.106  0.0929 -0.3262 -0.6950
   64MOL   H18936855   6.404   6.645   0.381 -1.2023 -0.0547 -0.9063
   64MOL   H19036856   6.367   6.728   0.531  2.5037 -1.2285 -1.2556
   64MOL   H19136857   6.470   6.869   0.374 -0.7232 -0.8392  2.2952
   64MOL   H19236858   6.201   6.908   0.400  0.8358 -1.0832  1.3404
   64MOL   H19336859   6.248   6.792   0.182  0.2821  0.5055  0.2005
   64MOL   H19436860   6.370   6.910   0.150  2.2958 -0.2067 -0.8903
   64MOL   H19536861   6.391   6.728   7.638 -0.5671  1.1548  0.9356
   64MOL   H19636862   6.274   6.633   0.037 -0.0179  2.7959  2.5786
   64MOL   H19736863   6.577   6.570   7.692  0.3919 -0.1952  0.1147
   64MOL   H19836864   6.441   6.478   7.610  0.8396 -0.1863  1.1954
   64MOL   H19936865   6.461   6.458   0.205 -2.3132  0.8399 -0.1521
   64MOL   H20036866   6.357   6.375   0.102  0.2724 -1.1660  3.4685
   64MOL   H20136867   6.477   6.187   0.191 -1.1057  1.3109 -1.1527
   64MOL   H20236868   6.699   6.323   0.278  0.3736 -1.1495  1.1162
   64MOL   H20336869   6.728   6.169   0.044  1.8540 -2.0295  0.1573
   64MOL   H20436870   6.760   6.113   0.198  0.7082 -0.2562 -1.2775
   64MOL   C20536871   6.685   5.897   0.070  0.2102 -0.3252  0.0532
   64MOL   C20636872   6.605   5.769   0.045  0.5635  0.3277 -0.0825
   64MOL   O20736873   6.524   5.766   7.619 -0.4979 -0.4328  0.1161
   64MOL   C20836874   6.694   5.644   0.055  0.5115 -0.6002 -0.1615
   64MOL   O20936875   6.788   5.640   0.159  0.7131  0.3209  0.5402
   64MOL   C21036876   6.722   5.624   0.287  0.3506 -0.2613  0.2956
   64MOL   C21136877   6.779   5.523   0.378 -0.7335  0.0715  0.3900
   64MOL   C21236878   6.914   5.552   0.437 -0.5192 -0.2273 -0.1029
   64MOL   O21336879   6.930   5.466   0.542 -0.1754 -0.1002 -0.6145
   64MOL   C21436880   7.060   5.454   0.592  0.6269  0.5250  0.1578
   64MOL   O21536881   7.155   5.401   0.504  0.1826 -0.1315  0.2711
   64MOL   C21636882   7.062   5.366   0.713  0.1345  0.2263 -0.3753
   64MOL   O21736883   7.082   5.234   0.667  0.4735  0.1720 -0.3225
   64MOL   H21836884   6.750   5.880   0.156 -2.9616 -2.2761  2.1478
   64MOL   H21936885   6.743   5.922   7.675 -1.0305  2.8791  0.0570
   64MOL   H22036886   6.539   5.774   0.131  1.1258 -1.0027  0.4523
   64MOL   H22136887   6.585   5.780   7.549 -2.3221  1.0673 -1.2127
   64MOL   H22236888   6.630   5.557   0.039  0.0002 -0.0020 -1.4122
   64MOL   H22336889   6.757   5.657   7.662  1.9392 -0.0433  0.9288
   64MOL   H22436890   6.618   5.590   0.279  0.3482 -0.4531  1.1402
   64MOL   H22536891   6.718   5.723   0.333  0.3194  0.1377 -0.5463
   64MOL   H22636892   6.769   5.428   0.325 -0.1146  1.6815 -2.7802
   64MOL   H22736893   6.711   5.525   0.463 -0.8192 -0.8774  0.3531
   64MOL   H22836894   6.975   5.509   0.357  0.9972  1.9958 -0.1849
   64MOL   H22936895   6.936   5.656   0.460 -1.2426  0.1903 -1.2729
   64MOL   H23036896   7.098   5.555   0.605 -1.6100  1.7087 -2.0716
   64MOL   H23136897   7.157   5.313   0.540 -2.4416 -0.3064  0.1084
   64MOL   H23236898   7.142   5.387   0.784  0.0929  0.4422 -0.3917
   64MOL   H23336899   6.977   5.377   0.781 -0.1084  1.9021 -0.9097
   64MOL   C23436900   6.961   5.154   0.677 -0.5891 -0.3826 -0.1940
   64MOL   C23536901   6.940   5.092   0.538 -0.0468  0.4619 -0.0722
   64MOL   O23636902   6.868   5.193   0.465  0.3859  0.0034 -0.3206
   64MOL   C23736903   6.865   4.958   0.539  0.3648 -0.7157  0.3743
   64MOL   O23836904   6.940   4.864   0.617 -0.1223 -0.0742 -0.3924
   64MOL   C23936905   6.864   4.747   0.651 -0.2866  0.5002 -0.2895
   64MOL   C24036906   6.964   4.667   0.746  0.0157  0.0113  0.1729
   64MOL   C24136907   6.965   4.734   0.881 -0.4679 -0.6400  0.5111
   64MOL   O24236908   7.034   4.640   0.967  0.2683 -0.0057 -0.2072
   64MOL   C24336909   7.007   4.655   1.105 -0.7331  0.1207 -0.2848
   64MOL   O24436910   7.056   4.774   1.154 -0.2095 -0.4692  0.6565
   64MOL   C24536911   7.073   4.533   1.182  0.1023  0.1446 -0.6675
   64MOL   O24636912   7.001   4.415   1.160 -0.0339  0.5838  0.1954
   64MOL   H24736913   7.001   5.082   0.749 -0.3996 -0.1961 -0.1133
   64MOL   H24836914   6.875   5.200   0.726 -0.0405  0.2142  0.2151
   64MOL   H24936915   7.040   5.087   0.495 -0.1350 -0.6434 -0.1549
   64MOL   H25036916   6.906   5.278   0.480 -0.6367  0.3578  0.3546
   64MOL   H25136917   6.761   4.971   0.570 -0.0279  1.6584 -1.7494
   64MOL   H25236918   6.849   4.909   0.442 -3.2391  0.2251  0.4164
   64MOL   H25336919   6.842   4.680   0.568  0.0695  1.9287 -1.5709
   64MOL   H25436920   6.774   4.768   0.709  0.8007 -0.9017  1.9737
   64MOL   H25536921   7.067   4.661   0.712  0.2214 -1.8598  1.0466
   64MOL   H25636922   6.933   4.563   0.750 -0.1796  0.0869  0.7809
   64MOL   H25736923   7.025   4.825   0.878  1.3301 -1.7074  2.7430
   64MOL   H25836924   6.865   4.757   0.917 -0.7747  1.2365 -1.4604
   64MOL   H25936925   6.903   4.656   1.136 -0.6593  1.1775 -0.0287
   64MOL   H26036926   7.150   4.772   1.147 -0.3319 -0.0908 -1.2435
   64MOL   H26136927   7.175   4.532   1.143 -0.2379  0.3632 -1.5871
   64MOL   H26236928   7.072   4.554   1.288  0.9884  0.0306 -0.6341
   64MOL   C26336929   7.081   4.331   1.085  0.2777 -0.8995 -0.0208
   64MOL   C26436930   7.019   4.199   1.053 -0.2275  0.1692  0.4864
   64MOL   O26536931   7.004   4.144   1.184 -0.4947 -0.5159  0.1182
   64MOL   C26636932   6.882   4.217   0.984  0.3250  0.2001 -0.5736
   64MOL   O26736933   6.892   4.249   0.848  0.7175  1.0599 -0.1081
   64MOL   C26836934   6.767   4.294   0.800  0.0627 -0.0717 -0.1700
   64MOL   C26936935   6.781   4.304   0.647  0.5095 -0.2397 -0.4932
   64MOL   C27036936   6.747   4.167   0.583  0.4101 -0.3824  0.1375
   64MOL   O27136937   6.615   4.132   0.614  0.2486 -0.4778 -0.3872
   64MOL   C27236938   6.568   4.014   0.560  0.4905  0.4421  0.2565
   64MOL   O27336939   6.619   3.908   0.635 -0.1854  0.0928 -0.6797
   64MOL   C27436940   6.419   4.014   0.565  0.9628  0.0766  0.3640
   64MOL   O27536941   6.371   4.053   0.445  0.4470  0.0722  0.5923
   64MOL   H27636942   7.171   4.308   1.142  0.8388  1.3236  0.0304
   64MOL   H27736943   7.108   4.377   0.990 -3.3093  0.6250 -0.3610
   64MOL   H27836944   7.087   4.136   0.996  1.3449 -0.4004  2.9132
   64MOL   H27936945   6.945   4.204   1.228 -0.9965 -0.4496 -0.6508
   64MOL   H28036946   6.838   4.119   1.005  1.5317 -0.4504 -1.0093
   64MOL   H28136947   6.823   4.288   1.041 -1.5636 -0.3307 -1.8114
   64MOL   H28236948   6.732   4.390   0.838 -0.9344 -0.3507 -0.3841
   64MOL   H28336949   6.689   4.224   0.829  0.4229  0.3436  1.8490
   64MOL   H28436950   6.886   4.323   0.623  0.5659  1.1577  0.8315
   64MOL   H28536951   6.724   4.387   0.606  0.3214  0.1553  0.5566
   64MOL   H28636952   6.746   4.179   0.475 -0.0327  0.6585  0.2499
   64MOL   H28736953   6.816   4.085   0.602  1.8568  0.6639 -0.5726
   64MOL   H28836954   6.603   3.986   0.460  0.4794  0.0397  0.3629
   64MOL   H28936955   6.707   3.895   0.605  0.2811 -0.7097  0.9449
   64MOL   H29036956   6.369   3.922   0.594 -1.4346  1.7546  1.7655
   64MOL   H29136957   6.391   4.091   0.637  1.2928  1.1506 -0.6438
   64MOL   C29236958   6.227   4.050   0.430  0.2222 -0.1690  0.2328
   64MOL   C29336959   6.201   4.103   0.288 -0.4700 -0.1927  0.4921
   64MOL   O29436960   6.280   4.224   0.273  0.0864 -0.6238  0.2277
   64MOL   C29536961   6.234   4.011   0.170  0.9473  0.4625 -0.0783
   64MOL   O29636962   6.127   4.014   0.077 -0.0288  0.1808  0.0027
   64MOL   C29736963   6.119   4.122   7.679  1.0882  0.3820  0.4817
   64MOL   C29836964   5.980   4.101   7.599 -0.1109  0.0313  0.2743
   64MOL   C29936965   5.953   4.203   7.485  1.4064 -0.0250 -0.3388
   64MOL   O30036966   5.852   4.146   7.408 -0.2620 -0.3029  0.3137
   64MOL   C30136967   5.874   4.178   7.267 -0.1737  0.2000 -0.5036
   64MOL   O30236968   5.972   4.100   7.202  0.5655  0.5159  0.3636
   64MOL   C30336969   5.746   4.163   7.188  0.0432 -0.0052  0.2581
   64MOL   O30436970   5.719   4.022   7.201  0.5019  0.1333 -0.0893
   64MOL   H30536971   6.179   3.952   0.435  2.8001 -1.3461  3.0513
   64MOL   H30636972   6.176   4.107   0.507  1.6312 -0.7562  1.6118
   64MOL   H30736973   6.095   4.125   0.285 -0.7776 -1.8186 -0.5914
   64MOL   H30836974   6.360   4.211   0.323 -0.8704  0.1310  1.9785
   64MOL   H30936975   6.322   4.044   0.116  0.1607  1.1202 -0.9565
   64MOL   H31036976   6.255   3.909   0.202  0.3482  0.7602  1.3164
   64MOL   H31136977   6.202   4.124   7.609  0.7603  1.3295  0.1196
   64MOL   H31236978   6.114   4.217   0.038 -2.4934  0.5733 -0.0624
   64MOL   H31336979   5.907   4.109   7.680  0.0245  0.3715  0.3618
   64MOL   H31436980   5.966   3.997   7.568 -5.4545  0.3248  1.2247
   64MOL   H31536981   5.912   4.292   7.533 -2.9386 -0.6012 -2.7955
   64MOL   H31636982   6.044   4.232   7.431  1.7859  0.8712  0.7476
   64MOL   H31736983   5.905   4.283   7.269  0.5033 -0.0100  0.5740
   64MOL   H31836984   5.925   4.027   7.167  0.5743  1.1983 -1.1099
   64MOL   H31936985   5.755   4.197   7.085 -0.0422  0.0963  0.2841
   64MOL   H32036986   5.662   4.221   7.227 -0.0480 -0.6779  1.0966
   64MOL   C32136987   5.639   3.969   7.099 -0.0635 -0.1072  0.9962
   64MOL   C32236988   5.610   3.819   7.120 -0.3928 -0.3324 -0.0135
   64MOL   O32336989   5.539   3.780   7.236 -0.3749 -0.2853 -0.0538
   64MOL   C32436990   5.545   3.748   6.997  0.3585 -0.6472  0.2489
   64MOL   O32536991   5.605   3.617   6.979  0.2870  0.2052  0.4699
   64MOL   C32636992   5.559   3.516   7.064 -0.3620 -0.0576 -0.4102
   64MOL   C32736993   5.588   3.383   6.996 -0.6745  0.6958  0.3460
   64MOL   C32836994   5.516   3.271   7.075  0.4603  0.5282 -0.3016
   64MOL   O32936995   5.534   3.146   7.010  0.3664 -0.1665 -0.5639
   64MOL   C33036996   5.451   3.043   7.059  0.4835  0.3120  0.3750
   64MOL   O33136997   5.312   3.079   7.034  0.0450 -0.6775 -0.0757
   64MOL   C33236998   5.484   2.908   6.984  0.0009  0.0160 -0.3567
   64MOL   O33336999   5.617   2.877   7.009  0.2278 -0.1932 -0.5952
   64MOL   H33437000   5.689   3.975   7.002 -0.9439 -1.1434  0.4511
   64MOL   H33537001   5.548   4.027   7.090 -0.7856 -1.3601 -0.0936
   64MOL   H33637002   5.708   3.776   7.138 -0.1892  0.3189  0.4091
   64MOL   H33737003   5.532   3.856   7.292 -0.7538 -0.0533 -0.4226
   64MOL   H33837004   5.580   3.808   6.913 -0.7979 -0.9010 -0.4154
   64MOL   H33937005   5.437   3.737   6.986  0.2750  0.8272 -0.5127
   64MOL   H34037006   5.450   3.526   7.064 -0.1853  2.2754 -1.4726
   64MOL   H34137007   5.607   3.533   7.159 -1.8495 -0.6307  0.4707
   64MOL   H34237008   5.549   3.373   6.895  1.1809  0.3096 -0.3458
   64MOL   H34337009   5.695   3.359   6.995 -0.8646 -0.2087 -2.0031
   64MOL   H34437010   5.562   3.266   7.173  1.6371 -0.2221 -0.8748
   64MOL   H34537011   5.413   3.306   7.075  1.0016  2.1570  0.0900
   64MOL   H34637012   5.474   3.037   7.166  2.1610  0.5729  0.0511
   64MOL   H34737013   5.314   3.130   6.954 -0.0872 -0.3528  0.1270
   64MOL   H34837014   5.418   2.828   7.017 -1.7477  1.8266  0.6900
   64MOL   H34937015   5.463   2.919   6.878  0.5155 -2.0848 -0.7027
   64MOL   C35037016   5.711   2.905   6.897 -0.0711 -0.1501 -0.3657
   64MOL   C35137017   5.841   2.901   6.977 -0.2903 -0.2414  0.1944
   64MOL   O35237018   5.906   2.781   6.967 -0.4116  0.2175  0.0439
   64MOL   C35337019   5.944   3.004   6.921  0.0112  0.2980  0.2149
   64MOL   O35437020   6.069   3.020   6.990 -0.2412 -0.6043  0.7316
   64MOL   C35537021   6.055   3.123   7.088  0.7004 -0.6930 -0.2276
   64MOL   C35637022   6.188   3.136   7.162 -0.3731  0.2365  0.1130
   64MOL   C35737023   6.208   3.265   7.246  0.1044 -0.4606  0.4233
   64MOL   O35837024   6.331   3.251   7.310  0.0906 -0.4281  0.3212
   64MOL   C35937025   6.370   3.362   7.392  0.0718  0.7013 -0.0075
   64MOL   O36037026   6.282   3.385   7.499  0.8030  0.1828 -0.2806
   64MOL   C36137027   6.501   3.336   7.464  0.0273 -0.2318  0.3054
   64MOL   O36237028   6.487   3.221   7.541 -0.4008  0.0958  0.1464
   64MOL   H36337029   5.700   3.003   6.851  0.6220  0.6278  1.0822
   64MOL   H36437030   5.721   2.837   6.812  1.1386  0.6703 -0.8972
   64MOL   H36537031   5.829   2.935   7.080 -0.6764 -0.0606  0.0907
   64MOL   H36637032   5.993   2.806   6.995  0.3822 -2.0688 -0.2491
   64MOL   H36737033   5.964   2.965   6.821  4.9462  0.9656  0.8061
   64MOL   H36837034   5.911   3.102   6.887 -0.7959 -1.0356 -3.0777
   64MOL   H36937035   5.976   3.094   7.158  1.9394 -0.0743  1.4786
   64MOL   H37037036   6.030   3.215   7.036  0.2175 -0.6044  0.1539
   64MOL   H37137037   6.263   3.144   7.084 -0.8205 -0.4612 -0.3901
   64MOL   H37237038   6.207   3.046   7.222 -0.3499 -0.3975 -0.8314
   64MOL   H37337039   6.211   3.352   7.181 -0.2740  0.1371  1.1928
   64MOL   H37437040   6.120   3.274   7.310  0.9518  1.2707  1.3866
   64MOL   H37537041   6.383   3.454   7.336 -0.2304  0.2142 -0.8851
   64MOL   H37637042   6.281   3.304   7.548  2.1078  0.2176 -0.1660
   64MOL   H37737043   6.578   3.323   7.388  1.0525  0.5716  1.1956
   64MOL   H37837044   6.526   3.415   7.535  1.1752  0.2085 -0.5788
   64MOL   C37937045   6.600   3.198   7.631 -0.3645 -1.0949 -0.1107
   64MOL   C38037046   6.574   3.081   0.032  0.4559 -0.1580  0.1186
   64MOL   O38137047   6.619   2.965   7.649 -0.1738  0.9226 -0.0828
   64MOL   C38237048   6.665   3.089   0.160  0.1861  0.1468 -0.5040
   64MOL   O38337049   6.643   3.197   0.255 -0.0693 -0.1437  0.3834
   64MOL   C38437050   6.759   3.279   0.268 -0.1698  0.9451  0.6639
   64MOL   C38537051   6.721   3.395   0.357 -0.2383 -0.6405  0.6147
   64MOL   C38637052   6.701   3.357   0.506  0.4097 -0.1201 -0.4778
   64MOL   O38737053   6.811   3.298   0.561  0.0409 -0.0984  0.3459
   64MOL   C38837054   6.810   3.273   0.701 -0.4777  0.4247 -0.6842
   64MOL   O38937055   6.696   3.201   0.741  0.2719  0.3069  0.2208
   64MOL   C39037056   6.943   3.206   0.741  0.5101  0.2317  0.0961
   64MOL   O39137057   6.969   3.083   0.677 -0.1506  0.9878 -0.4922
   64MOL   H39237058   6.609   3.285   0.002  2.0567 -1.6778  0.3728
   64MOL   H39337059   6.686   3.183   7.567 -1.9041 -0.9114 -2.2724
   64MOL   H39437060   6.470   3.068   0.065  0.4308 -0.2118  0.0175
   64MOL   H39537061   6.543   2.934   7.602  0.2992 -1.4294  0.6417
   64MOL   H39637062   6.634   3.002   0.218  1.8383  0.5232  1.0037
   64MOL   H39737063   6.771   3.073   0.136  0.3131 -0.6634  0.5788
   64MOL   H39837064   6.778   3.327   0.172 -1.5881 -0.0570 -0.1402
   64MOL   H39937065   6.843   3.216   0.299  0.6236  1.4545 -0.4211
   64MOL   H40037066   6.628   3.435   0.317  2.2707  2.9306 -1.9453
   64MOL   H40137067   6.796   3.473   0.341 -0.8606  0.3393  2.2501
   64MOL   H40237068   6.681   3.444   0.570  1.1632  0.3498 -0.8663
   64MOL   H40337069   6.619   3.287   0.518  0.5356 -0.3855 -1.1734
   64MOL   H40437070   6.808   3.366   0.759  0.3126  1.0530 -1.6605
   64MOL   H40537071   6.704   3.112   0.708  1.2453  1.0167 -1.5417
   64MOL   H40637072   7.017   3.278   0.705  1.0104  0.5043  1.6064
   64MOL   H40737073   6.950   3.195   0.850  1.0773  1.8605  0.2417
   64MOL   C40837074   7.041   3.087   0.552 -0.0377  0.2137  0.7642
   64MOL   C40937075   7.019   2.957   0.473 -0.0175 -0.3735 -0.4941
   64MOL   O41037076   7.054   2.846   0.551 -0.0466  0.0673  0.1807
   64MOL   C41137077   7.090   2.951   0.336  0.8274 -0.2545  0.2600
   64MOL   O41237078   7.034   3.054   0.253  0.2558  0.0762  0.1196
   64MOL   C41337079   7.097   3.072   0.130 -0.2509 -0.0909  0.0628
   64MOL   C41437080   7.053   3.195   0.054 -0.4400  0.2142  0.5224
   64MOL   C41537081   7.077   3.316   0.138 -0.1549 -0.4746 -0.9821
   64MOL   O41637082   7.034   3.429   0.055 -0.2475  0.1736  0.3440
   64MOL   C41737083   7.092   3.552   0.108  0.2045 -0.2177 -0.7736
   64MOL   O41837084   7.029   3.592   0.227  0.2583 -0.1325  0.1460
   64MOL   C41937085   7.076   3.661   0.000 -0.6778 -0.0661  0.1125
   64MOL   O42037086   7.131   3.778   0.057  1.0793  0.4634  0.5425
   64MOL   H42137087   7.144   3.113   0.574  0.0449 -0.0031  0.6333
   64MOL   H42237088   6.999   3.163   0.487 -2.1876 -2.3213 -0.9160
   64MOL   H42337089   6.919   2.933   0.438 -0.4457 -0.6103  0.8686
   64MOL   H42437090   7.013   2.849   0.637  0.2891 -1.7224  0.4368
   64MOL   H42537091   7.194   2.979   0.349  0.8363 -0.9517  1.7079
   64MOL   H42637092   7.066   2.858   0.284 -3.4666 -0.5814  2.6167
   64MOL   H42737093   7.204   3.063   0.151  0.1169  1.2464 -1.1559
   64MOL   H42837094   7.085   2.978   0.075  1.1157  1.5761 -3.2337
   64MOL   H42937095   6.954   3.184   0.010 -0.6240  0.8294  0.7704
   64MOL   H43037096   7.124   3.191   7.666 -0.2789 -3.5747  0.7457
   64MOL   H43137097   7.021   3.322   0.231 -0.3523 -0.0069 -1.1259
   64MOL   H43237098   7.181   3.321   0.169 -0.5008  0.0700  0.1000
   64MOL   H43337099   7.197   3.537   0.131  0.5209  1.1674 -1.3188
   64MOL   H43437100   7.084   3.663   0.255 -1.9813  2.0623 -0.8383
   64MOL   H43537101   7.148   3.635   7.617 -0.0182  1.7295  0.0929
   64MOL   H43637102   6.970   3.671   7.668 -1.0308 -1.1837  1.0486
   64MOL   C43737103   7.129   3.885   7.662  0.0148 -0.7496 -0.3570
   64MOL   C43837104   7.194   4.008   0.034 -0.4545  0.7878 -0.0264
   64MOL   O43937105   7.094   4.073   0.104 -0.5361  0.7256  0.0878
   64MOL   C44037106   7.255   4.112   7.626  0.2588 -0.5998 -0.1776
   64MOL   O44137107   7.324   4.205   0.009  0.0378 -0.5399  0.3248
   64MOL   C44237108   7.413   4.293   7.629  0.0562  0.4638  0.2355
   64MOL   C44337109   7.473   4.393   0.026  0.0231  0.5051  0.5702
   64MOL   C44437110   7.382   4.522   0.059 -0.2397 -0.2148  0.5617
   64MOL   O44537111   7.383   4.624   7.651 -0.0358 -0.3477  0.4134
   64MOL   C44637112   7.309   4.736   7.693  0.0418 -0.1755  0.2430
   64MOL   O44737113   7.169   4.715   7.692 -0.2065  0.5700  0.4935
   64MOL   C44837114   7.336   4.852   7.602  0.8676  0.2276 -0.1230
   64MOL   O44937115   7.282   4.813   7.479 -0.4554 -0.4372  0.6466
   64MOL   H45037116   7.195   3.854   7.581 -0.0670 -2.6312  0.2660
   64MOL   H45137117   7.033   3.901   7.613 -1.3097  0.5316  2.5273
   64MOL   H45237118   7.271   3.968   0.101  0.0014 -1.9201 -2.0718
   64MOL   H45337119   7.124   4.162   0.115  1.1765  0.2998 -0.8573
   64MOL   H45437120   7.322   4.056   7.560  0.7680  0.6945 -0.7751
   64MOL   H45537121   7.173   4.152   7.567 -0.4678  0.7574  1.7034
   64MOL   H45637122   7.372   4.350   7.545  0.4617 -1.1450 -1.1010
   64MOL   H45737123   7.495   4.230   7.593 -2.5792 -2.6344 -0.4987
   64MOL   H45837124   7.568   4.430   7.680 -0.7892 -0.2498 -2.1391
   64MOL   H45937125   7.502   4.341   0.116  0.7255 -0.4002 -0.1666
   64MOL   H46037126   7.284   4.483   0.084 -1.0790  0.9219 -0.9034
   64MOL   H46137127   7.425   4.564   0.150 -2.2005  0.0508  1.3720
   64MOL   H46237128   7.345   4.760   0.099 -0.6820  1.2035  0.1876
   64MOL   H46337129   7.131   4.778   0.058  0.3677  1.4627 -0.0648
   64MOL   H46437130   7.298   4.944   7.645  1.6373  0.7198 -0.4716
   64MOL   H46537131   7.444   4.866   7.591  0.9046 -0.0194 -0.0971
   64MOL   C46637132   7.306   4.912   7.380 -0.7337  0.5922  0.5188
   64MOL   C46737133   7.219   4.887   7.254 -0.3886 -0.4988  0.0280
   64MOL   O46837134   7.086   4.900   7.292 -0.5792  0.1156  0.2485
   64MOL   C46937135   7.234   4.985   7.133 -0.8023  0.3734 -0.1872
   64MOL   O47037136   7.247   5.125   7.155 -0.3249 -0.5103  0.5767
   64MOL   C47137137   7.124   5.194   7.158  0.0401 -0.0058 -0.1998
   64MOL   C47237138   7.146   5.334   7.225  0.4783 -0.1377 -0.2907
   64MOL   C47337139   7.024   5.433   7.205  0.0912  0.3579  0.1705
   64MOL   O47437140   6.925   5.416   7.308 -0.0579 -0.2821 -0.5681
   64MOL   C47537141   6.799   5.453   7.275 -0.5090 -0.5004  0.0401
   64MOL   O47637142   6.782   5.588   7.241  0.5047 -0.8374  0.4451
   64MOL   C47737143   6.715   5.423   7.396  0.3966  0.0928  0.1672
   64MOL   O47837144   6.666   5.289   7.390 -0.3771  0.3529  0.0953
   64MOL   H47937145   7.413   4.901   7.359 -1.1930  0.1931 -1.7860
   64MOL   H48037146   7.294   5.012   7.421  2.3056  1.3705 -0.3735
   64MOL   H48137147   7.248   4.790   7.213  0.2515 -1.2301  2.1711
   64MOL   H48237148   7.068   4.825   7.347  0.7474 -0.7334 -0.4440
   64MOL   H48337149   7.331   4.959   7.089  0.9162  1.6074  2.7329
   64MOL   H48437150   7.154   4.973   7.061 -0.4228  0.8381 -0.6884
   64MOL   H48537151   7.060   5.142   7.230  0.9780 -1.3236 -0.2943
   64MOL   H48637152   7.078   5.201   7.060 -0.3613  0.4622  0.0204
   64MOL   H48737153   7.239   5.376   7.187  0.5963 -0.1776 -0.0461
   64MOL   H48837154   7.164   5.318   7.331  4.2863 -1.4419 -1.0637
   64MOL   H48937155   7.060   5.535   7.197  0.7861  0.0038 -1.5342
   64MOL   H49037156   6.971   5.405   7.114 -2.4742  4.6429  0.2118
   64MOL   H49137157   6.761   5.385   7.199 -1.7738 -1.4402  1.4696
   64MOL   H49237158   6.727   5.586   7.165 -0.8995  2.5538  1.2819
   64MOL   H49337159   6.767   5.438   7.490 -1.0748  0.1806  0.9754
   64MOL   H49437160   6.631   5.492   7.400  0.0020 -0.3520 -0.2506
   64MOL   C49537161   6.605   5.237   7.512 -0.4096 -0.5949  0.2935
   64MOL   C49637162   6.567   5.095   7.485  0.1597 -0.6042 -0.0084
   64MOL   O49737163   6.683   5.019   7.450  0.1052 -0.3104 -0.0015
   64MOL   C49837164   6.506   5.029   7.617  0.6419 -0.1247  0.5406
   64MOL   O49937165   6.368   5.072   7.619  0.0815  0.1510 -0.3149
   64MOL   C50037166   6.284   5.002   0.025  0.2011  0.0204 -0.3579
   64MOL   C50137167   6.152   5.078   0.054 -0.0541  0.4179 -0.2432
   64MOL   C50237168   6.065   5.029   0.181 -0.1469  0.6500  0.8603
   64MOL   O50337169   5.935   5.091   0.202 -0.1042  0.2080 -0.4541
   64MOL   C50437170   5.879   5.045   0.318  0.0906 -0.2491 -0.0535
   64MOL   O50537171   5.737   5.054   0.310 -0.2943 -0.6386 -0.2444
   64MOL   C50637172   5.931   5.150   0.427  0.2526  0.4832 -0.2206
   64MOL   O50737173   6.069   5.128   0.461 -0.4236 -0.1677 -0.0322
   64MOL   H50837174   6.526   5.307   7.538  0.4832 -0.4039  2.6002
   64MOL   H50937175   6.674   5.245   7.596 -1.9582  2.7000  1.3065
   64MOL   H51037176   6.495   5.085   7.404  0.6275  1.9366 -0.7684
   64MOL   H51137177   6.706   5.044   7.362  1.2145  1.0316  0.6374
   64MOL   H51237178   6.496   4.920   7.617  1.0172 -0.1590  0.5495
   64MOL   H51337179   6.566   5.064   0.006  2.5085  0.9719 -1.2282
   64MOL   H51437180   6.338   5.011   0.119  2.4389 -0.2559 -1.5950
   64MOL   H51537181   6.285   4.896   7.694  1.5211  0.5889 -2.8660
   64MOL   H51637182   6.091   5.060   7.660  0.1715 -1.6493  0.0001
   64MOL   H51737183   6.186   5.182   0.052 -0.2036  0.5033  0.8795
   64MOL   H51837184   6.045   4.923   0.167 -2.6557  0.8475  2.7270
   64MOL   H51937185   6.123   5.037   0.273  1.2432  0.8174 -0.0135
   64MOL   H52037186   5.892   4.937   0.326 -1.3579 -0.4756 -0.6540
   64MOL   H52137187   5.702   4.970   0.284  0.4842 -0.8021 -0.8000
   64MOL   H52237188   5.920   5.254   0.396  0.1058  0.1386 -1.3143
   64MOL   H52337189   5.878   5.140   0.522 -0.1660  1.1632 -0.3715
   64MOL   C52437190   6.111   5.193   0.575 -0.2757 -0.0744  0.3412
   64MOL   C52537191   6.261   5.177   0.589 -0.0834  0.7534 -0.4855
   64MOL   O52637192   6.278   5.042   0.620  0.1714 -0.1720 -0.2312
   64MOL   C52737193   6.328   5.252   0.701 -0.1515 -0.2723 -0.0846
   64MOL   O52837194   6.467   5.292   0.668 -0.4495 -0.0263 -0.2569
   64MOL   C52937195   6.530   5.343   0.782  0.5335 -0.3946  0.7163
   64MOL   C53037196   6.600   5.221   0.851 -0.4550 -0.0544  0.0857
   64MOL   C53137197   6.662   5.261   0.991  0.0096 -0.4447 -0.0031
   64MOL   O53237198   6.780   5.177   0.996  0.5195 -0.1565  1.0486
   64MOL   C53337199   6.839   5.174   1.120  0.1046  0.0889 -0.8812
   64MOL   O53437200   6.750   5.120   1.217 -0.0444 -0.0809 -0.0046
   64MOL   C53537201   6.964   5.085   1.091 -0.5829 -0.2108 -0.0241
   64MOL   O53637202   7.073   5.145   1.021  0.0561 -0.4835  0.2966
   64MOL   H53737203   6.076   5.148   0.667 -1.9473  1.4781  0.4846
   64MOL   H53837204   6.083   5.298   0.571  1.7053  0.4736 -0.0211
   64MOL   H53937205   6.304   5.206   0.493  0.1781  2.6324  0.1757
   64MOL   H54037206   6.218   4.989   0.568  1.8930 -0.9262 -1.4961
   64MOL   H54137207   6.269   5.340   0.727 -1.3548 -0.5493 -1.8253
   64MOL   H54237208   6.314   5.201   0.796 -2.5053  2.0973  0.8977
   64MOL   H54337209   6.459   5.402   0.840  0.3691  0.2859 -0.1558
   64MOL   H54437210   6.603   5.412   0.740  0.5408  0.2022  1.7131
   64MOL   H54537211   6.671   5.179   0.780 -0.9851 -2.3142  0.8658
   64MOL   H54637212   6.520   5.151   0.873 -0.9671 -0.1540 -1.9850
   64MOL   H54737213   6.679   5.369   0.989 -0.7289 -0.3350 -1.1748
   64MOL   H54837214   6.602   5.249   1.081 -3.6889 -2.0924 -2.5375
   64MOL   H54937215   6.873   5.269   1.161 -0.8594  0.7143 -1.5212
   64MOL   H55037216   6.742   5.029   1.193 -0.5923  1.3436 -5.9783
   64MOL   H55137217   7.002   5.069   1.192 -2.0739  1.5069  0.8460
   64MOL   H55237218   6.945   4.991   1.038  1.7094 -1.0936  0.6518
   64MOL   C55337219   7.187   5.057   1.031 -0.6244 -0.6209 -0.5550
   64MOL   C55437220   7.313   5.123   0.967 -0.5341 -0.3781 -0.1145
   64MOL   O55537221   7.283   5.102   0.836 -0.0893 -0.0614 -0.1604
   64MOL   C55637222   7.445   5.051   0.993 -0.1721  0.2015  0.3635
   64MOL   O55737223   7.487   5.093   1.119 -0.3186 -0.5099  0.4844
   64MOL   C55837224   7.626   5.048   1.151 -0.6474  0.2432  0.2624
   64MOL   C55937225   7.642   5.066   1.308  0.1507 -0.1715  0.6774
   64MOL   C56037226   0.061   4.996   1.373  0.8956 -0.0244  0.5702
   64MOL   O56137227   0.068   5.043   1.509  0.1306 -0.4888 -0.1303
   64MOL   C56237228   0.063   4.938   1.600 -0.1457 -0.6018  0.0678
   64MOL   O56337229   0.184   4.867   1.595 -0.7561 -0.4840  0.8222
   64MOL   C56437230   0.032   4.989   1.743 -0.0547  0.5885  0.1934
   64MOL   O56537231   0.139   5.048   1.809 -0.1842  0.2726  0.2288
   64MOL   H56637232   7.174   4.953   1.002 -1.8840 -0.7581  0.4559
   64MOL   H56737233   7.207   5.059   1.138 -2.2136 -1.7572 -0.2209
   64MOL   H56837234   7.321   5.229   0.988  3.8239 -0.8876  1.2921
   64MOL   H56937235   7.190   5.119   0.834 -0.4338 -1.7314  0.3213
   64MOL   H57037236   7.426   4.944   0.982  1.9412 -0.1567  0.0252
   64MOL   H57137237   7.517   5.087   0.920  0.9574  0.0901  1.4119
   64MOL   H57237238   7.647   4.946   1.118 -0.4957  0.3606 -0.0099
   64MOL   H57337239   0.007   5.112   1.105  1.9131 -1.3731  2.0518
   64MOL   H57437240   7.547   5.045   1.359 -1.5899  0.9996 -1.9513
   64MOL   H57537241   7.656   5.174   1.318  2.1965 -0.3408 -0.3104
   64MOL   H57637242   0.051   4.887   1.366 -0.7981  0.2036 -0.6765
   64MOL   H57737243   0.144   5.034   1.313  0.2542  0.3756 -0.0681
   64MOL   H57837244   7.683   4.860   1.580  0.0313 -0.7730  0.0787
   64MOL   H57937245   0.241   4.902   1.662  2.8568 -0.4652 -2.0962
   64MOL   H58037246   7.635   5.046   1.733 -2.3705 -3.2164 -1.7634
   64MOL   H58137247   0.016   4.906   1.812 -0.3638  1.4779  1.2008
   64MOL   H58237248   0.141   5.140   1.788 -2.2846 -0.1075 -1.8322
   65MOL     C137249   1.570   0.253   4.454  0.8591  0.0582  0.6777
   65MOL     C237250   1.502   0.349   4.350 -0.0550  0.0561 -0.4369
   65MOL     O337251   1.506   0.288   4.223  0.3114  0.1288 -0.6853
   65MOL     C437252   1.352   0.386   4.369 -0.3962  0.0266  0.2323
   65MOL     O537253   1.295   0.264   4.397 -0.0556  0.2407  0.4164
   65MOL     C637254   1.151   0.273   4.427 -0.0285 -0.1603 -0.3250
   65MOL     C737255   1.107   0.135   4.474  0.0200  0.2592  0.3366
   65MOL     C837256   0.955   0.140   4.514 -0.3136 -0.0157 -0.2366
   65MOL     O937257   0.922   0.023   4.579 -0.3797  0.2041 -0.5504
   65MOL    C1037258   0.786   0.010   4.622  0.1937  0.2417 -0.5182
   65MOL    O1137259   0.740   0.114   4.702  0.4612 -0.5808  0.0428
   65MOL    C1237260   0.777   7.566   4.693  0.4280 -0.1572 -0.0267
   65MOL    O1337261   0.773   7.466   4.595  0.1902 -0.1063  0.8449
   65MOL    H1437262   1.533   0.150   4.448  0.2205  0.3817 -1.2113
   65MOL    H1537263   1.568   0.287   4.557  0.1195 -0.5253  0.8648
   65MOL    H1637264   1.573   0.431   4.354 -1.8086  1.5425  0.9904
   65MOL    H1737265   1.427   0.237   4.220 -0.3565  1.0747  0.1148
   65MOL    H1837266   1.347   0.452   4.456  2.2782  1.7621 -0.8867
   65MOL    H1937267   1.297   0.430   4.287 -0.5273 -2.6671 -1.1745
   65MOL    H2037268   1.090   0.285   4.337 -2.5812 -1.9897  1.1161
   65MOL    H2137269   1.142   0.355   4.499  1.9301 -1.2131  1.1433
   65MOL    H2237270   1.172   0.098   4.553  0.4325 -1.9873 -1.0075
   65MOL    H2337271   1.118   0.058   4.397  1.5052  0.1991  0.5871
   65MOL    H2437272   0.946   0.224   4.582  0.3403 -0.6018  0.5953
   65MOL    H2537273   0.890   0.157   4.429  0.9109  0.7751 -1.0240
   65MOL    H2637274   0.728   0.017   4.530 -1.0489 -0.6050  0.1724
   65MOL    H2737275   0.788   0.115   4.784 -0.9048  1.3776  0.8708
   65MOL    H2837276   0.849   7.556   4.775 -0.9061  2.4730  1.5062
   65MOL    H2937277   0.681   7.558   4.743 -0.9891 -1.5278 -2.8182
   65MOL    H3037278   1.675   0.240   4.430  0.8688  0.8159  0.3108
   65MOL    C3137279   0.716   7.342   4.649 -0.5765 -0.4610  0.1425
   65MOL    C3237280   0.733   7.219   4.558  0.0416 -0.4949  0.3572
   65MOL    O3337281   0.604   7.151   4.563 -0.3881  0.0581  0.3432
   65MOL    C3437282   0.844   7.121   4.605  0.8800 -0.1804  0.4057
   65MOL    O3537283   0.846   7.014   4.511 -0.3480  0.6035  0.6112
   65MOL    C3637284   0.936   6.916   4.558 -0.5782  0.4349  0.0036
   65MOL    C3737285   0.946   6.800   4.455  0.4359  0.0287  0.1592
   65MOL    C3837286   0.992   6.671   4.522  0.0306  0.9930  1.1743
   65MOL    O3937287   1.008   6.586   4.409  0.4207  0.5694 -0.0134
   65MOL    C4037288   0.987   6.449   4.446  0.0470 -0.6393  0.4766
   65MOL    O4137289   1.074   6.409   4.548  0.0343  0.0692 -0.4464
   65MOL    C4237290   0.990   6.355   4.330  0.2118  0.1768  0.3134
   65MOL    O4337291   0.886   6.264   4.330 -0.1048  0.3606 -0.0182
   65MOL    H4437292   0.751   7.301   4.744 -2.3242 -0.3751  0.8295
   65MOL    H4537293   0.609   7.351   4.666 -1.3153 -0.8000 -3.8682
   65MOL    H4637294   0.751   7.259   4.458 -1.8013 -4.5955 -1.7326
   65MOL    H4737295   0.617   7.069   4.518  1.6748 -0.3006  1.5026
   65MOL    H4837296   0.936   7.179   4.611  0.5784  0.3717 -0.2975
   65MOL    H4937297   0.821   7.092   4.708  1.6686 -0.4639  0.5035
   65MOL    H5037298   0.894   6.878   4.651 -2.7803  1.8880 -0.3379
   65MOL    H5137299   1.036   6.956   4.572 -0.5566  0.0257  1.1068
   65MOL    H5237300   1.009   6.833   4.372 -2.1038  1.4924 -1.2937
   65MOL    H5337301   0.842   6.779   4.428  0.0804  1.1516  0.5910
   65MOL    H5437302   1.093   6.683   4.563  1.1225  1.1434 -1.4642
   65MOL    H5537303   0.913   6.638   4.588 -0.5096 -0.8441 -0.3522
   65MOL    H5637304   0.888   6.445   4.491  0.0048  0.1584  0.4536
   65MOL    H5737305   1.013   6.376   4.612 -0.2430  0.9644 -0.2416
   65MOL    H5837306   0.975   6.405   4.234  1.8398 -2.7122 -1.5077
   65MOL    H5937307   1.091   6.322   4.306  0.5897  0.0387  2.0253
   65MOL    C6037308   0.918   6.145   4.270 -0.3805  0.4620  0.7794
   65MOL    C6137309   0.799   6.048   4.251  0.1146  0.3000  0.3654
   65MOL    O6237310   0.841   5.918   4.221 -0.0411 -0.0232 -0.3394
   65MOL    C6337311   0.697   6.089   4.144 -0.2399  0.4009  0.3092
   65MOL    O6437312   0.601   5.987   4.101  0.4352 -0.9298  0.2760
   65MOL    C6537313   0.515   5.933   4.207 -0.2718 -0.4630  0.2010
   65MOL    C6637314   0.431   6.041   4.265 -0.0290  0.2469 -0.0569
   65MOL    C6737315   0.289   6.002   4.313  0.0873  0.0998  0.3435
   65MOL    O6837316   0.259   6.107   4.401 -0.4242 -0.2239 -0.8092
   65MOL    C6937317   0.183   6.213   4.349  0.6861  0.8808  0.0626
   65MOL    O7037318   0.050   6.171   4.320  0.0306 -0.7457 -0.7603
   65MOL    C7137319   0.165   6.318   4.460 -0.6730  0.0216  0.3077
   65MOL    O7237320   0.091   6.261   4.566 -0.6486 -0.0272 -0.0350
   65MOL    H7337321   0.993   6.094   4.330  0.6382  1.6487  0.5104
   65MOL    H7437322   0.976   6.158   4.179 -0.4210 -3.2386  0.1476
   65MOL    H7537323   0.746   6.050   4.346  1.0094 -1.9303  0.9545
   65MOL    H7637324   0.857   5.916   4.128 -2.8943 -1.7712 -0.8680
   65MOL    H7737325   0.643   6.179   4.174  0.6138  0.7999  0.6649
   65MOL    H7837326   0.736   6.118   4.047 -0.1279 -0.6745  0.0263
   65MOL    H7937327   0.583   5.891   4.281 -0.1163  1.2435  1.0427
   65MOL    H8037328   0.457   5.849   4.168 -1.2764  0.1966  0.2799
   65MOL    H8137329   0.418   6.121   4.192 -2.7340  1.1904  1.3958
   65MOL    H8237330   0.485   6.081   4.350  0.4879  0.6570 -0.5680
   65MOL    H8337331   0.279   5.911   4.372 -0.0938 -0.6375 -0.7956
   65MOL    H8437332   0.223   6.002   4.226 -1.0572  1.6910  1.1983
   65MOL    H8537333   0.232   6.259   4.264  0.1966 -0.1212 -0.7733
   65MOL    H8637334   0.001   6.166   4.401  0.9595 -3.0477 -0.2847
   65MOL    H8737335   0.266   6.335   4.495 -1.3947  2.0528  1.4746
   65MOL    H8837336   0.121   6.409   4.419  0.5856  0.3821 -0.2865
   65MOL    C8937337   0.079   6.346   4.677 -0.1186  0.5146 -0.0860
   65MOL    C9037338   0.005   6.267   4.793  0.5457  0.3676 -0.0292
   65MOL    O9137339   7.681   6.346   4.909  0.2296 -0.0790 -0.5556
   65MOL    C9237340   7.563   6.223   4.763 -0.0778  0.2100  0.2394
   65MOL    O9337341   7.542   6.085   4.768 -0.3736  0.5307  0.1167
   65MOL    C9437342   7.593   6.018   4.652 -0.0062  0.5433  0.0359
   65MOL    C9537343   7.519   5.889   4.642  0.7051 -0.1550  0.2425
   65MOL    C9637344   7.588   5.772   4.556  0.5204 -0.8559 -0.9137
   65MOL    O9737345   7.608   5.812   4.426 -0.4018  0.4033 -0.0044
   65MOL    C9837346   7.654   5.711   4.337  0.2277 -0.7713  0.0837
   65MOL    O9937347   7.567   5.604   4.311  0.2563  0.3775 -0.3528
   65MOL   C10037348   7.685   5.782   4.207 -0.5854 -0.9252 -0.2312
   65MOL   O10137349   0.107   5.720   4.149  0.1632  0.0626 -0.4817
   65MOL   H10237350   0.011   6.429   4.657  0.5486  1.5261  1.6869
   65MOL   H10337351   0.174   6.378   4.720  0.0815  0.4452 -0.4761
   65MOL   H10437352   0.066   6.182   4.824 -0.2584 -0.0937  0.2833
   65MOL   H10537353   7.629   6.423   4.889  1.5351  0.8773 -0.3387
   65MOL   H10637354   7.479   6.268   4.816 -0.9464 -1.0881 -0.0209
   65MOL   H10737355   7.543   6.270   4.667 -0.6298  2.3168  1.3436
   65MOL   H10837356   0.006   6.000   4.661 -0.0185  0.6877  0.4762
   65MOL   H10937357   7.589   6.085   4.566  0.8811  1.3834  0.6350
   65MOL   H11037358   7.415   5.908   4.615  0.7673  0.1355  0.2021
   65MOL   H11137359   7.524   5.849   4.743  0.0032  0.9636  0.7256
   65MOL   H11237360   7.684   5.748   4.602  0.1673 -1.1095 -0.3030
   65MOL   H11337361   7.523   5.685   4.548 -0.3276 -0.1781 -1.5535
   65MOL   H11437362   0.052   5.666   4.372 -0.6830 -1.9361  1.0534
   65MOL   H11537363   7.619   5.546   4.258  1.1699  0.6514  0.2331
   65MOL   H11637364   7.601   5.774   4.138  0.7344 -0.8276 -1.9061
   65MOL   H11737365   0.008   5.887   4.229  0.3504 -1.4181  1.4523
   65MOL   C11837366   0.115   5.748   4.005  0.0697  0.1869  0.1774
   65MOL   C11937367   0.237   5.678   3.937  0.1442  0.2642 -0.3041
   65MOL   O12037368   0.364   5.699   4.000 -0.0438  0.1386  0.6197
   65MOL   C12137369   0.254   5.735   3.790  0.1000  0.5755 -0.4167
   65MOL   O12237370   0.260   5.873   3.809 -0.5139 -0.4923 -0.3166
   65MOL   C12337371   0.321   5.939   3.698  0.2330 -0.0617  0.0472
   65MOL   C12437372   0.352   6.088   3.719 -0.0016 -0.2900 -0.0521
   65MOL   C12537373   0.429   6.153   3.609 -0.4830  0.4453  0.0320
   65MOL   O12637374   0.346   6.185   3.496  0.5303 -0.2685 -0.6257
   65MOL   C12737375   0.401   6.227   3.376  0.6614  0.8481 -0.4681
   65MOL   O12837376   0.455   6.111   3.306 -0.5895 -0.1708  0.2017
   65MOL   C12937377   0.517   6.337   3.400 -0.1441  0.0548 -0.6802
   65MOL   O13037378   0.466   6.444   3.473  0.5470 -0.2341 -0.2941
   65MOL   H13137379   0.020   5.718   3.960  0.1484  2.2273 -1.3935
   65MOL   H13237380   0.113   5.855   3.987  1.4111  0.1774 -0.0800
   65MOL   H13337381   0.210   5.572   3.941 -1.2409  0.5067 -2.5941
   65MOL   H13437382   0.386   5.789   3.984 -1.2499  0.5504  1.2426
   65MOL   H13537383   0.344   5.689   3.749  0.0054 -0.4904  0.5439
   65MOL   H13637384   0.168   5.708   3.728  0.7605 -0.5765 -0.8436
   65MOL   H13737385   0.261   5.918   3.610 -0.6064  1.4886  0.2473
   65MOL   H13837386   0.423   5.900   3.697  0.9430  1.7231 -3.0276
   65MOL   H13937387   0.411   6.098   3.810 -1.3220  0.0495  0.7690
   65MOL   H14037388   0.262   6.148   3.730 -2.0372 -3.4332  1.3334
   65MOL   H14137389   0.472   6.248   3.640 -0.5812  1.6893 -3.3694
   65MOL   H14237390   0.520   6.097   3.587  0.1679  0.0639  3.5095
   65MOL   H14337391   0.314   6.273   3.328  0.3225  0.0267 -0.6378
   65MOL   H14437392   0.392   6.040   3.304  1.0376 -1.6799  0.7094
   65MOL   H14537393   0.597   6.294   3.460  0.1706 -1.1780 -1.9626
   65MOL   H14637394   0.556   6.375   3.306 -1.8316  0.3161 -1.2999
   65MOL   C14737395   0.555   6.565   3.480  0.6428  0.0330  0.5019
   65MOL   C14837396   0.499   6.657   3.585 -0.2932  0.1442  0.2815
   65MOL   O14937397   0.425   6.762   3.528  0.1875 -0.8439  0.2988
   65MOL   C15037398   0.610   6.705   3.684  0.1515  0.0559  0.6053
   65MOL   O15137399   0.603   6.620   3.798 -0.8912 -0.2119  0.2327
   65MOL   C15237400   0.727   6.622   3.868  0.3281  0.0597 -1.0344
   65MOL   C15337401   0.719   6.527   3.982  0.2566 -0.1419 -0.4286
   65MOL   C15437402   0.600   6.546   4.088 -0.5144  0.1262  0.8801
   65MOL   O15537403   0.593   6.441   4.189 -0.9416 -0.6058  0.3635
   65MOL   C15637404   0.498   6.473   4.288 -0.0544  0.4965 -0.6536
   65MOL   O15737405   0.370   6.511   4.241 -0.2627  0.5388 -0.0760
   65MOL   C15837406   0.552   6.595   4.368 -0.3963  0.4521  0.1742
   65MOL   O15937407   0.518   6.566   4.498  0.7650  0.5753 -0.1270
   65MOL   H16037408   0.560   6.614   3.383  0.5553 -3.3934 -1.3196
   65MOL   H16137409   0.654   6.531   3.513  0.5022  0.6332  1.5689
   65MOL   H16237410   0.422   6.604   3.641 -1.3327 -0.8697 -2.0455
   65MOL   H16337411   0.385   6.808   3.601 -0.1869 -0.2476 -0.2783
   65MOL   H16437412   0.707   6.707   3.635 -1.6974  1.9018 -3.1557
   65MOL   H16537413   0.583   6.803   3.724  1.3412  0.8175 -0.4276
   65MOL   H16637414   0.736   6.715   3.925 -2.4947 -1.7457  2.6054
   65MOL   H16737415   0.810   6.613   3.799  0.6009 -0.8228 -0.5995
   65MOL   H16837416   0.814   6.538   4.035 -0.2487 -1.9349  0.9014
   65MOL   H16937417   0.704   6.432   3.930  0.9289  0.8346 -2.4505
   65MOL   H17037418   0.630   6.638   4.137  3.5877 -0.8022  0.3374
   65MOL   H17137419   0.502   6.541   4.041 -0.3170  1.6769  0.2783
   65MOL   H17237420   0.482   6.384   4.348 -0.1767  0.4190 -0.8000
   65MOL   H17337421   0.322   6.560   4.307 -0.7588 -1.4883  1.1073
   65MOL   H17437422   0.660   6.581   4.363 -0.7406 -1.9077 -1.7799
   65MOL   H17537423   0.524   6.690   4.323  1.8842  0.2902 -1.7272
   65MOL   C17637424   0.561   6.659   4.596 -0.2389  0.2140 -1.1329
   65MOL   C17737425   0.503   6.615   4.734 -0.2809 -0.5671  1.0892
   65MOL   O17837426   0.579   6.696   4.825  0.4397  0.0646  0.0334
   65MOL   C17937427   0.531   6.469   4.763  0.3375 -0.3240  0.5448
   65MOL   O18037428   0.420   6.414   4.838  0.3137 -0.1058  0.8276
   65MOL   C18137429   0.439   6.420   4.982 -0.5065 -0.1842  0.3167
   65MOL   C18237430   0.316   6.382   5.057 -0.1163  0.0322 -0.4745
   65MOL   C18337431   0.350   6.374   5.209  0.1086 -0.0136  0.5775
   65MOL   O18437432   0.245   6.338   5.303  0.1063 -0.3460 -0.0291
   65MOL   C18537433   0.143   6.433   5.326 -0.9400  0.6291  0.1122
   65MOL   O18637434   0.198   6.554   5.389  1.0658 -0.1384  0.2276
   65MOL   C18737435   0.048   6.362   5.420 -0.4908 -0.4417 -0.1410
   65MOL   O18837436   7.633   6.303   5.364  0.5836 -0.0796  1.0730
   65MOL   H18937437   0.542   6.763   4.567  0.7667  0.6369 -0.2823
   65MOL   H19037438   0.669   6.653   4.606 -0.5097 -1.4194  1.1245
   65MOL   H19137439   0.400   6.647   4.750 -0.7660 -1.7097  0.3330
   65MOL   H19237440   0.552   6.786   4.816 -1.9230 -0.5648  0.5463
   65MOL   H19337441   0.564   6.407   4.680  0.5413 -1.2987  1.3447
   65MOL   H19437442   0.613   6.462   4.835  0.4690  2.4574  0.7262
   65MOL   H19537443   0.471   6.518   5.015  2.1801 -0.8787 -0.0943
   65MOL   H19637444   0.521   6.353   5.008  0.9480  1.8935  1.2403
   65MOL   H19737445   0.267   6.291   5.022  1.1267 -0.5584 -0.7075
   65MOL   H19837446   0.240   6.458   5.041  0.9849  1.7690  2.1576
   65MOL   H19937447   0.420   6.293   5.229  0.0750 -0.1472  0.1648
   65MOL   H20037448   0.406   6.465   5.230 -0.2888  0.3030  0.2715
   65MOL   H20137449   0.095   6.464   5.233  1.6577  1.3351 -1.0547
   65MOL   H20237450   0.246   6.532   5.467  0.5689 -0.1897  0.5210
   65MOL   H20337451   0.106   6.293   5.482  1.5187 -0.1687 -1.6399
   65MOL   H20437452   0.011   6.432   5.495  0.2500 -0.6271  0.4071
   65MOL   C20537453   7.663   6.200   5.265 -0.3252  0.3440 -0.0222
   65MOL   C20637454   7.526   6.158   5.216 -0.3573  0.0990 -0.0829
   65MOL   O20737455   7.485   6.261   5.141 -0.0109 -0.9700  0.6204
   65MOL   C20837456   7.515   6.030   5.136 -0.0122 -0.5473 -0.3306
   65MOL   O20937457   7.381   5.973   5.150 -0.3855 -0.2628  0.0498
   65MOL   C21037458   7.284   6.016   5.059 -0.8621  0.0228 -0.2431
   65MOL   C21137459   7.147   5.965   5.096 -0.8659 -0.5741  0.0213
   65MOL   C21237460   7.102   6.012   5.227 -0.4521 -0.0767 -0.9743
   65MOL   O21337461   7.100   6.155   5.216  0.0441 -0.2931 -0.1139
   65MOL   C21437462   7.117   6.222   5.336 -0.7777  0.6631  0.0425
   65MOL   O21537463   6.994   6.222   5.408 -0.4025  0.2028 -0.2543
   65MOL   C21637464   7.158   6.364   5.312  0.6750 -0.2629  1.0573
   65MOL   O21737465   7.038   6.426   5.256 -0.2376  0.1099  0.0213
   65MOL   H21837466   0.019   6.109   5.299  1.2450  1.4425  0.6709
   65MOL   H21937467   0.024   6.237   5.178 -0.6937 -0.0977 -0.4450
   65MOL   H22037468   7.456   6.156   5.299 -2.0085  0.9967 -1.4301
   65MOL   H22137469   7.553   6.276   5.077  0.7129 -1.1400  1.3413
   65MOL   H22237470   7.542   6.047   5.032  0.6384 -0.6476 -0.1809
   65MOL   H22337471   7.590   5.955   5.156  0.0957 -0.3961 -0.1649
   65MOL   H22437472   7.312   5.982   4.959  1.7742 -0.2707  0.5560
   65MOL   H22537473   7.290   6.124   5.041 -0.2378 -0.3617 -2.5326
   65MOL   H22637474   7.158   5.857   5.102 -2.0094 -0.6618  0.7950
   65MOL   H22737475   7.073   5.992   5.020 -0.8540 -0.3930  0.0737
   65MOL   H22837476   7.008   5.982   5.273  0.4757  0.2441  1.1798
   65MOL   H22937477   7.167   5.972   5.304  0.7535  0.5399 -1.6649
   65MOL   H23037478   7.195   6.182   5.401 -1.6093  0.8028  1.1390
   65MOL   H23137479   6.935   6.281   5.364  0.2899  0.0619 -1.3922
   65MOL   H23237480   7.190   6.411   5.405  0.0200  0.4970  0.9058
   65MOL   H23337481   7.241   6.354   5.243  0.1522  1.8157  0.0770
   65MOL   C23437482   7.036   6.570   5.241  0.1865  0.5967 -0.0550
   65MOL   C23537483   6.897   6.627   5.218  0.6637  0.0014  0.2951
   65MOL   O23637484   6.815   6.570   5.321 -0.4758 -0.4414  0.4168
   65MOL   C23737485   6.847   6.601   5.082  0.8265 -0.5482 -0.8128
   65MOL   O23837486   6.895   6.698   4.996  0.2219 -0.0612  0.4107
   65MOL   C23937487   6.888   6.654   4.861  0.3878 -0.4713  0.9804
   65MOL   C24037488   6.951   6.762   4.769  0.8582  0.1169  0.5214
   65MOL   C24137489   6.862   6.884   4.753  0.4118 -0.1841  0.9570
   65MOL   O24237490   6.945   6.973   4.675 -0.2557  0.4242  0.1631
   65MOL   C24337491   6.885   7.082   4.622  0.1124 -0.7434  0.0483
   65MOL   O24437492   6.799   7.042   4.511 -0.1587  0.2181  0.2079
   65MOL   C24537493   6.981   7.183   4.566  0.5504 -0.4157 -0.6169
   65MOL   O24637494   7.023   7.271   4.675  0.6912 -0.1269 -0.0058
   65MOL   H24737495   7.072   6.623   5.329  0.4113 -0.8934  0.7793
   65MOL   H24837496   7.090   6.589   5.149 -3.5232  0.7868 -2.2718
   65MOL   H24937497   6.894   6.735   5.234 -0.5205  0.0485 -0.2302
   65MOL   H25037498   6.851   6.485   5.343 -0.1019 -0.7283 -1.2190
   65MOL   H25137499   6.856   6.499   5.045 -1.4769 -1.2193  0.3957
   65MOL   H25237500   6.739   6.612   5.080  1.0188  1.9044  0.7077
   65MOL   H25337501   6.788   6.623   4.831  0.6051  1.7321 -2.2981
   65MOL   H25437502   6.954   6.570   4.841  1.7461  1.1563 -1.7439
   65MOL   H25537503   6.970   6.717   4.671  1.5889  0.3717  0.5428
   65MOL   H25637504   7.044   6.786   4.820  2.1229 -1.2452 -1.0541
   65MOL   H25737505   6.766   6.862   4.705  0.3335 -1.7657  1.7900
   65MOL   H25837506   6.841   6.932   4.849  1.2992 -0.4924  1.3086
   65MOL   H25937507   6.820   7.124   4.700  0.9316  0.1295  0.2604
   65MOL   H26037508   6.855   6.981   4.464 -0.3988  0.2707 -0.1447
   65MOL   H26137509   7.068   7.141   4.514 -0.1769  0.7772 -2.8829
   65MOL   H26237510   6.924   7.242   4.495 -2.2303  0.2896  2.1394
   65MOL   C26337511   7.129   7.353   4.633 -0.2058 -0.3859 -0.3594
   65MOL   C26437512   7.062   7.491   4.604 -0.1904  0.2546  0.7168
   65MOL   O26537513   7.009   7.550   4.722  0.4703 -0.0226  0.0589
   65MOL   C26637514   7.159   7.605   4.551  0.5984  0.0193 -0.2730
   65MOL   O26737515   7.079   0.024   4.527  0.4924 -0.0238  0.2605
   65MOL   C26837516   7.027   0.029   4.399 -0.2948 -0.2934  0.5893
   65MOL   C26937517   6.973   0.161   4.360 -0.0277 -0.1508 -0.8131
   65MOL   C27037518   7.073   0.279   4.375  0.4735  0.2904  0.6120
   65MOL   O27137519   7.013   0.392   4.312 -0.1796 -0.0133  0.4082
   65MOL   C27237520   7.109   0.491   4.296  0.2694 -0.0065  0.3971
   65MOL   O27337521   7.068   0.565   4.186 -0.1858  0.7877  0.5591
   65MOL   C27437522   7.100   0.587   4.411 -0.5102  0.0580 -0.4984
   65MOL   O27537523   7.218   0.661   4.415  0.0070 -0.4266 -0.0351
   65MOL   H27637524   7.202   7.324   4.557  0.3334 -0.6386  0.2496
   65MOL   H27737525   7.192   7.362   4.721 -0.2017  0.7705 -0.4726
   65MOL   H27837526   6.988   7.485   4.525  0.9955  1.5411 -0.5333
   65MOL   H27937527   7.011   7.639   4.690  2.8066  0.9029  2.5552
   65MOL   H28037528   7.243   7.640   4.611 -0.6255  0.6115  1.1081
   65MOL   H28137529   7.208   7.569   4.460  1.7394 -2.6666  1.3399
   65MOL   H28237530   6.943   7.655   4.389 -1.6434  1.5720 -1.0556
   65MOL   H28337531   7.104   7.694   4.327  0.9458 -1.0744  2.1865
   65MOL   H28437532   6.891   0.178   4.430  1.2749 -1.5822  1.0910
   65MOL   H28537533   6.939   0.155   4.257 -0.2673 -1.2815 -0.6757
   65MOL   H28637534   7.103   0.301   4.478  0.1629  0.3560  0.6871
   65MOL   H28737535   7.164   0.249   4.322 -0.1305 -2.0080  0.8096
   65MOL   H28837536   7.211   0.454   4.281  0.4648 -0.5463  2.9177
   65MOL   H28937537   7.063   0.656   4.212  2.1352  0.6670  1.5502
   65MOL   H29037538   7.007   0.644   4.413 -0.3245  0.3275  2.8102
   65MOL   H29137539   7.081   0.526   4.499  1.1331 -0.3290 -0.3848
   65MOL   C29237540   7.233   0.735   4.535 -0.2019 -0.1376 -0.9583
   65MOL   C29337541   7.364   0.819   4.543 -0.6701  0.0001 -0.2167
   65MOL   O29437542   7.340   0.938   4.472 -0.1823 -0.0503 -0.5954
   65MOL   C29537543   7.396   0.866   4.685 -0.0104 -0.0668  0.3023
   65MOL   O29637544   7.538   0.890   4.683 -0.0990 -0.3682 -0.2855
   65MOL   C29737545   7.589   0.958   4.802 -0.3684  0.7212  0.2733
   65MOL   C29837546   0.042   0.962   4.807 -0.1757 -0.0847 -0.4196
   65MOL   C29937547   0.097   1.071   4.895 -0.2377  0.0776  0.3826
   65MOL   O30037548   0.102   1.193   4.834  0.6260 -0.2830 -0.1310
   65MOL   C30137549   0.165   1.287   4.916 -0.8228 -0.2354  0.1829
   65MOL   O30237550   0.309   1.269   4.916 -0.3076 -0.0124  0.6704
   65MOL   C30337551   0.129   1.431   4.882  0.2965  0.2332  0.3541
   65MOL   O30437552   0.158   1.453   4.741  0.1300 -0.3847 -0.3011
   65MOL   H30537553   7.148   0.801   4.553 -1.5891 -1.6941 -1.5728
   65MOL   H30637554   7.232   0.667   4.620 -2.3021 -0.8638 -1.5268
   65MOL   H30737555   7.443   0.766   4.490 -1.0224 -1.4621  0.6858
   65MOL   H30837556   7.396   0.932   4.396  1.3512  1.6996  0.3561
   65MOL   H30937557   7.340   0.954   4.715 -0.1352  0.5946 -1.8284
   65MOL   H31037558   7.391   0.794   4.767 -0.7024 -0.1278  0.2071
   65MOL   H31137559   7.555   0.899   4.886 -1.4452  0.4383 -0.3392
   65MOL   H31237560   7.551   1.060   4.795 -1.0975  0.4245 -0.1454
   65MOL   H31337561   0.093   0.961   4.710  1.3391 -2.2986  0.3603
   65MOL   H31437562   0.062   0.864   4.850  0.7454  0.0778 -0.4634
   65MOL   H31537563   0.026   1.080   4.977 -3.2457 -0.4992 -2.0725
   65MOL   H31637564   0.197   1.047   4.931  0.5475  2.0592 -0.3762
   65MOL   H31737565   0.140   1.283   5.022 -0.7738 -0.4046  0.1880
   65MOL   H31837566   0.333   1.292   4.827  1.0316 -0.0913  1.0057
   65MOL   H31937567   0.182   1.504   4.944 -2.2188  1.0525  1.6040
   65MOL   H32037568   0.022   1.445   4.898  0.5853  0.7563  1.9244
   65MOL   C32137569   0.095   1.573   4.699 -0.2808  0.0210  1.0823
   65MOL   C32237570   0.108   1.577   4.547 -0.4879  0.3959 -0.1035
   65MOL   O32337571   0.030   1.461   4.517  0.3652  0.0391  0.3921
   65MOL   C32437572   0.033   1.701   4.486  0.5800 -0.4734 -0.5162
   65MOL   O32537573   0.094   1.820   4.528  0.1259 -0.5810 -0.4774
   65MOL   C32637574   0.201   1.853   4.445  0.3516 -0.3538  0.7790
   65MOL   C32737575   0.300   1.933   4.527 -0.0148 -0.4022 -0.1233
   65MOL   C32837576   0.405   1.857   4.608 -0.3628  0.1936 -0.0602
   65MOL   O32937577   0.509   1.806   4.525  0.3527 -0.2178 -0.0986
   65MOL   C33037578   0.597   1.723   4.592  0.3712  0.4514 -0.2822
   65MOL   O33137579   0.538   1.595   4.610 -0.1938  0.0100 -0.2212
   65MOL   C33237580   0.733   1.701   4.523  0.2029 -0.1877 -0.4283
   65MOL   O33337581   0.841   1.762   4.599 -0.3808  0.2292 -0.1854
   65MOL   H33437582   0.141   1.665   4.735  1.6798  0.0080 -1.2554
   65MOL   H33537583   7.682   1.572   4.715 -0.1682  0.1733  1.8721
   65MOL   H33637584   0.214   1.565   4.521  0.5029  1.4429  3.1641
   65MOL   H33737585   0.038   1.395   4.584  3.2544 -1.0103 -0.8925
   65MOL   H33837586   7.630   1.700   4.535  0.9311  0.6074  0.2111
   65MOL   H33937587   0.009   1.698   4.380 -2.7146  1.5263  0.1073
   65MOL   H34037588   0.166   1.921   4.368  0.2963 -1.3346 -0.0703
   65MOL   H34137589   0.252   1.768   4.400  1.0765  1.2941 -1.5624
   65MOL   H34237590   0.347   2.014   4.471 -0.1134  1.7626  2.8309
   65MOL   H34337591   0.239   1.987   4.599 -1.2302 -2.5044  0.4957
   65MOL   H34437592   0.450   1.921   4.684  1.5589  0.0533 -1.0328
   65MOL   H34537593   0.362   1.776   4.667 -1.5518 -0.0167 -1.2035
   65MOL   H34637594   0.616   1.750   4.695  1.7652  3.5051 -1.2787
   65MOL   H34737595   0.516   1.556   4.527 -0.8830 -1.7240  0.7621
   65MOL   H34837596   0.755   1.594   4.516 -2.6367 -0.9172  0.9624
   65MOL   H34937597   0.732   1.754   4.428  0.0348  0.7234  0.0794
   65MOL   C35037598   0.955   1.779   4.515  0.4068 -0.4563 -0.3378
   65MOL   C35137599   1.062   1.843   4.602 -0.0669  0.8678  0.4805
   65MOL   O35237600   1.120   1.745   4.682  0.0993 -0.2267  0.5813
   65MOL   C35337601   1.170   1.917   4.525  0.4322  0.5323  0.7425
   65MOL   O35437602   1.207   2.038   4.594 -0.2130  0.0156 -0.7241
   65MOL   C35537603   1.275   2.023   4.719  0.0832  0.3850  0.3209
   65MOL   C35637604   1.425   2.030   4.699 -0.8083 -0.0541  1.0651
   65MOL   C35737605   1.499   2.005   4.826  0.3752 -0.2315 -0.9368
   65MOL   O35837606   1.625   1.946   4.796  0.1975 -0.8784 -0.2301
   65MOL   C35937607   1.705   1.910   4.899 -1.1937 -0.2886  0.0982
   65MOL   O36037608   1.644   1.810   4.973 -0.3770  0.4385 -0.0777
   65MOL   C36137609   1.840   1.857   4.849 -0.0123  0.3738  0.7994
   65MOL   O36237610   1.938   1.859   4.957 -0.2198  0.1353  0.2978
   65MOL   H36337611   0.930   1.856   4.441 -0.4501 -2.7190 -2.4668
   65MOL   H36437612   0.985   1.688   4.463 -0.7191 -0.5947 -0.7749
   65MOL   H36537613   1.025   1.914   4.676 -1.7621  0.7613 -0.2412
   65MOL   H36637614   1.049   1.714   4.738 -0.7245 -1.3953 -1.0632
   65MOL   H36737615   1.255   1.853   4.503 -1.1312 -0.4311 -2.7690
   65MOL   H36837616   1.140   1.947   4.425 -2.0782 -1.5290  0.8072
   65MOL   H36937617   1.250   1.932   4.774  2.2180 -0.6464 -0.3199
   65MOL   H37037618   1.252   2.111   4.777  0.7024  0.5377  0.3401
   65MOL   H37137619   1.454   2.126   4.654 -2.3345  0.3577  0.9131
   65MOL   H37237620   1.454   1.956   4.625  2.2551  0.1345  2.0323
   65MOL   H37337621   1.520   2.097   4.882 -1.3485 -0.6110  0.3520
   65MOL   H37437622   1.436   1.944   4.889  0.9130  0.4248  0.2492
   65MOL   H37537623   1.727   1.993   4.967 -0.5492  0.1355 -0.6181
   65MOL   H37637624   1.634   1.732   4.922  0.7987  1.5365 -2.0830
   65MOL   H37737625   1.836   1.757   4.805  1.8549  1.0011 -0.8781
   65MOL   H37837626   1.869   1.920   4.765 -0.4934  2.2169  1.9691
   65MOL   C37937627   2.064   1.815   4.913 -0.1407 -0.4665  0.0533
   65MOL   C38037628   2.101   1.672   4.955 -0.1211  0.5301 -0.1548
   65MOL   O38137629   2.120   1.576   4.847  0.2676 -0.3008  0.0636
   65MOL   C38237630   2.225   1.667   5.036 -0.2196  0.0354 -0.9065
   65MOL   O38337631   2.336   1.649   4.950  0.3063 -0.1562 -0.0198
   65MOL   C38437632   2.466   1.656   5.011 -0.5717  0.2939  0.3542
   65MOL   C38537633   2.573   1.624   4.898 -0.5328 -1.0540  0.4215
   65MOL   C38637634   2.710   1.643   4.953 -0.3253 -0.0329 -0.1454
   65MOL   O38737635   2.741   1.780   4.975 -0.3499  0.1837 -0.2820
   65MOL   C38837636   2.870   1.818   4.967  1.0488  0.5602  0.1405
   65MOL   O38937637   2.895   1.954   4.991 -0.5233  0.3224  0.0919
   65MOL   C39037638   2.948   1.734   5.059  0.3636 -0.0246  0.0349
   65MOL   O39137639   2.881   1.728   5.185  0.4759 -0.3255 -0.3765
   65MOL   H39237640   2.137   1.875   4.966  0.3072 -2.4359  1.7262
   65MOL   H39337641   2.089   1.824   4.807 -0.1584  3.0857  0.2970
   65MOL   H39437642   2.016   1.633   5.011 -0.4437 -2.4501 -2.6061
   65MOL   H39537643   2.203   1.582   4.801  0.7558  1.2716  1.1056
   65MOL   H39637644   2.234   1.751   5.106  1.1451  0.0574 -1.0833
   65MOL   H39737645   2.232   1.578   5.098  0.6211 -0.0372 -1.0981
   65MOL   H39837646   2.476   1.594   5.099  1.5345 -0.2653 -0.2491
   65MOL   H39937647   2.483   1.758   5.047 -2.4332  1.2816 -1.3952
   65MOL   H40037648   2.539   1.667   4.803  0.1250  0.4562  0.8602
   65MOL   H40137649   2.571   1.518   4.871  0.6542 -0.6989 -1.1843
   65MOL   H40237650   2.707   1.588   5.048  0.3492 -2.8734 -1.7076
   65MOL   H40337651   2.776   1.590   4.885  0.2698 -1.0385  1.1906
   65MOL   H40437652   2.906   1.794   4.867 -1.1448 -0.4057 -0.4544
   65MOL   H40537653   2.950   1.959   5.068  2.9411  0.3448 -2.2761
   65MOL   H40637654   2.956   1.633   5.017  1.7148  1.4692 -3.5423
   65MOL   H40737655   3.050   1.772   5.061  1.1167 -2.0174  1.0443
   65MOL   C40837656   2.915   1.616   5.263 -0.0444  0.1897  0.0135
   65MOL   C40937657   3.044   1.637   5.347  0.5353 -0.5464 -0.0308
   65MOL   O41037658   3.157   1.606   5.269  0.4305 -0.8795  0.0705
   65MOL   C41137659   3.046   1.538   5.463  0.5691  0.0833  0.3374
   65MOL   O41237660   3.159   1.566   5.549 -0.0482  0.6975  0.6468
   65MOL   C41337661   3.168   1.465   5.658  0.5412 -0.5033  0.2426
   65MOL   C41437662   3.253   1.529   5.762  0.0992 -0.1777  0.1983
   65MOL   C41537663   3.264   1.453   5.893 -0.5959  1.4020 -0.0675
   65MOL   O41637664   3.320   1.330   5.862  0.3917  0.5602  0.3832
   65MOL   C41737665   3.308   1.231   5.952 -0.1461 -0.0093  0.4388
   65MOL   O41837666   3.379   1.264   6.072  0.5477  0.1902 -0.0396
   65MOL   C41937667   3.361   1.102   5.879  0.0855 -0.6933  0.1276
   65MOL   O42037668   3.267   1.057   5.789 -0.3415 -0.2639  0.2243
   65MOL   H42137669   2.916   1.522   5.207 -1.4394  0.4334 -0.4243
   65MOL   H42237670   2.830   1.599   5.328 -0.4944  0.8638 -0.3982
   65MOL   H42337671   3.032   1.740   5.380 -2.2309 -0.6799 -0.4831
   65MOL   H42437672   3.216   1.547   5.314 -0.1880 -0.9626  0.7786
   65MOL   H42537673   2.947   1.545   5.509  0.0721 -1.8508 -0.3926
   65MOL   H42637674   3.054   1.435   5.429  1.3824  0.0441  0.6408
   65MOL   H42737675   3.072   1.433   5.698  0.3591 -0.0276  0.1929
   65MOL   H42837676   3.209   1.372   5.620 -1.4668 -0.9138 -1.0116
   65MOL   H42937677   3.204   1.624   5.783 -3.7440 -1.1266 -3.6979
   65MOL   H43037678   3.356   1.541   5.731 -0.5336  0.0073 -1.9199
   65MOL   H43137679   3.328   1.494   5.971 -2.0570 -1.4365  2.7328
   65MOL   H43237680   3.161   1.437   5.926 -0.3156  0.3605  0.3103
   65MOL   H43337681   3.205   1.214   5.981 -0.7461  1.1357 -0.9429
   65MOL   H43437682   3.343   1.208   6.139 -2.1691 -0.3601 -1.8802
   65MOL   H43537683   3.451   1.140   5.831  0.6213  0.4408  1.9569
   65MOL   H43637684   3.382   1.021   5.949 -0.7414  0.9703  2.3735
   65MOL   C43737685   3.317   0.936   5.725 -0.2875 -0.8620 -0.3342
   65MOL   C43837686   3.221   0.921   5.602  0.4029  1.0251  0.6980
   65MOL   O43937687   3.111   0.840   5.643 -0.4853  0.4727 -0.7530
   65MOL   C44037688   3.288   0.840   5.492 -0.2503 -0.1360 -0.2804
   65MOL   O44137689   3.209   0.860   5.375  0.2471 -0.8303 -0.1422
   65MOL   C44237690   3.282   0.819   5.265  0.0241  0.1394 -0.4763
   65MOL   C44337691   3.187   0.775   5.154 -0.6287  0.5957  0.0984
   65MOL   C44437692   3.201   0.872   5.036  0.0732 -1.1943  0.1000
   65MOL   O44537693   3.108   0.835   4.939 -0.0979  0.1998  0.1275
   65MOL   C44637694   2.974   0.888   4.945 -1.3095  0.1758 -0.3476
   65MOL   O44737695   2.902   0.849   5.054 -0.5201  0.1418  0.0859
   65MOL   C44837696   2.905   0.877   4.805 -0.3013 -0.5830  0.3576
   65MOL   O44937697   2.907   1.008   4.740  0.4090 -0.3845 -0.8188
   65MOL   H45037698   3.417   0.957   5.690 -0.4232  0.8470  0.2633
   65MOL   H45137699   3.317   0.855   5.799 -0.3300 -0.2899  0.2939
   65MOL   H45237700   3.184   1.014   5.560 -1.1365 -0.5502 -1.5216
   65MOL   H45337701   3.048   0.836   5.573  0.1133 -0.9693 -1.2182
   65MOL   H45437702   3.393   0.864   5.475 -0.0126 -0.6592  0.4035
   65MOL   H45537703   3.292   0.736   5.525 -4.5205 -0.2753  0.1625
   65MOL   H45637704   3.342   0.730   5.284 -2.4668 -1.0847  2.0310
   65MOL   H45737705   3.357   0.894   5.240 -1.2551  1.6907  0.2816
   65MOL   H45837706   3.089   0.771   5.202 -0.5079 -2.2417  0.2170
   65MOL   H45937707   3.213   0.676   5.117 -2.0575  0.2984 -0.1561
   65MOL   H46037708   3.177   0.970   5.078 -1.1831 -0.6282 -1.8870
   65MOL   H46137709   3.302   0.870   4.995  0.1178  3.9290 -0.4309
   65MOL   H46237710   2.987   0.994   4.969  3.4175 -0.4168  0.3246
   65MOL   H46337711   2.874   0.761   5.032 -2.1658  0.8046 -0.5145
   65MOL   H46437712   2.967   0.809   4.746 -1.6741  0.8107 -2.8374
   65MOL   H46537713   2.809   0.825   4.810 -0.3272 -0.6447 -0.5853
   65MOL   C46637714   3.033   1.052   4.695  0.1706 -0.0513  0.6026
   65MOL   C46737715   3.020   1.186   4.615  0.8028  0.1510  0.7925
   65MOL   O46837716   2.948   1.283   4.705 -0.4551  0.1034 -0.6460
   65MOL   C46937717   3.153   1.259   4.576  0.1310 -0.5137 -0.3327
   65MOL   O47037718   3.229   1.177   4.496  0.3956  0.5827  0.2504
   65MOL   C47137719   3.170   1.135   4.372 -0.1557  0.3539  0.1647
   65MOL   C47237720   3.286   1.101   4.273 -0.4462  0.4212 -0.3487
   65MOL   C47337721   3.389   1.216   4.243 -0.1410 -0.0191  0.5218
   65MOL   O47437722   3.493   1.183   4.156 -1.0503  0.3784  0.6132
   65MOL   C47537723   3.602   1.110   4.207 -0.1646 -0.5897  0.3331
   65MOL   O47637724   3.691   1.202   4.262  0.6666 -0.1725 -0.4467
   65MOL   C47737725   3.674   1.034   4.091 -0.3459  0.1177 -0.0072
   65MOL   O47837726   3.635   0.900   4.091  0.1787  0.2762 -0.5319
   65MOL   H47937727   3.074   0.979   4.626  1.4956  1.4184 -0.2073
   65MOL   H48037728   3.104   1.052   4.778  0.7065 -0.0718  0.1437
   65MOL   H48137729   2.961   1.171   4.525 -1.3568 -0.8413  2.2950
   65MOL   H48237730   2.877   1.232   4.740  0.4498  0.1390  1.3396
   65MOL   H48337731   3.139   1.356   4.527  1.8781  0.9209  1.9156
   65MOL   H48437732   3.206   1.283   4.668 -2.1991  1.5901  0.5376
   65MOL   H48537733   3.102   1.214   4.341 -1.0837 -0.5791 -0.2206
   65MOL   H48637734   3.113   1.043   4.387  0.2548  0.6284  4.1852
   65MOL   H48737735   3.250   1.073   4.174 -0.4847  1.6003 -0.6735
   65MOL   H48837736   3.337   1.010   4.304  0.2592  0.6869 -0.7028
   65MOL   H48937737   3.333   1.295   4.193  0.1678 -1.8427 -2.8373
   65MOL   H49037738   3.426   1.257   4.336  1.9742  0.8469 -0.6759
   65MOL   H49137739   3.579   1.033   4.280  0.9155 -0.1640  1.1416
   65MOL   H49237740   3.725   1.246   4.186  3.0037 -2.0436 -0.5428
   65MOL   H49337741   3.657   1.083   3.995  2.6921  1.5285  0.1348
   65MOL   H49437742   3.782   1.041   4.102 -0.3118  1.9039 -1.3219
   65MOL   C49537743   3.529   0.866   4.003 -0.1908  0.6255 -0.1682
   65MOL   C49637744   3.505   0.713   4.016 -0.0771 -0.0605 -0.6808
   65MOL   O49737745   3.447   0.678   4.142 -0.4284 -0.4029  0.3850
   65MOL   C49837746   3.414   0.659   3.906  0.0860  0.2313  0.4631
   65MOL   O49937747   3.486   0.648   3.778  0.1479 -0.9084  0.3472
   65MOL   C50037748   3.423   0.649   3.650 -0.1982  0.0055  0.6413
   65MOL   C50137749   3.345   0.776   3.615 -0.1001 -0.1024 -0.0229
   65MOL   C50237750   3.296   0.781   3.466 -0.3956  0.0297  0.2317
   65MOL   O50337751   3.199   0.677   3.450  0.2837  0.0827 -0.4120
   65MOL   C50437752   3.153   0.663   3.316 -0.5599 -0.9864 -0.2960
   65MOL   O50537753   3.095   0.775   3.269 -0.4272 -0.9854 -0.1962
   65MOL   C50637754   3.059   0.538   3.320  0.0935  1.0605  0.1003
   65MOL   O50737755   3.144   0.428   3.350 -0.2122  0.2884 -0.0762
   65MOL   H50837756   3.556   0.895   3.902  3.5629  0.7961  0.8169
   65MOL   H50937757   3.443   0.918   4.044 -0.5458 -0.0344 -0.0555
   65MOL   H51037758   3.598   0.657   4.019 -0.3949 -0.5307  0.7917
   65MOL   H51137759   3.514   0.688   4.208  2.1233  1.7430 -2.4376
   65MOL   H51237760   3.386   0.556   3.927 -0.3098  0.2314 -0.0482
   65MOL   H51337761   3.320   0.712   3.895  0.4905  0.8391 -0.0793
   65MOL   H51437762   3.360   0.560   3.643 -1.4563  0.9632 -0.5511
   65MOL   H51537763   3.504   0.630   3.579  0.3710 -2.0959  1.8183
   65MOL   H51637764   3.418   0.857   3.620  0.4284 -0.6292  0.7393
   65MOL   H51737765   3.256   0.802   3.674 -0.5249  0.9109 -1.0840
   65MOL   H51837766   3.256   0.879   3.439  0.5194 -0.0411 -1.4198
   65MOL   H51937767   3.377   0.767   3.395 -1.1075 -0.7590 -0.4400
   65MOL   H52037768   3.238   0.631   3.255 -0.3073  0.2107 -0.5744
   65MOL   H52137769   3.037   0.805   3.337  1.0037  1.6900 -0.0788
   65MOL   H52237770   2.984   0.550   3.398 -0.2128 -1.4941  0.2209
   65MOL   H52337771   3.004   0.515   3.229  1.2647 -1.8055  0.0746
   65MOL   C52437772   3.078   0.303   3.346  0.4126  0.1626 -0.4280
   65MOL   C52537773   3.178   0.214   3.429 -0.1518 -0.7149  0.7868
   65MOL   O52637774   3.295   0.217   3.355 -0.0872  0.1509 -0.0777
   65MOL   C52737775   3.124   0.071   3.423  0.1500 -0.0314  0.4553
   65MOL   O52837776   3.176   0.003   3.540  0.0690  0.0674 -0.2369
   65MOL   C52937777   3.168   7.560   3.527 -0.3119  0.3157  0.7079
   65MOL   C53037778   3.298   7.491   3.485 -0.0171 -0.3635  0.5213
   65MOL   C53137779   3.341   7.503   3.341 -0.1521  0.1846  0.4268
   65MOL   O53237780   3.230   7.475   3.252 -0.2490  0.7595  0.1745
   65MOL   C53337781   3.265   7.484   3.118 -0.4222 -0.9452 -0.3014
   65MOL   O53437782   3.343   7.370   3.074 -0.2761  0.3563 -0.1678
   65MOL   C53537783   3.137   7.501   3.037  0.5134  0.1677  0.7270
   65MOL   O53637784   3.042   7.404   3.077  0.1765  0.5781 -0.5433
   65MOL   H53737785   3.062   0.273   3.243  2.2429 -1.8713 -0.1634
   65MOL   H53837786   2.985   0.316   3.401 -0.8981  1.2798 -2.8357
   65MOL   H53937787   3.195   0.245   3.532 -0.2647 -3.3403  1.6298
   65MOL   H54037788   3.282   0.287   3.293  3.0776 -0.9504 -2.0926
   65MOL   H54137789   3.016   0.069   3.417  0.1775  0.3827 -0.1404
   65MOL   H54237790   3.157   0.010   3.339  2.0761 -1.9008  2.5045
   65MOL   H54337791   3.083   7.528   3.467  0.2530 -1.6689  0.9555
   65MOL   H54437792   3.174   7.523   3.629 -0.8966 -1.2965  0.1704
   65MOL   H54537793   3.268   7.386   3.489 -0.3078 -0.3459 -0.7674
   65MOL   H54637794   3.376   7.517   3.555  1.0706 -0.0920 -0.7668
   65MOL   H54737795   3.387   7.600   3.324 -1.5645  0.5727 -1.3818
   65MOL   H54837796   3.418   7.428   3.319 -0.4339  0.0123  0.0294
   65MOL   H54937797   3.334   7.567   3.102 -2.6796  0.7051 -1.7369
   65MOL   H55037798   3.291   7.294   3.096 -0.5199  0.0858 -1.6341
   65MOL   H55137799   3.087   7.592   3.071 -0.4507  0.4323 -1.3426
   65MOL   H55237800   3.155   7.513   2.930  1.3097  2.3545  1.0844
   65MOL   C55337801   3.032   7.301   2.979  0.5730  0.0728 -0.0836
   65MOL   C55437802   2.973   7.184   3.064 -0.4107  0.6620 -0.0558
   65MOL   O55537803   2.832   7.205   3.061 -0.6361  0.1425  0.0798
   65MOL   C55637804   3.029   7.141   3.196  0.1712 -0.5844 -0.3335
   65MOL   O55737805   3.163   7.101   3.176 -0.2382  0.0393  0.6201
   65MOL   C55837806   3.232   7.069   3.296 -0.2856  0.3112  0.2108
   65MOL   C55937807   3.376   7.054   3.249 -0.6924 -0.2387 -0.5152
   65MOL   C56037808   3.471   7.050   3.371  0.0166 -0.0564 -0.2036
   65MOL   O56137809   3.451   6.935   3.459 -0.7824  0.0751 -0.8469
   65MOL   C56237810   3.558   6.887   3.534  0.3258  0.1597  0.6060
   65MOL   O56337811   3.604   6.978   3.625 -0.1435 -0.3560  0.1386
   65MOL   C56437812   3.501   6.761   3.604  0.0622 -0.3200  0.1831
   65MOL   O56537813   3.421   6.801   3.707 -0.1454  0.1892  0.2056
   65MOL   H56637814   3.134   7.278   2.948  0.9162  0.3960  0.7958
   65MOL   H56737815   2.966   7.332   2.898  0.8019 -0.7300 -0.5836
   65MOL   H56837816   2.989   7.094   3.005 -2.7041  0.6316 -0.6877
   65MOL   H56937817   2.820   7.299   3.058 -0.8323  0.1568  0.9539
   65MOL   H57037818   3.025   7.222   3.268  1.1736 -0.3085 -0.5852
   65MOL   H57137819   2.981   7.048   3.229 -1.0419 -0.1775 -0.9053
   65MOL   H57237820   3.217   7.152   3.365 -1.9091 -2.5035  3.4367
   65MOL   H57337821   3.198   6.976   3.341 -0.0025  0.5536  0.9281
   65MOL   H57437822   3.396   7.140   3.184 -3.9409 -0.5481 -2.0152
   65MOL   H57537823   3.385   6.970   3.180 -1.4360 -0.5232 -0.2700
   65MOL   H57637824   3.577   7.035   3.351  1.0978  2.1785  3.2727
   65MOL   H57737825   3.460   7.144   3.425 -1.0083 -0.1975 -0.1675
   65MOL   H57837826   3.639   6.864   3.466  1.1793 -0.5704  1.8403
   65MOL   H57937827   3.537   6.994   3.691  0.0406  1.5296 -0.1149
   65MOL   H58037828   3.452   6.685   3.544  1.4424 -1.7768  0.8678
   65MOL   H58137829   3.585   6.707   3.648 -0.5906 -0.7760  0.8754
   65MOL   H58237830   3.400   6.889   3.682  0.6176  0.1447 -0.6073
   66MOL     C137831   4.005   2.769   2.850  0.5793 -0.1174  0.2481
   66MOL     C237832   4.036   2.687   2.720 -0.4180  0.2119 -0.3358
   66MOL     O337833   3.925   2.708   2.637 -0.2494  0.3744 -0.7176
   66MOL     C437834   4.152   2.748   2.639  0.1545  0.1334  0.2008
   66MOL     O537835   4.270   2.744   2.718 -0.0594  0.4137  0.1085
   66MOL     C637836   4.391   2.731   2.657  0.5495 -0.1759  0.0872
   66MOL     C737837   4.420   2.864   2.586 -0.2052 -0.4478  0.2277
   66MOL     C837838   4.565   2.867   2.532  0.5319  0.7923 -0.0019
   66MOL     O937839   4.660   2.847   2.644 -0.5484 -0.1579 -0.3509
   66MOL    C1037840   4.790   2.845   2.597 -0.2092 -0.4101  0.0178
   66MOL    O1137841   4.811   2.743   2.509 -0.0647 -0.0221  0.7999
   66MOL    C1237842   4.867   2.829   2.724  0.2579 -0.3442 -0.3284
   66MOL    O1337843   4.887   2.949   2.787  0.2517  0.2364 -0.0022
   66MOL    H1437844   4.093   2.772   2.915 -0.0337 -0.3020  1.0954
   66MOL    H1537845   3.926   2.721   2.908  1.9696 -3.5072 -0.5305
   66MOL    H1637846   4.044   2.582   2.747 -0.3291  0.2336 -0.2787
   66MOL    H1737847   3.860   2.641   2.649 -1.5957  1.5805 -1.1647
   66MOL    H1837848   4.175   2.701   2.544  1.3720  1.7497 -0.3394
   66MOL    H1937849   4.132   2.854   2.620  1.8950  0.5702  0.6580
   66MOL    H2037850   4.384   2.655   2.580  1.5472  2.3937 -2.6474
   66MOL    H2137851   4.459   2.718   2.741 -1.1848 -0.0905  1.5297
   66MOL    H2237852   4.391   2.949   2.647 -1.1526 -2.8322  3.2098
   66MOL    H2337853   4.353   2.854   2.500 -0.7464 -2.5350  0.8456
   66MOL    H2437854   4.576   2.782   2.465  1.4176  0.7043  0.2462
   66MOL    H2537855   4.598   2.960   2.485 -0.6291  2.1112  1.7160
   66MOL    H2637856   4.820   2.938   2.549 -1.2009  1.2519  2.4861
   66MOL    H2737857   4.752   2.673   2.532 -2.2682  0.8658 -1.8592
   66MOL    H2837858   4.801   2.767   2.785  0.5892  0.9316  1.3585
   66MOL    H2937859   4.964   2.783   2.707  1.5965  1.5058  2.0691
   66MOL    H3037860   3.978   2.871   2.822  1.4916 -0.4294 -1.8150
   66MOL    C3137861   4.962   2.920   2.908 -0.4758 -0.3627  0.1595
   66MOL    C3237862   5.046   3.047   2.942  0.5025 -0.3311 -0.5343
   66MOL    O3337863   4.961   3.165   2.940  0.1962 -0.1348 -0.7023
   66MOL    C3437864   5.167   3.061   2.848  0.1177 -0.4993  0.1628
   66MOL    O3537865   5.287   3.075   2.927  0.2998  0.1213  0.6601
   66MOL    C3637866   5.400   3.104   2.849 -0.2331  0.7822  0.4888
   66MOL    C3737867   5.521   3.077   2.935  0.2829 -0.0588  0.2128
   66MOL    C3837868   5.650   3.081   2.844  0.3377  0.2135  0.5015
   66MOL    O3937869   5.768   3.051   2.919  0.4870  0.2174  0.1082
   66MOL    C4037870   5.882   3.074   2.851 -1.1203 -1.0886  0.7798
   66MOL    O4137871   5.913   2.977   2.757 -0.8845 -0.2479  0.8681
   66MOL    C4237872   5.988   3.086   2.953  0.3017 -0.7868  0.3454
   66MOL    O4337873   5.998   3.232   2.989  0.5026  0.3786 -0.2568
   66MOL    H4437874   4.888   2.892   2.982  1.7977 -2.6074  1.6713
   66MOL    H4537875   5.032   2.836   2.905  0.5798  0.4905  0.5499
   66MOL    H4637876   5.082   3.043   3.045 -0.4543  1.4313 -0.1271
   66MOL    H4737877   4.888   3.147   2.882 -0.0381  1.7995 -1.0388
   66MOL    H4837878   5.175   2.973   2.784  0.4778 -1.9729  2.1649
   66MOL    H4937879   5.145   3.144   2.781 -0.2423  0.4849  1.4938
   66MOL    H5037880   5.395   3.207   2.814  0.0524 -0.0738 -2.2003
   66MOL    H5137881   5.413   3.045   2.758  1.4756  3.3241 -0.9760
   66MOL    H5237882   5.510   2.979   2.981 -2.1426  0.9950  2.0322
   66MOL    H5337883   5.515   3.140   3.024  3.0009 -0.1025  0.4449
   66MOL    H5437884   5.644   3.005   2.766 -0.7371  1.0958 -0.2944
   66MOL    H5537885   5.659   3.178   2.797  1.7946 -0.5000 -0.7465
   66MOL    H5637886   5.874   3.169   2.799 -0.7208 -0.3236  2.0822
   66MOL    H5737887   5.885   2.896   2.797 -0.0668 -0.8222  0.2939
   66MOL    H5837888   5.974   3.016   3.035  2.3781  2.2243  3.4003
   66MOL    H5937889   6.086   3.075   2.907 -0.7933  0.2305 -2.3328
   66MOL    C6037890   5.894   3.273   3.077 -0.3755 -0.1470  0.1531
   66MOL    C6137891   5.913   3.238   3.217 -0.0130  0.0992 -0.0131
   66MOL    O6237892   5.816   3.298   3.295  0.2316  0.0478  0.1765
   66MOL    C6337893   6.043   3.282   3.286  0.1333  0.4914  0.0749
   66MOL    O6437894   6.042   3.220   3.413  0.9158 -0.2550  0.1080
   66MOL    C6537895   6.144   3.264   3.497  0.3264  0.0194  0.3332
   66MOL    C6637896   6.122   3.181   3.623 -0.0427 -0.5216  0.8628
   66MOL    C6737897   6.226   3.217   3.729  0.0270  0.3636  0.5077
   66MOL    O6837898   6.178   3.146   3.842  0.4429 -0.3086  0.1971
   66MOL    C6937899   6.240   3.171   3.963 -0.4833 -0.1248 -0.7080
   66MOL    O7037900   6.215   3.297   4.015 -0.3539  0.5619  0.5713
   66MOL    C7137901   6.187   3.069   4.066  0.3799  0.1398  0.7820
   66MOL    O7237902   6.229   2.937   4.048 -0.0914 -0.6322  0.1431
   66MOL    H7337903   5.795   3.239   3.045 -0.7018  0.5116  0.4530
   66MOL    H7437904   5.895   3.381   3.067  0.0649 -0.1191  0.5031
   66MOL    H7537905   5.895   3.131   3.229 -0.1695 -0.0696 -1.6670
   66MOL    H7637906   5.851   3.310   3.382 -1.4544  1.0228  0.7451
   66MOL    H7737907   6.128   3.239   3.234 -0.2866 -0.6703  0.3400
   66MOL    H7837908   6.052   3.389   3.306 -1.2956  0.4715  0.9114
   66MOL    H7937909   6.154   3.369   3.525 -0.3059 -0.1466  1.2049
   66MOL    H8037910   6.230   3.224   3.443 -0.4953 -0.9912 -0.2613
   66MOL    H8137911   6.116   3.077   3.594 -1.4469 -0.3973  0.6808
   66MOL    H8237912   6.020   3.201   3.657 -0.5270 -0.5114 -0.5811
   66MOL    H8337913   6.248   3.318   3.765 -0.1700  0.8857 -0.7828
   66MOL    H8437914   6.322   3.174   3.701  0.5648  0.8313  1.6201
   66MOL    H8537915   6.349   3.173   3.961 -0.3448 -0.0023  2.9458
   66MOL    H8637916   6.167   3.286   4.095 -0.7128 -0.6958  0.1955
   66MOL    H8737917   6.221   3.104   4.164  0.6825 -1.8402  1.4069
   66MOL    H8837918   6.078   3.069   4.063  0.3505  2.0581  0.9928
   66MOL    C8937919   6.366   2.902   4.067 -0.4382 -0.1428  0.1145
   66MOL    C9037920   6.407   2.871   4.218  0.2350 -0.0113  0.9949
   66MOL    O9137921   6.529   2.791   4.221 -0.6241  0.6223  0.2788
   66MOL    C9237922   6.447   2.998   4.300  0.0710 -0.3166 -0.0303
   66MOL    O9337923   6.409   2.986   4.438  0.3032  0.3180  0.0780
   66MOL    C9437924   6.268   3.005   4.457  0.5456  0.2122 -0.3435
   66MOL    C9537925   6.238   3.013   4.606 -0.0517 -0.2946 -0.2846
   66MOL    C9637926   6.284   3.136   4.676  0.2110  0.1951  0.4009
   66MOL    O9737927   6.241   3.164   4.808 -0.7651  0.6022  0.1727
   66MOL    C9837928   6.328   3.118   4.916  0.1670 -0.0126  0.2833
   66MOL    O9937929   6.443   3.200   4.913 -0.2337  0.2992 -0.6717
   66MOL   C10037930   6.251   3.138   5.048  0.5962  0.4691 -0.1797
   66MOL   O10137931   6.244   3.019   5.126 -0.2548  0.3305  0.1578
   66MOL   H10237932   6.436   2.968   4.015  1.5109  0.5707  3.5049
   66MOL   H10337933   6.371   2.810   4.009 -1.0856 -0.4659  0.5659
   66MOL   H10437934   6.324   2.815   4.262 -0.5338  1.7618  1.8289
   66MOL   H10537935   6.548   2.770   4.311 -0.2654 -0.4293 -0.0356
   66MOL   H10637936   6.553   3.020   4.289 -0.2258 -0.6046 -3.9474
   66MOL   H10737937   6.416   3.088   4.247 -2.4176  0.0532  1.9117
   66MOL   H10837938   6.205   2.926   4.416  1.7350 -1.7042  1.4408
   66MOL   H10937939   6.236   3.095   4.404  1.0898  0.0910 -0.8766
   66MOL   H11037940   6.289   2.933   4.660  0.2655  1.0304  1.4147
   66MOL   H11137941   6.132   3.000   4.628  0.5323 -1.5879  1.8945
   66MOL   H11237942   6.387   3.169   4.659  1.0458 -1.2191  2.4804
   66MOL   H11337943   6.226   3.212   4.622  0.0150  0.4683  0.9963
   66MOL   H11437944   6.359   3.015   4.898 -1.7802 -0.3212 -1.4969
   66MOL   H11537945   6.406   3.287   4.909 -0.5017  0.1566 -1.4613
   66MOL   H11637946   6.280   3.223   5.109 -1.3720  1.1297 -0.1299
   66MOL   H11737947   6.147   3.160   5.021  0.5974 -0.8889 -1.3186
   66MOL   C11837948   6.142   3.009   5.223  0.6917  0.3231  0.5456
   66MOL   C11937949   5.998   2.973   5.169  0.2061  0.1909 -0.1084
   66MOL   O12037950   5.902   2.996   5.271  0.1125 -0.0616 -0.1748
   66MOL   C12137951   5.990   2.836   5.118  0.0252 -0.9799  0.3161
   66MOL   O12237952   6.025   2.740   5.222 -0.1416 -0.4056  0.0873
   66MOL   C12337953   5.992   2.611   5.170  0.6308  0.6704  0.2929
   66MOL   C12437954   6.039   2.496   5.249  0.4368 -0.4200  0.0764
   66MOL   C12537955   5.960   2.468   5.375  0.0150 -0.3362 -0.1555
   66MOL   O12637956   6.031   2.359   5.436 -0.5897 -0.1285 -0.1787
   66MOL   C12737957   5.956   2.272   5.520  0.1137 -0.3991 -0.2057
   66MOL   O12837958   5.923   2.335   5.638  0.3743 -0.0282 -0.1268
   66MOL   C12937959   6.042   2.154   5.559  0.1932 -0.3942 -0.2351
   66MOL   O13037960   6.152   2.189   5.640 -0.1058 -0.1721 -0.2161
   66MOL   H13137961   6.177   2.937   5.297 -1.8769  1.5720  3.1168
   66MOL   H13237962   6.151   3.100   5.283 -0.0179  1.9388 -1.7636
   66MOL   H13337963   5.970   3.039   5.087  1.7709  0.4368 -0.4680
   66MOL   H13437964   5.919   2.938   5.344 -3.0498 -0.9613 -0.0905
   66MOL   H13537965   5.888   2.820   5.083 -0.1381  0.1638  0.2823
   66MOL   H13637966   6.058   2.820   5.035 -0.8313  2.8431 -1.1827
   66MOL   H13737967   6.039   2.606   5.072  0.6587  0.1492  0.3357
   66MOL   H13837968   5.885   2.611   5.153  0.7027 -0.4450 -0.2031
   66MOL   H13937969   6.139   2.514   5.288  0.5502 -1.0050  0.0594
   66MOL   H14037970   6.036   2.406   5.187  2.3515 -0.9829  0.7910
   66MOL   H14137971   5.950   2.553   5.442 -0.1200 -0.9311  0.6008
   66MOL   H14237972   5.858   2.437   5.351 -0.5369 -0.5566  2.2568
   66MOL   H14337973   5.869   2.245   5.461  0.4282 -1.5042 -0.1669
   66MOL   H14437974   5.997   2.327   5.697 -0.3995  0.6885  0.9694
   66MOL   H14537975   5.980   2.081   5.611  0.6372  0.4040  1.4227
   66MOL   H14637976   6.078   2.116   5.463  1.3144 -0.8411  0.3593
   66MOL   C14737977   6.234   2.078   5.675  0.0549  0.2409  0.6868
   66MOL   C14837978   6.357   2.131   5.741 -0.3177 -0.4972  0.2969
   66MOL   O14937979   6.452   2.178   5.646  0.2584  0.3409  0.1337
   66MOL   C15037980   6.428   2.028   5.825 -0.6167  0.9746  0.4824
   66MOL   O15137981   6.522   2.082   5.920  0.0216  0.4392 -0.4407
   66MOL   C15237982   6.586   1.994   6.003 -0.6501  0.7174 -0.4179
   66MOL   C15337983   6.707   1.918   5.937 -0.2348 -0.1822  0.2263
   66MOL   C15437984   6.825   1.860   6.022  0.6982  0.0672 -0.5229
   66MOL   O15537985   6.789   1.747   6.099 -0.2661  0.2543 -0.7446
   66MOL   C15637986   6.874   1.691   6.193 -0.0027 -0.0042  0.0265
   66MOL   O15737987   7.006   1.664   6.138  0.2444  0.0648 -0.5317
   66MOL   C15837988   6.800   1.565   6.222  0.5699  0.4004 -0.1074
   66MOL   O15937989   6.757   1.498   6.101 -0.2856 -0.1442  0.1005
   66MOL   H16037990   6.261   2.042   5.575  0.1255  1.4354  0.2631
   66MOL   H16137991   6.172   2.004   5.725  0.4207 -0.8394 -0.4119
   66MOL   H16237992   6.332   2.222   5.794 -0.4790  0.3646 -1.2204
   66MOL   H16337993   6.534   2.195   5.689 -0.4343  0.1527  1.5583
   66MOL   H16437994   6.350   1.971   5.874 -1.0754  0.8375 -0.3960
   66MOL   H16537995   6.489   1.956   5.769 -1.1820  0.2694  0.7691
   66MOL   H16637996   6.516   1.922   6.046  0.8003  0.0709  0.8941
   66MOL   H16737997   6.625   2.056   6.084  1.3274 -0.9169 -0.1118
   66MOL   H16837998   6.739   1.977   5.851  1.2157  2.2444  2.3602
   66MOL   H16937999   6.671   1.830   5.883  0.0914 -0.2246  0.0721
   66MOL   H17038000   6.914   1.830   5.966  0.2193 -2.0338 -0.2088
   66MOL   H17138001   6.866   1.934   6.090 -0.6229 -0.9915  1.4988
   66MOL   H17238002   6.887   1.752   6.282  0.2495  0.9267 -0.6388
   66MOL   H17338003   6.995   1.604   6.066  0.9481  1.1755 -1.5885
   66MOL   H17438004   6.861   1.488   6.269 -2.7227 -2.2964 -0.0195
   66MOL   H17538005   6.713   1.595   6.280  0.3911 -1.6226  0.7086
   66MOL   C17638006   6.630   1.429   6.118 -1.2007  0.3573  0.3910
   66MOL   C17738007   6.513   1.520   6.068 -0.6306  0.4135 -0.4189
   66MOL   O17838008   6.388   1.469   6.104  0.6202  0.6884 -0.5041
   66MOL   C17938009   6.522   1.539   5.923 -0.6708  0.1796  0.2081
   66MOL   O18038010   6.404   1.613   5.897 -0.1921 -0.7348  0.3737
   66MOL   C18138011   6.368   1.603   5.763 -0.1842  0.0623 -0.4244
   66MOL   C18238012   6.257   1.695   5.724  0.2343  0.4864  0.5728
   66MOL   C18338013   6.131   1.653   5.813  0.1287 -0.1208  0.0276
   66MOL   O18438014   6.031   1.735   5.766 -0.6884  0.3892  0.2389
   66MOL   C18538015   5.921   1.720   5.848  0.3789 -0.0575  0.2487
   66MOL   O18638016   5.860   1.594   5.829 -0.0067  0.0746  0.7178
   66MOL   C18738017   5.821   1.833   5.798  0.8752  0.5177  0.1635
   66MOL   O18838018   5.774   1.796   5.662 -0.3889  0.2075 -0.0105
   66MOL   H18938019   6.623   1.398   6.222  2.2407  0.9437  0.8638
   66MOL   H19038020   6.618   1.331   6.071  1.6916 -0.0359  0.3520
   66MOL   H19138021   6.522   1.622   6.106 -0.0071  0.3560 -0.3975
   66MOL   H19238022   6.336   1.517   6.041 -0.5793  1.2253  0.8601
   66MOL   H19338023   6.603   1.599   5.882 -1.3096  0.8729 -0.0462
   66MOL   H19438024   6.520   1.440   5.877 -1.3795  0.4632 -0.3874
   66MOL   H19538025   6.335   1.502   5.737 -2.3731  0.2578  1.4306
   66MOL   H19638026   6.457   1.629   5.707  0.6024  0.5758  1.0428
   66MOL   H19738027   6.244   1.684   5.617  0.0634  0.1482  0.6262
   66MOL   H19838028   6.291   1.798   5.734  0.3228  0.5855 -0.6838
   66MOL   H19938029   6.091   1.553   5.795  1.3215 -0.2123 -2.1903
   66MOL   H20038030   6.151   1.667   5.920  1.1177 -1.7129  0.0554
   66MOL   H20138031   5.944   1.723   5.954  1.8971 -0.5994 -0.0539
   66MOL   H20238032   5.829   1.602   5.741  1.8086  2.7127  0.2414
   66MOL   H20338033   5.739   1.836   5.869  0.1696 -0.6131 -0.5697
   66MOL   H20438034   5.880   1.924   5.801  2.1339 -0.3233  2.0587
   66MOL   C20538035   5.687   1.890   5.597 -0.5257 -0.0778  0.0205
   66MOL   C20638036   5.663   1.860   5.448  0.6344 -0.6641  0.2112
   66MOL   O20738037   5.616   1.724   5.420 -0.4507  0.3749 -0.8411
   66MOL   C20838038   5.564   1.960   5.380 -0.7583  0.2974 -0.2567
   66MOL   O20938039   5.625   2.086   5.363 -0.4266  0.0812 -0.3274
   66MOL   C21038040   5.598   2.147   5.231  0.5685 -0.9710  0.0747
   66MOL   C21138041   5.627   2.296   5.240 -0.7265  0.6421  0.1667
   66MOL   C21238042   5.684   2.353   5.110  0.2414  1.0707  0.8869
   66MOL   O21338043   5.587   2.365   5.011  0.3030  0.6130  0.5192
   66MOL   C21438044   5.639   2.408   4.887 -0.1566  0.0768 -0.2518
   66MOL   O21538045   5.675   2.542   4.899 -0.0251 -0.0596 -0.1144
   66MOL   C21638046   5.529   2.399   4.782  0.3790 -0.1341  0.2022
   66MOL   O21738047   5.502   2.264   4.735  0.0987  0.2994 -0.5057
   66MOL   H21838048   5.731   1.989   5.613  1.6940 -0.3651 -3.6546
   66MOL   H21938049   5.592   1.881   5.649 -0.9358 -0.0471 -0.7120
   66MOL   H22038050   5.760   1.866   5.399 -0.0147 -2.9190 -1.4694
   66MOL   H22138051   5.656   1.663   5.480 -1.0454  1.8842  1.1475
   66MOL   H22238052   5.530   1.914   5.287 -0.3082 -1.0011  0.2138
   66MOL   H22338053   5.476   1.973   5.444  0.2777 -1.5403  1.6092
   66MOL   H22438054   5.499   2.135   5.186 -0.6468  0.9616  2.1033
   66MOL   H22538055   5.670   2.103   5.162 -0.3178  0.1380 -1.6152
   66MOL   H22638056   5.700   2.308   5.321  0.7089 -0.8789 -0.8703
   66MOL   H22738057   5.539   2.351   5.274 -1.5395 -0.8748  0.5586
   66MOL   H22838058   5.743   2.441   5.134  3.3059  0.4987 -3.9307
   66MOL   H22938059   5.759   2.280   5.083 -0.8905  0.0526  0.4298
   66MOL   H23038060   5.724   2.348   4.856 -1.4617 -1.6752 -0.5441
   66MOL   H23138061   5.705   2.560   4.811 -1.0718 -0.3528 -0.5446
   66MOL   H23238062   5.437   2.449   4.816  0.5150  0.8841 -0.9045
   66MOL   H23338063   5.567   2.457   4.698  0.3878 -0.8681 -0.2957
   66MOL   C23438064   5.454   2.172   4.836 -0.1318  0.3834 -0.1693
   66MOL   C23538065   5.388   2.047   4.771  0.0856  0.2127 -0.5327
   66MOL   O23638066   5.284   1.990   4.842 -0.1542 -0.3855 -0.0990
   66MOL   C23738067   5.489   1.942   4.760 -0.1543  0.0826 -0.0563
   66MOL   O23838068   5.429   1.844   4.678  0.0975  0.5135  0.6771
   66MOL   C23938069   5.515   1.733   4.660  0.5329 -0.2938  0.5899
   66MOL   C24038070   5.457   1.641   4.555  0.6274  0.2919 -0.1963
   66MOL   C24138071   5.547   1.521   4.531  0.3975 -0.3458 -0.0847
   66MOL   O24238072   5.569   1.452   4.646  0.1615  0.4557  0.0750
   66MOL   C24338073   5.661   1.356   4.646 -0.8711  0.7336  0.2583
   66MOL   O24438074   5.603   1.230   4.599 -0.9989 -0.1510  0.3120
   66MOL   C24538075   5.696   1.343   4.793 -0.2781 -0.6244  0.1264
   66MOL   O24638076   5.758   1.455   4.849  0.1623 -0.5897 -0.1723
   66MOL   H24738077   5.536   2.142   4.901  1.1879  4.2548  0.0737
   66MOL   H24838078   5.382   2.226   4.898  0.7477  0.9502  0.3812
   66MOL   H24938079   5.365   2.065   4.666 -1.1163 -0.1369 -0.3343
   66MOL   H25038080   5.276   1.903   4.805 -0.6228 -0.2738 -0.2603
   66MOL   H25138081   5.577   1.983   4.710 -1.2932  1.9474 -0.5512
   66MOL   H25238082   5.527   1.897   4.852  2.0081  0.9547 -0.4933
   66MOL   H25338083   5.508   1.678   4.754 -1.3874 -1.4605 -0.2067
   66MOL   H25438084   5.616   1.766   4.639  0.4424 -0.5477 -0.2486
   66MOL   H25538085   5.447   1.699   4.464  0.3393  2.5768  1.2557
   66MOL   H25638086   5.355   1.609   4.580  0.3747  1.7549  0.6935
   66MOL   H25738087   5.502   1.457   4.455  1.5460 -0.3586 -0.7683
   66MOL   H25838088   5.638   1.568   4.494  1.7044  0.3463  3.7657
   66MOL   H25938089   5.749   1.386   4.588  0.2228  0.0116  1.5159
   66MOL   H26038090   5.664   1.159   4.609 -0.9654 -0.1512  0.1009
   66MOL   H26138091   5.610   1.308   4.850  0.3923 -1.8621  0.4002
   66MOL   H26238092   5.766   1.262   4.812  0.0445 -0.0021  1.6529
   66MOL   C26338093   5.755   1.448   4.993  0.7029  0.0620  0.0988
   66MOL   C26438094   5.855   1.550   5.053 -0.3192 -0.5986  0.1097
   66MOL   O26538095   5.985   1.517   5.012  0.3731  0.2396 -0.3964
   66MOL   C26638096   5.832   1.695   5.004 -0.5395  0.4490  0.2690
   66MOL   O26738097   5.930   1.770   5.082  0.0538  0.1439  0.6307
   66MOL   C26838098   5.916   1.904   5.058  0.0832 -0.5693 -0.0364
   66MOL   C26938099   6.032   1.974   5.120 -0.4985 -0.9468  0.0091
   66MOL   C27038100   6.046   2.117   5.097 -0.1217 -0.0210  0.1455
   66MOL   O27138101   6.089   2.144   4.966  0.4840  0.5117 -0.3068
   66MOL   C27238102   6.071   2.274   4.935 -0.2260 -0.0970 -0.2142
   66MOL   O27338103   6.178   2.346   4.989  0.4897 -0.2323 -0.1631
   66MOL   C27438104   6.064   2.297   4.785 -0.1115  0.0133 -0.3890
   66MOL   O27538105   5.931   2.287   4.731 -0.1602 -0.1422  0.8918
   66MOL   H27638106   5.787   1.349   5.026 -0.5129 -0.8985 -1.4825
   66MOL   H27738107   5.659   1.488   5.026  0.8112 -0.0507  0.5463
   66MOL   H27838108   5.843   1.553   5.162 -2.0777  1.8041 -0.1049
   66MOL   H27938109   6.039   1.589   5.042  0.2783 -0.6134  1.9557
   66MOL   H28038110   5.854   1.711   4.898  1.4737  1.4287  0.8128
   66MOL   H28138111   5.736   1.720   5.049 -0.7452 -1.7655  1.1112
   66MOL   H28238112   5.821   1.931   5.105 -0.0234  1.1323 -1.1665
   66MOL   H28338113   5.915   1.943   4.956  2.4982  1.1956  0.5565
   66MOL   H28438114   6.124   1.927   5.083  0.1373  0.6008 -0.4109
   66MOL   H28538115   6.035   1.955   5.227  1.1040 -0.8020  0.0009
   66MOL   H28638116   5.949   2.155   5.129 -0.1197 -1.0527  1.4129
   66MOL   H28738117   6.117   2.174   5.157 -1.5110 -0.5128  2.3282
   66MOL   H28838118   5.980   2.322   4.971  0.9181  3.2790 -1.6132
   66MOL   H28938119   6.255   2.305   4.953  0.4699  0.7863 -1.4030
   66MOL   H29038120   6.091   2.398   4.754 -0.4531 -0.2007 -1.4055
   66MOL   H29138121   6.131   2.235   4.726 -0.0413 -0.4065  0.1241
   66MOL   C29238122   5.890   2.153   4.722  0.4416 -0.6230 -0.4788
   66MOL   C29338123   5.972   2.050   4.647 -0.2957  0.0203  0.2088
   66MOL   O29438124   5.882   1.936   4.634 -0.0769  0.0826 -0.1495
   66MOL   C29538125   6.000   2.076   4.495  0.6122 -0.4092 -0.2222
   66MOL   O29638126   6.095   1.982   4.449 -0.1817 -0.1208 -0.2225
   66MOL   C29738127   6.109   1.971   4.307  0.0864  0.3187  0.0417
   66MOL   C29838128   6.224   1.876   4.284  0.0991  0.3176  0.1464
   66MOL   C29938129   6.354   1.931   4.340  0.1093  0.4248  0.0148
   66MOL   O30038130   6.458   1.874   4.264 -0.0201 -0.8560 -0.5201
   66MOL   C30138131   6.584   1.935   4.283 -0.2316 -0.0463  0.3057
   66MOL   O30238132   6.628   1.918   4.416  0.1730  0.2579 -0.5501
   66MOL   C30338133   6.693   1.875   4.183 -0.0838  0.2141 -0.2188
   66MOL   O30438134   6.646   1.872   4.048  0.7417  0.4722 -0.1372
   66MOL   H30538135   5.880   2.116   4.824 -0.2836 -0.0755 -0.3521
   66MOL   H30638136   5.793   2.156   4.673  0.8995  0.6253 -1.3243
   66MOL   H30738137   6.061   2.021   4.703 -0.9935 -0.8152  0.9100
   66MOL   H30838138   5.925   1.864   4.591 -1.1696 -0.6184 -0.0918
   66MOL   H30938139   5.909   2.071   4.435  0.6716  0.0730 -0.3617
   66MOL   H31038140   6.046   2.173   4.473 -1.1978  0.7784  1.0312
   66MOL   H31138141   6.132   2.063   4.254  0.8653 -1.1815 -2.2979
   66MOL   H31238142   6.019   1.925   4.266  1.5870 -1.5453 -1.2662
   66MOL   H31338143   6.226   1.876   4.175 -1.5370 -1.9084  0.0735
   66MOL   H31438144   6.210   1.775   4.322 -0.9620  0.5239  0.3151
   66MOL   H31538145   6.367   2.038   4.320 -0.2133  0.5058  0.2379
   66MOL   H31638146   6.366   1.910   4.447 -0.1979 -0.2767 -0.0859
   66MOL   H31738147   6.580   2.044   4.273  0.3424 -0.1684 -1.5349
   66MOL   H31838148   6.661   1.830   4.415 -0.1046  0.1025  2.1043
   66MOL   H31938149   6.710   1.769   4.200  1.3518  0.2333 -1.4010
   66MOL   H32038150   6.790   1.924   4.192 -0.1403  0.4000 -0.5978
   66MOL   C32138151   6.681   1.991   3.979 -0.9307 -0.0369 -0.3892
   66MOL   C32238152   6.593   1.989   3.847  0.5497  0.6207 -0.0751
   66MOL   O32338153   6.470   2.050   3.884 -0.4670 -0.5567  0.0419
   66MOL   C32438154   6.663   2.074   3.743 -0.0683  0.1369 -0.1074
   66MOL   O32538155   6.785   2.020   3.706  0.2422  0.0903  0.1300
   66MOL   C32638156   6.848   2.082   3.598 -0.3226  0.1593  0.0551
   66MOL   C32738157   6.978   2.004   3.569 -0.7539  0.9025  0.0387
   66MOL   C32838158   7.045   2.029   3.433 -0.1437 -0.1945 -0.3989
   66MOL   O32938159   7.161   1.947   3.418  0.0353  0.2581  0.1351
   66MOL   C33038160   7.204   1.933   3.284 -0.2742  0.0691  0.0456
   66MOL   O33138161   7.273   2.050   3.240 -0.0914  0.2489 -0.2259
   66MOL   C33238162   7.298   1.815   3.265  0.2074 -0.7021 -0.0124
   66MOL   O33338163   7.233   1.691   3.275  0.2594 -0.1340  0.2840
   66MOL   H33438164   6.788   2.000   3.962 -0.8524  1.7742  1.0120
   66MOL   H33538165   6.671   2.086   4.030 -2.3784  1.2860 -3.0329
   66MOL   H33638166   6.579   1.886   3.813 -1.4589  0.9356 -0.2789
   66MOL   H33738167   6.496   2.136   3.915  2.1775 -1.1161 -0.5249
   66MOL   H33838168   6.668   2.171   3.792  0.2547 -0.3669  0.8775
   66MOL   H33938169   6.612   2.087   3.648  0.1689  1.8876 -0.0050
   66MOL   H34038170   6.875   2.177   3.644 -0.5986  0.3875 -0.2537
   66MOL   H34138171   6.773   2.093   3.519 -0.3879 -0.2280  0.0636
   66MOL   H34238172   7.042   2.010   3.657  1.3057 -0.3365 -1.3378
   66MOL   H34338173   6.950   1.898   3.569  0.7526  0.4977  0.7923
   66MOL   H34438174   6.980   1.995   3.353 -1.2162 -0.7902  0.6999
   66MOL   H34538175   7.060   2.136   3.420 -0.2292 -0.1738 -0.3316
   66MOL   H34638176   7.118   1.914   3.220 -0.3648 -0.0089  0.1897
   66MOL   H34738177   7.226   2.085   3.166  1.0455  0.4772 -0.8478
   66MOL   H34838178   7.315   1.830   3.158  0.4849  2.4030  0.4293
   66MOL   H34938179   7.387   1.822   3.328  0.8813  1.1262 -1.1158
   66MOL   C35038180   7.187   1.659   3.413  0.4421 -0.5157 -0.2968
   66MOL   C35138181   7.298   1.629   3.513 -0.4330  0.3806 -0.1155
   66MOL   O35238182   7.247   1.578   3.635  0.2085  0.4980  0.6510
   66MOL   C35338183   7.402   1.528   3.466 -0.7986  0.1757  0.4118
   66MOL   O35438184   7.504   1.529   3.566 -0.6630 -0.6963  0.6209
   66MOL   C35538185   7.595   1.425   3.549  0.7027 -0.4375  0.1213
   66MOL   C35638186   7.693   1.418   3.661  0.5352 -0.2388  0.7816
   66MOL   C35738187   0.084   1.292   3.672 -0.2513 -0.2434  0.1631
   66MOL   O35838188   0.158   1.304   3.791 -0.4856  0.2994  0.1281
   66MOL   C35938189   0.222   1.193   3.846  0.4571 -0.3940 -0.1549
   66MOL   O36038190   0.290   1.125   3.746  0.3543 -0.2245 -0.2664
   66MOL   C36138191   0.316   1.263   3.945  0.2617  0.3718  0.2318
   66MOL   O36238192   0.242   1.336   4.041 -0.0722 -0.4200  0.2037
   66MOL   H36338193   7.123   1.572   3.394 -0.0042 -0.2959  0.2077
   66MOL   H36438194   7.123   1.735   3.458  2.0435  1.5513 -1.4285
   66MOL   H36538195   7.347   1.725   3.526  1.3753 -0.4969 -0.2858
   66MOL   H36638196   7.320   1.532   3.674  0.2822  0.2243  0.1924
   66MOL   H36738197   7.359   1.430   3.445  0.9173  0.0976 -3.1175
   66MOL   H36838198   7.447   1.560   3.372 -3.2497 -2.1132 -1.5936
   66MOL   H36938199   7.654   1.424   3.458 -2.1092 -1.1138 -1.7299
   66MOL   H37038200   7.542   1.330   3.553  0.4315 -0.3155 -0.6194
   66MOL   H37138201   7.638   1.434   3.754 -0.3581 -1.7961  0.5334
   66MOL   H37238202   0.058   1.509   3.660  0.6513 -0.3205  0.1100
   66MOL   H37338203   0.033   1.196   3.672  2.1864 -1.6138  2.6704
   66MOL   H37438204   0.156   1.288   3.590  0.8076 -0.0209  1.0632
   66MOL   H37538205   0.156   1.124   3.898  0.1321  0.2154  0.2345
   66MOL   H37638206   0.348   1.188   3.705  0.6523  1.0000  1.9116
   66MOL   H37738207   0.351   1.185   4.013 -1.3288  0.1261  0.8016
   66MOL   H37838208   0.402   1.312   3.899 -1.0731  2.3308 -0.2662
   66MOL   C37938209   0.252   1.475   4.017 -0.1345 -0.0707  0.2365
   66MOL   C38038210   0.153   1.548   4.105  0.4930 -0.7800  0.4182
   66MOL   O38138211   0.211   1.539   4.235 -0.4548  0.6553  0.0811
   66MOL   C38238212   0.132   1.693   4.061 -0.0437 -0.1245 -0.1565
   66MOL   O38338213   0.020   1.747   4.130  0.0234  0.6931  0.4372
   66MOL   C38438214   0.007   1.879   4.096 -0.0233  0.2485 -0.7576
   66MOL   C38538215   7.576   1.926   4.170 -0.8048  0.1661 -1.0507
   66MOL   C38638216   7.587   2.079   4.185  0.6898  0.5258  0.2945
   66MOL   O38738217   7.547   2.140   4.062  0.6390  0.2710 -0.6031
   66MOL   C38838218   7.537   2.275   4.079 -0.6592 -0.5784  0.4185
   66MOL   O38938219   7.661   2.339   4.073 -0.0336  0.2012 -0.0452
   66MOL   C39038220   7.455   2.311   3.956  0.3496 -0.5185  0.6201
   66MOL   O39138221   7.357   2.412   3.991 -0.0105  0.0897 -0.4657
   66MOL   H39238222   0.235   1.499   3.912  1.4419  1.9969  0.4124
   66MOL   H39338223   0.353   1.511   4.037  0.9619 -0.8316 -3.6441
   66MOL   H39438224   0.059   1.495   4.096 -0.0098  0.0788  0.5807
   66MOL   H39538225   0.191   1.449   4.257  1.9709  0.2537  0.7699
   66MOL   H39638226   0.219   1.744   4.104 -0.6550 -0.2553  1.2491
   66MOL   H39738227   0.124   1.706   3.953  0.5713  0.7599 -0.1029
   66MOL   H39838228   0.002   1.900   3.989  0.3414 -1.3734 -1.1109
   66MOL   H39938229   0.095   1.937   4.123 -0.5750  0.5035  0.5264
   66MOL   H40038230   7.577   1.882   4.270 -2.4534 -1.3222 -1.6551
   66MOL   H40138231   7.481   1.898   4.124 -0.8795 -0.0509 -0.7648
   66MOL   H40238232   7.533   2.105   4.277  0.5848  2.2987 -0.2445
   66MOL   H40338233   7.689   2.107   4.212  0.7781  0.3623  0.1285
   66MOL   H40438234   7.490   2.304   4.174  0.5066  0.1036  0.7913
   66MOL   H40538235   7.645   2.414   4.018 -1.0510  0.5757  0.7301
   66MOL   H40638236   7.518   2.352   3.878 -0.4504 -0.6677 -0.1155
   66MOL   H40738237   7.407   2.219   3.922 -0.0674  0.3810 -1.2987
   66MOL   C40838238   7.221   2.365   3.945 -0.2720  0.0976 -0.1705
   66MOL   C40938239   7.125   2.468   3.988  0.2352 -0.5522 -0.3388
   66MOL   O41038240   7.104   2.449   4.127 -0.1822 -0.3310  0.0629
   66MOL   C41138241   6.994   2.470   3.908  0.6918  0.6254  0.6850
   66MOL   O41238242   7.021   2.531   3.785 -0.2022 -0.6878 -0.4510
   66MOL   C41338243   6.926   2.502   3.687  0.0064 -0.1726 -0.4760
   66MOL   C41438244   6.966   2.589   3.565 -0.2558  0.6450  0.4124
   66MOL   C41538245   6.853   2.580   3.455 -0.3260 -0.2281  0.4428
   66MOL   O41638246   6.821   2.455   3.404 -0.2408 -0.1892  0.0195
   66MOL   C41738247   6.756   2.455   3.279  0.6398 -0.4225  0.9437
   66MOL   O41838248   6.638   2.523   3.289  0.0531 -0.1485  0.1468
   66MOL   C41938249   6.729   2.315   3.233 -0.0799  0.0513  0.0100
   66MOL   O42038250   6.842   2.240   3.196  0.0364 -0.2956  0.0762
   66MOL   H42138251   7.186   2.272   3.988 -0.6748  0.4064  0.1731
   66MOL   H42238252   7.221   2.372   3.836  0.4490  1.6552 -0.0923
   66MOL   H42338253   7.164   2.569   3.973 -1.7044  0.7577  2.8576
   66MOL   H42438254   7.183   2.483   4.165  0.1122  0.2341 -1.0304
   66MOL   H42538255   6.965   2.365   3.906 -0.5607  0.9712 -0.0679
   66MOL   H42638256   6.916   2.520   3.965 -0.5903  0.8049 -1.1716
   66MOL   H42738257   6.914   2.396   3.662 -1.7450 -0.4263  1.2928
   66MOL   H42838258   6.825   2.534   3.713  0.3242  0.0724  0.4483
   66MOL   H42938259   7.060   2.541   3.536 -0.9187 -0.5539  0.1846
   66MOL   H43038260   6.991   2.690   3.596 -2.3139  1.0631  0.8214
   66MOL   H43138261   6.761   2.606   3.509 -0.6405 -2.8899  1.2891
   66MOL   H43238262   6.883   2.656   3.383 -1.6113 -0.9730 -0.9046
   66MOL   H43338263   6.821   2.510   3.211 -0.2736  1.3454  1.4669
   66MOL   H43438264   6.579   2.471   3.341  1.0025 -2.3991 -0.9220
   66MOL   H43538265   6.667   2.269   3.310  1.7398 -1.3672  0.6574
   66MOL   H43638266   6.660   2.319   3.148 -0.4684  1.2827  0.3645
   66MOL   C43738267   6.854   2.192   3.058  0.4938  0.3287 -0.2791
   66MOL   C43838268   6.970   2.099   3.038 -0.2121 -0.4432 -0.7771
   66MOL   O43938269   7.098   2.161   3.063 -0.1679  0.5367 -0.0365
   66MOL   C44038270   6.979   2.043   2.899 -0.5842  0.1723 -0.0133
   66MOL   O44138271   7.059   1.927   2.920  0.1220 -0.1011 -0.6920
   66MOL   C44238272   7.026   1.824   2.839 -0.1058  0.2572 -0.4240
   66MOL   C44338273   6.901   1.753   2.891  0.3633 -0.7077  0.3092
   66MOL   C44438274   6.922   1.656   3.009  0.3095  0.4033  0.3498
   66MOL   O44538275   6.796   1.617   3.055 -0.6024 -0.2090 -0.5931
   66MOL   C44638276   6.813   1.566   3.185  0.4539  0.4581  0.3262
   66MOL   O44738277   6.859   1.431   3.176  0.4974 -0.1765  0.2996
   66MOL   C44838278   6.677   1.564   3.257  0.0298 -0.3606  0.2493
   66MOL   O44938279   6.611   1.692   3.257 -0.5560  0.3044 -0.2475
   66MOL   H45038280   6.762   2.138   3.035 -1.6133  3.3260  0.7466
   66MOL   H45138281   6.878   2.275   2.992  0.0037 -0.9716 -2.1309
   66MOL   H45238282   6.949   2.022   3.113  0.1270  0.9267  0.7712
   66MOL   H45338283   7.088   2.250   3.031  3.1627  0.9100 -0.1851
   66MOL   H45438284   6.875   2.019   2.877 -0.6971  1.0295 -0.4239
   66MOL   H45538285   7.019   2.121   2.835  0.7986  0.8361  1.6357
   66MOL   H45638286   7.106   1.751   2.827  0.9681  2.1193 -5.8165
   66MOL   H45738287   6.999   1.856   2.739  1.9435 -0.3090 -1.1763
   66MOL   H45838288   6.849   1.712   2.805  0.1603 -0.0839  0.1334
   66MOL   H45938289   6.820   1.820   2.921  0.2165 -0.7310 -0.0353
   66MOL   H46038290   6.981   1.569   2.979  1.4412 -0.4800  4.8002
   66MOL   H46138291   6.987   1.702   3.083  2.1907  0.6110 -1.3601
   66MOL   H46238292   6.890   1.610   3.249 -0.1490  2.1177 -0.0455
   66MOL   H46338293   6.785   1.375   3.157  0.8945  0.3041 -3.0003
   66MOL   H46438294   6.613   1.493   3.205 -1.3144  0.1203  1.2195
   66MOL   H46538295   6.692   1.531   3.360 -0.7645 -0.3206  0.3820
   66MOL   C46638296   6.692   1.800   3.291  0.7107 -0.1986 -0.0471
   66MOL   C46738297   6.631   1.924   3.234 -0.5395 -0.2822 -0.6350
   66MOL   O46838298   6.664   1.913   3.094  0.3941  0.3926  0.2729
   66MOL   C46938299   6.481   1.948   3.270  0.0802 -0.1987 -0.0250
   66MOL   O47038300   6.442   2.082   3.265 -0.0451 -0.3562 -0.1634
   66MOL   C47138301   6.444   2.128   3.129 -0.5254 -0.2871  0.7119
   66MOL   C47238302   6.391   2.268   3.114  0.3135  0.0080  0.3864
   66MOL   C47338303   6.374   2.311   2.965  0.6055 -0.9553  0.2696
   66MOL   O47438304   6.280   2.230   2.893  0.5308  0.2662  0.2795
   66MOL   C47538305   6.280   2.251   2.760  0.1611 -0.5136  0.0319
   66MOL   O47638306   6.206   2.365   2.730 -0.2870 -0.0591 -0.0962
   66MOL   C47738307   6.221   2.128   2.681 -0.2668  0.0609  0.2461
   66MOL   O47838308   6.326   2.039   2.653 -0.4566  0.9830 -0.6466
   66MOL   H47938309   6.797   1.798   3.262  0.9513  0.7500  0.7206
   66MOL   H48038310   6.706   1.816   3.398  0.5804  3.5855 -0.5158
   66MOL   H48138311   6.684   2.010   3.276  0.0163  0.1697 -2.2319
   66MOL   H48238312   6.641   1.826   3.067  0.0893  1.1888 -2.1177
   66MOL   H48338313   6.424   1.877   3.211 -2.9762 -0.1134  2.6691
   66MOL   H48438314   6.461   1.931   3.376 -0.3479 -2.1831 -0.4105
   66MOL   H48538315   6.399   2.060   3.057 -1.1938 -0.5009  1.3325
   66MOL   H48638316   6.548   2.130   3.096 -1.2938  3.8876 -1.8358
   66MOL   H48738317   6.455   2.340   3.165 -1.3880  0.7821  1.4607
   66MOL   H48838318   6.294   2.284   3.160 -0.4058 -0.3518 -0.9646
   66MOL   H48938319   6.345   2.416   2.971  1.4316 -0.8153  2.2653
   66MOL   H49038320   6.474   2.304   2.923  0.7944  0.1639  0.5206
   66MOL   H49138321   6.382   2.260   2.723  0.3111 -0.5203  0.4397
   66MOL   H49238322   6.114   2.350   2.746 -0.1914  0.3581  0.8757
   66MOL   H49338323   6.150   2.072   2.743 -1.4332  2.5151  1.1640
   66MOL   H49438324   6.186   2.164   2.585  0.5236  0.9354  0.2817
   66MOL   C49538325   6.388   1.969   2.767  1.1876  0.2413 -0.2043
   66MOL   C49638326   6.459   1.853   2.708 -0.5427 -0.2136  0.1286
   66MOL   O49738327   6.599   1.891   2.690 -0.9181  0.1616  0.0094
   66MOL   C49838328   6.473   1.730   2.807 -0.3903 -0.7335 -0.5909
   66MOL   O49938329   6.533   1.616   2.741 -0.2770  0.1216 -0.9161
   66MOL   C50038330   6.548   1.506   2.834  0.1250  0.3069  0.6498
   66MOL   C50138331   6.627   1.398   2.768 -0.2646 -0.1998 -0.0391
   66MOL   C50238332   6.657   1.278   2.865  0.1628 -0.0900  0.1067
   66MOL   O50338333   6.757   1.184   2.818  0.1459 -0.0074  0.3168
   66MOL   C50438334   6.875   1.249   2.784 -0.3665 -0.1575 -0.3411
   66MOL   O50538335   6.886   1.252   2.645 -0.3950 -0.9064  0.8136
   66MOL   C50638336   6.995   1.160   2.832 -0.0618 -0.5633  0.2582
   66MOL   O50738337   7.027   1.210   2.963  0.2406 -0.4792 -0.1155
   66MOL   H50838338   6.305   1.928   2.825  0.7566  0.1299 -0.8967
   66MOL   H50938339   6.443   2.043   2.826 -2.9013  3.3488  0.0151
   66MOL   H51038340   6.421   1.809   2.616 -0.4060 -0.4769  0.1963
   66MOL   H51138341   6.651   1.821   2.653 -0.2756 -0.5312  2.1915
   66MOL   H51238342   6.538   1.764   2.887 -1.1473 -1.2850  0.2642
   66MOL   H51338343   6.381   1.697   2.856 -1.8119  2.1711 -1.2187
   66MOL   H51438344   6.456   1.458   2.866  0.7189 -2.0260 -1.0470
   66MOL   H51538345   6.590   1.541   2.929  0.7265  2.4018 -0.3746
   66MOL   H51638346   6.716   1.451   2.735 -0.1477 -0.1128  0.4105
   66MOL   H51738347   6.578   1.365   2.676 -0.8036  0.2140  0.0981
   66MOL   H51838348   6.697   1.309   2.961  1.1246  0.3663 -0.4360
   66MOL   H51938349   6.571   1.213   2.882 -1.5972  0.7409 -4.7584
   66MOL   H52038350   6.891   1.353   2.812 -0.9212 -0.2376  0.2829
   66MOL   H52138351   6.922   1.167   2.624 -0.4672 -1.1629  1.6982
   66MOL   H52238352   6.981   1.052   2.826 -0.3544 -0.5349  0.4705
   66MOL   H52338353   7.077   1.174   2.761 -0.5121 -2.3983 -0.6350
   66MOL   C52438354   7.129   1.132   3.011 -0.1350  0.3981 -0.8586
   66MOL   C52538355   7.162   1.175   3.151  0.6597  0.2165  1.0117
   66MOL   O52638356   7.039   1.186   3.222  0.0077 -0.2788 -0.2560
   66MOL   C52738357   7.244   1.299   3.166  0.2760  0.6544  0.3938
   66MOL   O52838358   7.345   1.296   3.067 -0.4635  0.1207  0.6117
   66MOL   C52938359   7.447   1.402   3.081  0.0384 -0.0786  0.4337
   66MOL   C53038360   7.583   1.364   3.041  0.0635  0.5659  0.4629
   66MOL   C53138361   7.686   1.475   3.064 -0.1912  0.2772  0.0126
   66MOL   O53238362   0.101   1.434   2.994  0.0403 -0.1799  0.1604
   66MOL   C53338363   0.212   1.524   2.990 -0.1799  0.5932  0.1992
   66MOL   O53438364   0.274   1.521   3.116 -0.2188 -0.4129 -0.8899
   66MOL   C53538365   0.306   1.462   2.876 -0.0407 -0.0432 -0.4093
   66MOL   O53638366   0.270   1.513   2.742  0.4124 -0.2735  0.0741
   66MOL   H53738367   7.214   1.130   2.943  0.1632  1.0561 -0.5110
   66MOL   H53838368   7.102   1.027   3.019  0.0656  0.4441  0.6473
   66MOL   H53938369   7.221   1.089   3.183  1.4592 -0.3270 -1.8475
   66MOL   H54038370   7.004   1.265   3.183 -1.4791 -1.1103 -0.6313
   66MOL   H54138371   7.183   1.388   3.152  1.3051  1.5459  1.3465
   66MOL   H54238372   7.291   1.307   3.265 -0.9644 -0.0606  1.0562
   66MOL   H54338373   7.440   1.457   3.175 -1.0832  1.5583 -0.5899
   66MOL   H54438374   7.423   1.483   3.012  1.5409  0.1769  0.2124
   66MOL   H54538375   7.588   1.346   2.933  0.0196  1.2730  0.3378
   66MOL   H54638376   7.616   1.278   3.098 -0.7394  0.9640  1.5270
   66MOL   H54738377   7.649   1.572   3.030 -2.6721  0.2196  2.4059
   66MOL   H54838378   0.009   1.506   3.166 -2.1667  0.7014  0.2389
   66MOL   H54938379   0.182   1.628   2.973  0.4726  0.8802  0.7825
   66MOL   H55038380   0.319   1.605   3.120  0.4391 -0.7484 -1.1782
   66MOL   H55138381   0.406   1.496   2.902 -0.4796 -0.5043  1.9454
   66MOL   H55238382   0.304   1.354   2.883  1.4443 -0.1306 -1.0727
   66MOL   C55338383   0.156   1.454   2.688 -0.4261 -0.2352  0.8539
   66MOL   C55438384   0.037   1.554   2.690 -0.4787 -0.1557  0.1661
   66MOL   O55538385   7.616   1.502   2.627  0.1356 -0.0313 -0.5289
   66MOL   C55638386   0.058   1.690   2.613  0.6874 -0.0884  0.2888
   66MOL   O55738387   0.118   1.673   2.493 -0.6261 -0.1075  0.6063
   66MOL   C55838388   0.177   1.802   2.441  0.6159 -0.5436  0.3038
   66MOL   C55938389   0.299   1.767   2.366  0.1611  0.5136  0.5757
   66MOL   C56038390   0.371   1.896   2.316 -0.3050 -0.2373  0.8194
   66MOL   O56138391   0.290   1.981   2.236 -0.0449  0.2898 -0.0528
   66MOL   C56238392   0.353   2.081   2.175  0.3638  0.1854 -0.2720
   66MOL   O56338393   0.428   2.042   2.066  0.1875  0.1917  0.3190
   66MOL   C56438394   0.248   2.190   2.139 -0.2511  0.6907  0.2492
   66MOL   O56538395   0.151   2.128   2.061  0.4658  0.3481 -0.1386
   66MOL   H56638396   0.132   1.367   2.750 -1.1127 -1.7439 -1.4381
   66MOL   H56738397   0.186   1.430   2.585  0.7594  1.2407  0.8428
   66MOL   H56838398   0.013   1.574   2.794 -0.2422 -2.2018  0.6334
   66MOL   H56938399   7.631   1.520   2.536 -0.0908  1.2488 -0.3277
   66MOL   H57038400   7.656   1.736   2.594  1.5102  1.4345 -0.3054
   66MOL   H57138401   0.121   1.748   2.682 -0.6965  1.1826  0.4993
   66MOL   H57238402   0.093   1.844   2.385  1.1698  0.2652  0.0716
   66MOL   H57338403   0.206   1.875   2.516  1.4902 -0.0116 -0.5325
   66MOL   H57438404   0.283   1.698   2.283 -1.4178  3.2522 -1.4455
   66MOL   H57538405   0.369   1.717   2.434 -0.9542 -1.7832  0.0724
   66MOL   H57638406   0.407   1.957   2.399  0.8382  1.8260 -1.1362
   66MOL   H57738407   0.459   1.860   2.262  0.6778  0.3074  2.0079
   66MOL   H57838408   0.429   2.122   2.241 -0.2678  1.2274 -0.1757
   66MOL   H57938409   0.365   1.992   2.015  1.6559 -2.2462  0.7833
   66MOL   H58038410   0.199   2.237   2.224 -0.9863 -0.3706  0.4219
   66MOL   H58138411   0.303   2.267   2.085 -1.7290  0.5641 -1.4881
   66MOL   H58238412   0.184   2.044   2.034  1.7988  1.3022 -1.5864
   67MOL     C138413   5.210   4.466   6.310  1.0054  0.1409  0.0711
   67MOL     C238414   5.208   4.592   6.228 -1.0270  0.2154 -0.1892
   67MOL     O338415   5.244   4.561   6.093  1.1443  0.2777  0.9749
   67MOL     C438416   5.072   4.659   6.214 -0.0354  0.3589  0.5955
   67MOL     O538417   5.090   4.760   6.118 -0.0648 -0.1583 -0.5290
   67MOL     C638418   4.992   4.862   6.132 -0.0637 -0.1611 -0.3901
   67MOL     C738419   5.049   4.980   6.049  0.2457  0.3920 -0.1805
   67MOL     C838420   5.190   5.024   6.095  0.3457  0.0876  0.6621
   67MOL     O938421   5.195   5.052   6.232 -0.9505  0.2641 -0.0685
   67MOL    C1038422   5.316   5.108   6.273  0.8725 -0.0564  0.2186
   67MOL    O1138423   5.420   5.016   6.276  0.3915 -0.3954  0.2867
   67MOL    C1238424   5.312   5.178   6.407  0.4178 -0.0379 -0.4969
   67MOL    O1338425   5.310   5.081   6.508  0.3720 -0.1848  0.2101
   67MOL    H1438426   5.313   4.431   6.320  1.4357  1.6035  0.8196
   67MOL    H1538427   5.149   4.382   6.276  2.2622 -0.2620 -1.2518
   67MOL    H1638428   5.276   4.669   6.265 -2.3074  1.8862 -1.2309
   67MOL    H1738429   5.200   4.634   6.053  1.7272 -0.3007 -0.7623
   67MOL    H1838430   5.000   4.582   6.185 -1.9580  1.6389  1.8579
   67MOL    H1938431   5.041   4.693   6.313 -1.1534  1.2984 -0.0643
   67MOL    H2038432   4.987   4.894   6.236  2.6944  0.8714 -0.5168
   67MOL    H2138433   4.893   4.834   6.097 -0.5718  0.4315  0.5542
   67MOL    H2238434   4.980   5.065   6.050 -2.6920 -1.9180 -0.2105
   67MOL    H2338435   5.052   4.948   5.945 -1.8633 -1.6666  0.3452
   67MOL    H2438436   5.269   4.951   6.072  0.2544  0.1846  0.0321
   67MOL    H2538437   5.230   5.104   6.034  0.8268 -1.2990 -0.8946
   67MOL    H2638438   5.338   5.184   6.198 -0.0374  0.5808  0.5928
   67MOL    H2738439   5.447   5.005   6.366  1.5096  1.2163  0.1692
   67MOL    H2838440   5.404   5.235   6.414 -0.5038  1.3143  0.8744
   67MOL    H2938441   5.231   5.251   6.418  1.5185  1.0758  0.3085
   67MOL    H3038442   5.182   4.486   6.413 -2.0870 -1.7908 -0.3396
   67MOL    C3138443   5.183   5.034   6.536 -0.0404  0.9878 -0.2848
   67MOL    C3238444   5.182   4.884   6.582 -0.0081  0.1401  0.2349
   67MOL    O3338445   5.254   4.802   6.492 -0.1391 -0.0193 -0.4636
   67MOL    C3438446   5.034   4.834   6.596 -0.4573 -0.0813  0.5419
   67MOL    O3538447   4.946   4.891   6.691 -0.0829  0.0040  0.8430
   67MOL    C3638448   4.982   4.868   6.823 -0.3658  0.0543  0.4582
   67MOL    C3738449   4.887   4.947   6.917 -0.2375  0.6244 -0.3932
   67MOL    C3838450   4.740   4.896   6.917 -0.4806 -0.2502 -0.7984
   67MOL    O3938451   4.665   4.969   7.012  0.2528  0.5953 -0.1120
   67MOL    C4038452   4.526   4.962   7.004 -0.6579  0.5512 -0.0956
   67MOL    O4138453   4.470   5.067   6.919 -0.1542 -0.3802 -0.0305
   67MOL    C4238454   4.477   4.980   7.154 -0.0038  1.3908 -0.3010
   67MOL    O4338455   4.505   5.112   7.193  0.0524  0.2296 -0.2548
   67MOL    H4438456   5.143   5.104   6.610  0.3747 -2.6319  3.5486
   67MOL    H4538457   5.115   5.039   6.451 -1.0778  0.5812  0.5031
   67MOL    H4638458   5.237   4.877   6.676 -1.0416 -1.4388  0.7365
   67MOL    H4738459   5.332   4.840   6.455  0.6853 -1.7665 -0.5909
   67MOL    H4838460   4.976   4.860   6.507  1.5093  1.4739 -0.3174
   67MOL    H4938461   5.047   4.726   6.603  1.0383  0.2444  3.3565
   67MOL    H5038462   5.088   4.882   6.841 -0.1233  0.0152 -0.8916
   67MOL    H5138463   4.962   4.762   6.839  1.3929 -0.6662 -1.8694
   67MOL    H5238464   4.888   5.054   6.898 -1.2557  0.7274  0.1295
   67MOL    H5338465   4.928   4.930   7.016 -1.3416 -0.4823 -0.1204
   67MOL    H5438466   4.696   4.910   6.818 -0.0683 -0.4027 -1.0037
   67MOL    H5538467   4.722   4.791   6.941  1.9349 -0.2162  1.4256
   67MOL    H5638468   4.498   4.868   6.958 -0.8053 -0.0957  1.2826
   67MOL    H5738469   4.497   5.151   6.954  1.2181 -1.3390  1.2511
   67MOL    H5838470   4.373   4.949   7.163  0.6649 -1.0487 -0.4745
   67MOL    H5938471   4.533   4.906   7.212 -3.0218 -0.3850  0.4658
   67MOL    C6038472   4.460   5.157   7.323 -0.0455 -0.1884 -0.1510
   67MOL    C6138473   4.539   5.104   7.446 -0.1226  0.1303  0.3451
   67MOL    O6238474   4.478   4.982   7.487  0.5937 -0.3373  0.0139
   67MOL    C6338475   4.563   5.206   7.556 -0.1482  0.0685  0.4376
   67MOL    O6438476   4.582   5.335   7.494  0.3228  0.5118 -0.0665
   67MOL    C6538477   4.574   5.441   7.586 -0.2479 -0.2793 -0.0086
   67MOL    C6638478   4.563   5.575   7.510  0.2399 -0.3320  0.0611
   67MOL    C6738479   4.705   5.618   7.457 -0.1159  0.8322  0.2374
   67MOL    O6838480   4.695   5.741   7.378 -0.3196  0.3180  0.1816
   67MOL    C6938481   4.824   5.784   7.334  0.3406 -0.7244 -0.7020
   67MOL    O7038482   4.853   5.709   7.220  0.0058  0.1044  0.1042
   67MOL    C7138483   4.832   5.930   7.291  0.0848 -0.3875 -0.2576
   67MOL    O7238484   4.962   5.964   7.281  0.2912  0.2105 -0.3266
   67MOL    H7338485   4.357   5.121   7.327 -0.8650  1.9806 -1.3067
   67MOL    H7438486   4.461   5.264   7.305 -0.3319 -0.2622 -0.5984
   67MOL    H7538487   4.638   5.071   7.415  0.9010  1.5757  1.9619
   67MOL    H7638488   4.541   4.918   7.515  0.9126 -0.1522 -0.2751
   67MOL    H7738489   4.472   5.198   7.616  0.2121 -2.1707  0.7239
   67MOL    H7838490   4.641   5.171   7.623 -0.6470  0.1814  1.0798
   67MOL    H7938491   4.661   5.439   7.652 -0.0363  0.3255 -0.2714
   67MOL    H8038492   4.500   5.431   7.665  0.7834 -1.4543  0.8480
   67MOL    H8138493   4.522   5.649   7.579  0.7508 -1.1508  1.2656
   67MOL    H8238494   4.500   5.561   7.422  0.2740  2.7459 -0.5101
   67MOL    H8338495   4.748   5.538   7.396 -0.6717  0.2738  0.5703
   67MOL    H8438496   4.779   5.622   7.537  0.1350 -0.2713  0.0671
   67MOL    H8538497   4.906   5.766   7.404  0.4485  2.0100 -0.0809
   67MOL    H8638498   4.945   5.686   7.222 -0.2657 -1.1362 -0.9835
   67MOL    H8738499   4.771   5.944   7.202  0.2536 -0.9773 -0.4675
   67MOL    H8838500   4.786   5.982   7.375 -1.2660  1.2232 -1.9580
   67MOL    C8938501   4.979   6.094   7.229  0.0452 -0.1810  0.0226
   67MOL    C9038502   5.127   6.116   7.201  0.2466  0.0490  0.2001
   67MOL    O9138503   5.154   6.052   7.074 -0.5305  0.3483  0.3368
   67MOL    C9238504   5.156   6.265   7.169  0.1625 -0.2969 -0.1468
   67MOL    O9338505   5.104   6.358   7.265 -0.0241  0.1444 -0.1895
   67MOL    C9438506   5.130   6.494   7.240 -0.0209  0.6858  0.0968
   67MOL    C9538507   5.103   6.582   7.357 -0.5268 -0.0494 -0.7401
   67MOL    C9638508   4.953   6.597   7.388 -1.2452 -0.6047 -0.5617
   67MOL    O9738509   4.885   6.677   7.293 -0.1964  0.7773 -0.1856
   67MOL    C9838510   4.755   6.716   7.318  0.3048  0.2013 -0.2211
   67MOL    O9938511   4.744   6.836   7.393  0.2534  0.2347 -0.1028
   67MOL   C10038512   4.692   6.721   7.177  0.0128 -0.1607  0.8042
   67MOL   O10138513   4.640   6.589   7.142 -0.5017 -0.4916 -0.7721
   67MOL   H10238514   4.943   6.163   7.305  0.4896 -2.0164  1.9532
   67MOL   H10338515   4.922   6.110   7.137  1.0025 -0.0256 -0.5459
   67MOL   H10438516   5.199   6.082   7.276  0.7958 -1.8077 -1.1087
   67MOL   H10538517   5.092   5.982   7.062  0.1398  0.0079 -1.4141
   67MOL   H10638518   5.262   6.278   7.149  0.8237 -1.2907  2.4464
   67MOL   H10738519   5.113   6.298   7.075 -0.6908 -0.7411  0.0794
   67MOL   H10838520   5.064   6.516   7.156  0.1317 -0.0174 -0.2102
   67MOL   H10938521   5.236   6.501   7.214 -0.1737  1.6015 -0.3109
   67MOL   H11038522   5.141   6.684   7.350  2.4619 -0.9359  1.4301
   67MOL   H11138523   5.161   6.543   7.440  1.1418  1.8024 -1.0024
   67MOL   H11238524   4.899   6.505   7.408 -3.8982  1.1246  0.5282
   67MOL   H11338525   4.950   6.645   7.486  0.8823 -1.7879  0.1259
   67MOL   H11438526   4.703   6.642   7.378 -0.6389  0.8084 -0.2922
   67MOL   H11538527   4.776   6.908   7.340 -0.1728 -0.3108 -1.1198
   67MOL   H11638528   4.606   6.786   7.172  0.2827  0.2695  1.6711
   67MOL   H11738529   4.750   6.760   7.093  0.5470 -1.3716  0.5910
   67MOL   C11838530   4.736   6.488   7.119 -0.3728 -0.0993 -0.1858
   67MOL   C11938531   4.668   6.375   7.044 -0.5703  0.1345 -0.0257
   67MOL   O12038532   4.608   6.423   6.927 -0.2367 -0.2744  0.2913
   67MOL   C12138533   4.570   6.292   7.127 -0.1915 -0.0008  0.2842
   67MOL   O12238534   4.539   6.175   7.060 -0.0845 -0.0642 -0.2351
   67MOL   C12338535   4.422   6.110   7.104  0.0260 -0.5359  0.3363
   67MOL   C12438536   4.392   5.974   7.026  0.6325  0.1295  0.1555
   67MOL   C12538537   4.497   5.874   7.051 -0.6153  0.2677 -0.8580
   67MOL   O12638538   4.453   5.747   7.006  0.1620 -0.1815 -0.1176
   67MOL   C12738539   4.529   5.647   7.066 -0.1661 -0.3930 -0.2884
   67MOL   O12838540   4.662   5.649   7.020 -0.0296 -0.2824  0.0331
   67MOL   C12938541   4.474   5.502   7.035 -1.2186  0.1580 -0.4855
   67MOL   O13038542   4.348   5.494   7.090  0.4913  0.8099  0.1511
   67MOL   H13138543   4.818   6.536   7.065 -1.3494  1.1098 -0.6061
   67MOL   H13238544   4.783   6.454   7.211  0.7426  1.9273  0.0276
   67MOL   H13338545   4.746   6.303   7.019  0.5245  0.2979  2.7472
   67MOL   H13438546   4.517   6.435   6.951 -0.1995 -1.7095  1.2607
   67MOL   H13538547   4.604   6.253   7.223  1.4866  1.0707  0.1552
   67MOL   H13638548   4.477   6.343   7.152 -0.1542  0.8580 -1.2494
   67MOL   H13738549   4.339   6.176   7.080 -0.4639 -1.0819  0.5313
   67MOL   H13838550   4.430   6.103   7.212 -0.8652 -0.1488  0.4296
   67MOL   H13938551   4.372   5.994   6.921 -1.1232  1.4088  0.7000
   67MOL   H14038552   4.300   5.937   7.070  0.2096  1.2158  0.1956
   67MOL   H14138553   4.593   5.906   7.009 -0.0544 -0.1727  0.0808
   67MOL   H14238554   4.509   5.877   7.159 -3.5676  1.7542 -0.5425
   67MOL   H14338555   4.525   5.660   7.174 -1.9135 -1.4264 -0.2062
   67MOL   H14438556   4.718   5.697   7.079  1.5748 -4.7567  2.4306
   67MOL   H14538557   4.470   5.497   6.926  0.6868  2.3875 -0.7163
   67MOL   H14638558   4.540   5.426   7.076 -1.3313  1.1298  1.5893
   67MOL   C14738559   4.264   5.397   7.024  0.2225  0.7982  0.1302
   67MOL   C14838560   4.132   5.381   7.090  0.3959 -0.8180  0.2284
   67MOL   O14938561   4.152   5.312   7.211  0.1463 -0.8362  0.3959
   67MOL   C15038562   4.033   5.296   7.012 -0.8223 -1.0818  0.2815
   67MOL   O15138563   3.903   5.344   7.022 -1.0946  0.1049 -0.1263
   67MOL   C15238564   3.805   5.263   6.952 -0.1731  0.0243 -0.3788
   67MOL   C15338565   3.673   5.333   6.951 -0.4596  0.1218 -0.2524
   67MOL   C15438566   3.672   5.463   6.869 -0.1973  0.2549  0.1556
   67MOL   O15538567   3.530   5.477   6.842  0.1183 -0.2559 -0.4673
   67MOL   C15638568   3.485   5.568   6.747  0.2484 -0.0014  0.4514
   67MOL   O15738569   3.485   5.698   6.796 -0.1150  0.0300 -0.4083
   67MOL   C15838570   3.352   5.526   6.692 -0.4394 -0.8052 -0.4382
   67MOL   O15938571   3.252   5.528   6.790  0.2719 -0.0723 -0.1343
   67MOL   H16038572   4.306   5.296   7.018 -0.7327  0.5286 -2.6436
   67MOL   H16138573   4.240   5.431   6.923 -1.5982 -1.5671 -0.2818
   67MOL   H16238574   4.087   5.479   7.103  0.2145 -0.9531  0.6194
   67MOL   H16338575   4.232   5.349   7.244 -0.2192 -0.9871  1.4667
   67MOL   H16438576   4.061   5.287   6.907 -1.3566 -1.3356  0.1563
   67MOL   H16538577   4.042   5.191   7.040 -0.5007 -0.9150  0.7977
   67MOL   H16638578   3.802   5.167   7.004 -2.8053 -0.3970 -1.2792
   67MOL   H16738579   3.838   5.239   6.851  1.3438 -2.3430  0.6341
   67MOL   H16838580   3.646   5.338   7.056  0.9353  0.4271  0.1016
   67MOL   H16938581   3.599   5.262   6.914 -0.8645  0.6767 -0.5296
   67MOL   H17038582   3.705   5.549   6.927 -1.8632  2.5983 -2.2620
   67MOL   H17138583   3.738   5.468   6.784 -0.5279  1.8902 -0.0105
   67MOL   H17238584   3.555   5.559   6.664 -1.4070  0.1324 -0.9618
   67MOL   H17338585   3.410   5.702   6.853 -0.8207 -0.3554 -1.3095
   67MOL   H17438586   3.327   5.583   6.603  1.3827 -0.7943 -0.9539
   67MOL   H17538587   3.362   5.426   6.651 -3.2265 -1.2322 -0.1661
   67MOL   C17638588   3.116   5.544   6.736  0.4340 -0.8496 -0.1214
   67MOL   C17738589   3.050   5.405   6.718  0.0572 -0.0257 -0.0579
   67MOL   O17838590   3.054   5.359   6.580  0.4441  0.0191  0.5512
   67MOL   C17938591   2.903   5.417   6.765  0.1228 -0.2043  0.0918
   67MOL   O18038592   2.838   5.540   6.709  0.1132 -0.6940  0.2029
   67MOL   C18138593   2.697   5.542   6.744 -0.2475  0.3641 -0.4319
   67MOL   C18238594   2.619   5.648   6.674 -0.5262 -0.2258  1.2022
   67MOL   C18338595   2.613   5.622   6.522 -0.0502  0.7088 -0.5525
   67MOL   O18438596   2.542   5.734   6.475  0.2024  0.0038  0.2667
   67MOL   C18538597   2.538   5.742   6.338 -0.2369 -0.9794  0.4194
   67MOL   O18638598   2.667   5.771   6.275  0.3918 -0.2406 -0.2221
   67MOL   C18738599   2.451   5.870   6.314 -0.3264  0.3513 -0.3502
   67MOL   O18838600   2.312   5.831   6.310  0.2774 -0.2686  0.3402
   67MOL   H18938601   3.100   5.612   6.652 -0.0577 -1.2489 -0.3577
   67MOL   H19038602   3.063   5.593   6.818  0.3969  1.9097 -1.7319
   67MOL   H19138603   3.104   5.329   6.774 -0.2371  0.5435  0.9927
   67MOL   H19238604   2.993   5.411   6.530  1.6219  2.7493  1.8234
   67MOL   H19338605   2.854   5.321   6.747 -1.4719  0.6814 -0.4518
   67MOL   H19438606   2.903   5.424   6.874  1.0268 -1.0612  0.1514
   67MOL   H19538607   2.687   5.557   6.852 -2.2333 -1.5952 -0.3137
   67MOL   H19638608   2.650   5.449   6.712 -0.4745  1.3319 -2.9718
   67MOL   H19738609   2.654   5.748   6.701 -1.1809  0.5653 -0.7946
   67MOL   H19838610   2.514   5.640   6.704 -1.2686  0.0187 -1.1973
   67MOL   H19938611   2.715   5.617   6.484  0.6561  0.1900  1.3640
   67MOL   H20038612   2.570   5.525   6.499 -2.4642  1.3346  1.0983
   67MOL   H20138613   2.496   5.652   6.291 -0.5170 -0.6885  0.1061
   67MOL   H20238614   2.679   5.699   6.215  0.0241  0.6142 -1.3351
   67MOL   H20338615   2.473   5.952   6.382  2.8459 -1.2445  0.6879
   67MOL   H20438616   2.485   5.919   6.222  0.0344 -1.1195 -1.0214
   67MOL   C20538617   2.232   5.945   6.283 -0.0183 -0.3855  0.1409
   67MOL   C20638618   2.090   5.892   6.310  0.8563 -0.7200 -0.4052
   67MOL   O20738619   2.084   5.914   6.452 -0.6826 -0.9213  0.1012
   67MOL   C20838620   1.977   5.973   6.252 -0.5488  0.3339  0.2164
   67MOL   O20938621   2.006   6.018   6.117  0.2163 -0.2248 -0.4608
   67MOL   C21038622   1.888   6.075   6.058  0.4298  0.0543 -0.2194
   67MOL   C21138623   1.907   6.118   5.911 -0.4216  0.5322  1.0220
   67MOL   C21238624   1.937   6.006   5.816 -0.1639 -0.4402 -0.0913
   67MOL   O21338625   1.939   6.051   5.680  0.7212  0.6844  0.2168
   67MOL   C21438626   1.978   5.971   5.574  0.3985 -0.4440 -0.6809
   67MOL   O21538627   2.109   6.002   5.525 -0.5444  0.0078  0.1398
   67MOL   C21638628   1.886   5.986   5.451  0.1827  0.0095 -0.2126
   67MOL   O21738629   1.905   5.882   5.359 -0.1872 -0.4667  0.0536
   67MOL   H21838630   2.244   5.974   6.179 -1.2451 -0.2821  0.0106
   67MOL   H21938631   2.259   6.034   6.341 -2.2439 -0.2660  1.0846
   67MOL   H22038632   2.089   5.786   6.286  1.6385 -0.6356 -0.8223
   67MOL   H22138633   2.143   5.854   6.495 -0.3081 -0.8355 -0.2849
   67MOL   H22238634   1.889   5.908   6.258  0.2990 -1.0212 -1.4717
   67MOL   H22338635   1.951   6.064   6.306 -0.0351 -0.2083  1.3989
   67MOL   H22438636   1.849   6.158   6.117  0.7643  0.7761 -0.9965
   67MOL   H22538637   1.805   6.005   6.061  1.5504 -1.2380  1.6878
   67MOL   H22638638   1.987   6.192   5.908  0.0309 -0.0025 -0.4556
   67MOL   H22738639   1.813   6.152   5.868 -0.1915  0.1324  0.1985
   67MOL   H22838640   2.027   5.958   5.855 -0.7107 -1.1671  0.2850
   67MOL   H22938641   1.870   5.922   5.832 -0.5119 -0.1480 -0.0059
   67MOL   H23038642   1.977   5.866   5.606 -0.8784  0.3286  1.9557
   67MOL   H23138643   2.100   5.999   5.431 -0.0200 -0.3530  0.1015
   67MOL   H23238644   1.787   5.999   5.495  1.7900  3.6784  2.5418
   67MOL   H23338645   1.896   6.085   5.406  2.3299  0.2704  0.7786
   67MOL   C23438646   1.805   5.874   5.257 -0.2823 -0.0529  0.1542
   67MOL   C23538647   1.829   5.766   5.151  0.1662 -0.0080  0.4940
   67MOL   O23638648   1.924   5.806   5.054 -0.4773  0.3910  0.2756
   67MOL   C23738649   1.705   5.722   5.070 -0.6555 -0.4308  0.2539
   67MOL   O23838650   1.592   5.681   5.155  0.2104  0.2544 -0.1980
   67MOL   C23938651   1.469   5.691   5.086 -0.5042  0.2033  0.0165
   67MOL   C24038652   1.356   5.616   5.159  0.2168  0.4592 -0.1128
   67MOL   C24138653   1.221   5.627   5.094 -0.1111 -0.1573  0.3339
   67MOL   O24238654   1.121   5.593   5.189 -0.1447 -0.0847  0.4113
   67MOL   C24338655   0.987   5.589   5.146 -0.0442  0.3740  0.2604
   67MOL   O24438656   0.943   5.710   5.097  1.0288 -0.1745 -0.1041
   67MOL   C24538657   0.904   5.529   5.263  0.1417  0.9002  0.5366
   67MOL   O24638658   0.772   5.490   5.214  0.4558 -0.4304 -0.6880
   67MOL   H24738659   1.719   5.853   5.321 -1.2173  1.4116 -0.5960
   67MOL   H24838660   1.788   5.974   5.216  0.2700 -0.5134 -1.2275
   67MOL   H24938661   1.861   5.675   5.204  0.8564 -0.0827 -0.0410
   67MOL   H25038662   1.915   5.897   5.030 -1.9495  0.5087  1.2208
   67MOL   H25138663   1.690   5.817   5.019  2.4377 -0.2243 -0.3485
   67MOL   H25238664   1.716   5.650   4.990 -0.9361  2.2653 -2.3031
   67MOL   H25338665   1.491   5.639   4.993  1.2062  0.5316  0.2180
   67MOL   H25438666   1.453   5.798   5.072 -0.3569  0.1053 -0.9540
   67MOL   H25538667   1.360   5.648   5.263 -1.1211  1.2021 -0.2914
   67MOL   H25638668   1.378   5.509   5.168 -2.1662 -0.2802 -2.4658
   67MOL   H25738669   1.197   5.728   5.059 -1.5173 -0.4363  0.4842
   67MOL   H25838670   1.203   5.562   5.008  0.6627  0.1900 -0.0973
   67MOL   H25938671   0.978   5.513   5.069  2.2550 -0.5977  0.8777
   67MOL   H26038672   0.901   5.757   5.167 -0.0853  0.6326 -1.2885
   67MOL   H26138673   0.957   5.438   5.289 -1.2262  0.4557  1.8187
   67MOL   H26238674   0.904   5.592   5.352  3.5507  0.4884  0.9021
   67MOL   C26338675   0.664   5.579   5.239 -0.0471 -0.1475 -0.2716
   67MOL   C26438676   0.533   5.516   5.189  0.0202  0.7933 -0.0894
   67MOL   O26538677   0.421   5.584   5.238  0.4011 -0.2005 -0.2084
   67MOL   C26638678   0.519   5.518   5.035 -0.1683  0.1724 -0.0940
   67MOL   O26738679   0.509   5.654   4.979  0.3432  0.2174 -0.4916
   67MOL   C26838680   0.617   5.681   4.882  0.1831 -1.2229  0.5667
   67MOL   C26938681   0.602   5.599   4.753  0.0891  0.4827 -0.3176
   67MOL   C27038682   0.731   5.614   4.670 -0.0017  0.3082 -0.9566
   67MOL   O27138683   0.725   5.570   4.535 -0.2621  0.1529  0.1871
   67MOL   C27238684   0.698   5.673   4.447  0.0973 -0.4863  0.4292
   67MOL   O27338685   0.814   5.755   4.438 -0.7023 -0.0038 -0.2667
   67MOL   C27438686   0.659   5.618   4.310 -0.0067  0.2617  0.0201
   67MOL   O27538687   0.522   5.596   4.296 -0.1275  0.6206 -0.1154
   67MOL   H27638688   0.681   5.682   5.207 -3.0792 -0.0930 -1.8570
   67MOL   H27738689   0.657   5.591   5.347  1.0579 -1.6126 -0.0124
   67MOL   H27838690   0.529   5.411   5.220  0.0821  0.5094 -1.0361
   67MOL   H27938691   0.449   5.669   5.206 -0.6552 -0.4284 -1.8250
   67MOL   H28038692   0.608   5.472   4.993  1.4992  3.4371 -0.3207
   67MOL   H28138693   0.446   5.451   4.989  1.1076 -1.2869 -0.0002
   67MOL   H28238694   0.714   5.661   4.927  1.2080  2.6245  0.2466
   67MOL   H28338695   0.615   5.789   4.863  0.7076 -1.2204  0.5095
   67MOL   H28438696   0.520   5.644   4.697 -0.1122  1.0842  0.4530
   67MOL   H28538697   0.593   5.495   4.785 -0.0839  0.7219  0.4075
   67MOL   H28638698   0.780   5.712   4.678  0.8090 -0.2161  0.7149
   67MOL   H28738699   0.795   5.534   4.705 -1.8315 -0.6690  0.2221
   67MOL   H28838700   0.615   5.737   4.478  0.5912  0.0537  0.6656
   67MOL   H28938701   0.801   5.802   4.358 -2.3016 -1.5452 -0.9370
   67MOL   H29038702   0.668   5.693   4.231 -1.9973  0.7354  0.2113
   67MOL   H29138703   0.723   5.533   4.285 -1.0532 -0.1188 -1.4442
   67MOL   C29238704   0.467   5.481   4.357 -0.4479  0.3906  0.2247
   67MOL   C29338705   0.313   5.484   4.360 -0.0483  0.5183 -0.5244
   67MOL   O29438706   0.263   5.486   4.226  0.0461 -0.2542 -0.3388
   67MOL   C29538707   0.251   5.363   4.429  0.1459  0.2002 -0.5652
   67MOL   O29638708   0.134   5.406   4.492 -0.3596  0.1081 -0.4680
   67MOL   C29738709   0.064   5.310   4.567  0.0247  0.5059 -0.2296
   67MOL   C29838710   7.612   5.318   4.526 -0.0133 -0.2930 -0.1407
   67MOL   C29938711   7.545   5.192   4.574 -0.0612  0.3800  0.0291
   67MOL   O30038712   7.568   5.185   4.713  0.0577  0.4177 -0.1361
   67MOL   C30138713   7.528   5.072   4.782  0.7260  0.2265 -0.0075
   67MOL   O30238714   7.619   4.971   4.754 -1.0293 -0.5425 -0.4148
   67MOL   C30338715   7.518   5.087   4.932  0.2306  0.4812 -0.7776
   67MOL   O30438716   7.384   5.045   4.970  0.1348  0.1792  0.3910
   67MOL   H30538717   0.518   5.402   4.302  0.8439  1.5552 -0.2911
   67MOL   H30638718   0.495   5.461   4.460 -1.4373  0.8631  0.5905
   67MOL   H30738719   0.273   5.575   4.405 -3.0642 -1.8522  1.7811
   67MOL   H30838720   0.308   5.563   4.192 -1.1796  1.0565  0.9603
   67MOL   H30938721   0.223   5.286   4.356 -0.0976  1.4446 -1.8146
   67MOL   H31038722   0.309   5.323   4.511  0.0616  1.2328 -0.0011
   67MOL   H31138723   0.075   5.331   4.673 -1.7307  0.8424 -0.0945
   67MOL   H31238724   0.100   5.209   4.545  0.2336  0.8555 -1.5567
   67MOL   H31338725   7.591   5.346   4.423 -0.9172  0.8108  0.3289
   67MOL   H31438726   7.567   5.406   4.573 -0.6746 -0.1376 -1.0707
   67MOL   H31538727   7.439   5.210   4.556  0.4124  2.4484 -0.8081
   67MOL   H31638728   7.579   5.099   4.528  1.4055  1.2855 -0.7325
   67MOL   H31738729   7.428   5.048   4.747  1.4734 -0.2656 -1.8396
   67MOL   H31838730   0.007   5.006   4.785 -0.5309 -1.5447 -0.5788
   67MOL   H31938731   7.532   5.189   4.969  2.1267 -0.9602  2.7633
   67MOL   H32038732   7.591   5.022   4.981 -1.3660  0.7966  2.1864
   67MOL   C32138733   7.350   5.100   5.095 -0.4105 -0.1271  0.3297
   67MOL   C32238734   7.217   5.044   5.156 -0.0827 -0.0212 -0.9954
   67MOL   O32338735   7.233   4.926   5.230 -0.3876 -0.1345 -0.0916
   67MOL   C32438736   7.155   5.140   5.254  0.6520 -0.6842  0.1542
   67MOL   O32538737   7.140   5.274   5.209 -0.0957  0.8137 -0.0510
   67MOL   C32638738   7.017   5.285   5.128 -0.1317 -0.2339 -0.8630
   67MOL   C32738739   6.995   5.430   5.079  0.0260 -0.0386  0.2348
   67MOL   C32838740   7.111   5.479   4.987  0.0361 -0.0925  0.4977
   67MOL   O32938741   7.116   5.395   4.874  0.0042 -0.5551 -0.1848
   67MOL   C33038742   7.217   5.431   4.795 -0.1936 -0.9407  0.6737
   67MOL   O33138743   7.350   5.387   4.832 -0.6411 -0.1152 -0.1060
   67MOL   C33238744   7.192   5.373   4.656  0.1412  0.3691  0.3767
   67MOL   O33338745   7.183   5.233   4.658 -0.4690  0.1197 -0.2764
   67MOL   H33438746   7.330   5.204   5.069 -0.8514 -0.1093  0.7100
   67MOL   H33538747   7.435   5.086   5.162 -0.7167 -0.8571  0.5723
   67MOL   H33638748   7.153   5.020   5.071 -0.9814 -2.2020  0.2522
   67MOL   H33738749   7.274   4.868   5.168 -0.1922 -0.6034  0.4754
   67MOL   H33838750   7.234   5.151   5.329 -0.2137  0.7985  0.8967
   67MOL   H33938751   7.061   5.104   5.295  0.7879 -1.7807 -0.4859
   67MOL   H34038752   6.931   5.260   5.192 -0.4234  0.5659 -0.9408
   67MOL   H34138753   7.028   5.222   5.040  1.0955 -0.8595 -0.2796
   67MOL   H34238754   6.904   5.432   5.019  0.8321  0.5477 -0.9720
   67MOL   H34338755   6.965   5.504   5.153 -1.0694 -1.8792  1.6763
   67MOL   H34438756   7.073   5.578   4.965 -3.0001 -0.6694  2.8425
   67MOL   H34538757   7.207   5.482   5.039 -0.3251 -1.9939  1.3267
   67MOL   H34638758   7.226   5.539   4.788 -2.4525 -0.6642  1.8963
   67MOL   H34738759   7.350   5.294   4.812 -1.4535 -0.1129 -0.1108
   67MOL   H34838760   7.102   5.420   4.617 -0.0645  0.2127  0.6502
   67MOL   H34938761   7.272   5.402   4.589 -1.0868  1.2114 -0.7616
   67MOL   C35038762   7.137   5.170   4.540  0.4033  0.9372  0.0913
   67MOL   C35138763   7.131   5.020   4.552 -0.1391 -0.2987 -0.2754
   67MOL   O35238764   7.259   4.964   4.541  0.3349  0.3600  0.2886
   67MOL   C35338765   7.048   4.968   4.670  0.0890  0.3376 -0.4012
   67MOL   O35438766   7.047   4.821   4.672 -0.6078 -0.0723 -0.1333
   67MOL   C35538767   6.947   4.772   4.759 -0.0307 -0.6573 -0.2674
   67MOL   C35638768   6.808   4.781   4.700 -0.2533  0.5716  0.5071
   67MOL   C35738769   6.701   4.703   4.775 -0.0863  0.2883 -0.6770
   67MOL   O35838770   6.675   4.749   4.909  0.0252 -0.1558 -0.1115
   67MOL   C35938771   6.572   4.686   4.979 -0.8872  0.6001 -0.2924
   67MOL   O36038772   6.607   4.558   5.023  0.1035  0.3686 -0.0068
   67MOL   C36138773   6.513   4.770   5.096 -0.2604 -0.6696 -0.1299
   67MOL   O36238774   6.612   4.796   5.197  0.2739  0.0839 -0.5994
   67MOL   H36338775   7.192   5.195   4.449  0.9778  0.1447  0.2227
   67MOL   H36438776   7.040   5.212   4.512  0.1753  0.9619  0.9266
   67MOL   H36538777   7.078   4.983   4.464  0.0730  1.1426 -1.0242
   67MOL   H36638778   7.260   4.870   4.549  2.3131  0.0385 -2.9514
   67MOL   H36738779   7.072   5.007   4.769 -0.9055  0.8088 -0.3428
   67MOL   H36838780   6.952   5.011   4.643  1.1903  1.6795 -2.2678
   67MOL   H36938781   6.965   4.813   4.859 -1.2825 -0.0674 -0.2759
   67MOL   H37038782   6.970   4.666   4.768  1.1065 -0.5416 -1.6241
   67MOL   H37138783   6.818   4.739   4.600  2.0184  0.3243  0.8085
   67MOL   H37238784   6.779   4.885   4.685  0.3197  0.8190  1.0691
   67MOL   H37338785   6.608   4.698   4.718 -1.2361 -0.9966  1.3065
   67MOL   H37438786   6.735   4.602   4.794 -0.9843  0.2576  0.8378
   67MOL   H37538787   6.494   4.671   4.905 -1.5528 -0.9625  0.6983
   67MOL   H37638788   6.649   4.563   5.108 -0.3523 -1.7221  0.3753
   67MOL   H37738789   6.488   4.865   5.049  0.2697 -0.3995  0.1448
   67MOL   H37838790   6.423   4.722   5.135  0.5365 -1.3415  0.9074
   67MOL   C37938791   6.605   4.924   5.263  0.6860 -0.4927 -0.1982
   67MOL   C38038792   6.741   4.951   5.336  0.1774  0.5566  0.5264
   67MOL   O38138793   6.742   5.091   5.352 -0.0545  0.3332 -0.1846
   67MOL   C38238794   6.760   4.871   5.462  0.4274  0.1382 -0.0526
   67MOL   O38338795   6.894   4.881   5.504 -0.4431  0.2077  0.9542
   67MOL   C38438796   6.950   4.768   5.565  0.3473 -0.3498  0.7556
   67MOL   C38538797   7.080   4.806   5.638  0.3850  0.1114  0.2474
   67MOL   C38638798   7.198   4.827   5.549 -0.3742  0.5175  0.4145
   67MOL   O38738799   7.310   4.886   5.610 -0.6782 -0.3092  0.6108
   67MOL   C38838800   7.430   4.898   5.526  0.2822  0.5216  0.8251
   67MOL   O38938801   7.431   5.011   5.442  0.3108  0.6625 -0.0998
   67MOL   C39038802   7.553   4.905   5.610 -0.0610  0.2930 -0.0280
   67MOL   O39138803   7.600   4.771   5.642  0.1143 -0.1287  0.2575
   67MOL   H39238804   6.520   4.912   5.330 -0.1639  0.1123 -1.1535
   67MOL   H39338805   6.582   5.011   5.201  1.0613 -1.9145 -2.3948
   67MOL   H39438806   6.821   4.927   5.267  0.4820 -0.7398  1.3121
   67MOL   H39538807   6.819   5.113   5.402  0.2101 -2.4094  0.6649
   67MOL   H39638808   6.694   4.905   5.541 -0.5984  1.4671 -1.4447
   67MOL   H39738809   6.730   4.769   5.436 -0.4761 -0.2771  2.4561
   67MOL   H39838810   6.964   4.686   5.496  0.0914 -1.0955  1.5861
   67MOL   H39938811   6.877   4.742   5.642  1.7366  0.4289  2.3884
   67MOL   H40038812   7.105   4.729   5.711 -0.6364 -0.4358  0.0286
   67MOL   H40138813   7.062   4.900   5.690  2.1564  0.8928 -0.5064
   67MOL   H40238814   7.229   4.731   5.507 -0.7325  0.3985  0.4279
   67MOL   H40338815   7.165   4.890   5.466  0.8984 -0.2808 -0.7354
   67MOL   H40438816   7.439   4.810   5.462  0.9895  0.9728  0.3058
   67MOL   H40538817   7.356   4.997   5.386 -1.2674 -2.0156  2.5697
   67MOL   H40638818   7.622   4.970   5.557 -0.8128  1.2635  0.1761
   67MOL   H40738819   7.531   4.963   5.699 -2.6141 -0.0993 -0.3495
   67MOL   C40838820   0.042   4.784   5.690 -0.1681 -0.2675  0.1577
   67MOL   C40938821   0.082   4.634   5.731  0.0892  0.2681  0.2042
   67MOL   O41038822   0.219   4.630   5.768  0.1469  0.1640 -0.1251
   67MOL   C41138823   0.061   4.526   5.614 -0.5319  0.2106  0.1686
   67MOL   O41238824   0.056   4.387   5.673  0.8815 -0.2486 -0.7163
   67MOL   C41338825   0.009   4.297   5.578  0.0211  0.1475  0.6658
   67MOL   C41438826   0.007   4.156   5.626 -0.3628 -0.2877  0.4377
   67MOL   C41538827   0.136   4.087   5.622 -0.4548  0.2456  0.3895
   67MOL   O41638828   0.169   4.067   5.489 -0.0205  0.5509 -0.2446
   67MOL   C41738829   0.252   3.961   5.465  0.3430 -0.0589 -0.0645
   67MOL   O41838830   0.375   3.972   5.529 -0.4872 -0.6886 -0.5373
   67MOL   C41938831   0.277   3.951   5.312 -0.1609 -0.5947 -0.1375
   67MOL   O42038832   0.350   3.837   5.279  0.3087 -0.1948  0.1599
   67MOL   H42138833   0.061   4.851   5.774 -0.3012  0.4372 -0.3595
   67MOL   H42238834   0.117   4.816   5.617  1.4082 -0.0024  1.8465
   67MOL   H42338835   0.025   4.589   5.812  0.0362 -0.3112 -0.1532
   67MOL   H42438836   0.271   4.663   5.697  3.3931 -2.5052  0.8770
   67MOL   H42538837   7.660   4.555   5.569 -0.4148 -0.8927 -0.8113
   67MOL   H42638838   0.142   4.536   5.541 -0.7263  2.3780  0.2087
   67MOL   H42738839   7.600   4.322   5.553  0.2111 -0.5898 -0.9309
   67MOL   H42838840   0.078   4.306   5.493 -1.4193 -0.1894 -0.5528
   67MOL   H42938841   7.631   4.096   5.569  0.5545 -0.3944 -0.5987
   67MOL   H43038842   7.663   4.165   5.727  1.9823 -0.3383  1.3694
   67MOL   H43138843   0.213   4.150   5.667 -0.0596  0.4909 -0.6033
   67MOL   H43238844   0.116   3.995   5.676  1.5167 -1.0690 -1.0289
   67MOL   H43338845   0.200   3.873   5.504  3.3865 -0.2827  3.7508
   67MOL   H43438846   0.426   4.024   5.469 -1.7067 -0.8621 -1.7577
   67MOL   H43538847   0.177   3.943   5.269 -0.4679  1.1855  0.2057
   67MOL   H43638848   0.327   4.043   5.282 -0.1720 -0.0648  1.3947
   67MOL   C43738849   0.367   3.826   5.138  0.2537 -0.2439 -0.8250
   67MOL   C43838850   0.442   3.697   5.103 -0.3824  0.5930  0.0919
   67MOL   O43938851   0.515   3.708   4.980  0.7175  0.6012 -0.6276
   67MOL   C44038852   0.339   3.586   5.072  0.6489 -0.3454 -0.3343
   67MOL   O44138853   0.404   3.465   5.077  0.2247  0.1807  0.2059
   67MOL   C44238854   0.336   3.367   5.000  0.2538 -0.1528 -0.5003
   67MOL   C44338855   0.424   3.255   4.947  0.4240  0.8443 -0.6170
   67MOL   C44438856   0.517   3.292   4.833  0.2419  0.3217  0.3626
   67MOL   O44538857   0.448   3.322   4.711 -0.5443  0.4354  0.0971
   67MOL   C44638858   0.525   3.395   4.625  0.5617  0.3961  0.5168
   67MOL   O44738859   0.647   3.335   4.601  0.1120  0.4768 -0.1385
   67MOL   C44838860   0.535   3.539   4.681 -0.3670 -0.3347 -0.5989
   67MOL   O44938861   0.527   3.617   4.569  0.1167 -0.2287  0.2392
   67MOL   H45038862   0.272   3.815   5.086 -2.7095  2.6158  3.6427
   67MOL   H45138863   0.435   3.900   5.096  1.9065  0.0006  2.1394
   67MOL   H45238864   0.503   3.659   5.186 -0.3088 -0.0788 -0.2659
   67MOL   H45338865   0.608   3.722   4.992  0.5664  1.7286 -0.6965
   67MOL   H45438866   0.261   3.578   5.148  1.5818 -1.1413  0.5520
   67MOL   H45538867   0.278   3.603   4.983  0.0132 -1.0130 -0.0311
   67MOL   H45638868   0.281   3.394   4.910  0.7850 -1.7687 -1.3183
   67MOL   H45738869   0.263   3.308   5.055 -0.3020 -0.1206 -1.1860
   67MOL   H45838870   0.357   3.173   4.920  1.6844 -0.6997  0.8392
   67MOL   H45938871   0.480   3.209   5.029 -1.1129 -1.0327 -0.5702
   67MOL   H46038872   0.596   3.362   4.864 -0.6616  1.5763 -0.1231
   67MOL   H46138873   0.578   3.207   4.804 -0.6365 -0.8260  1.8450
   67MOL   H46238874   0.466   3.395   4.534 -0.4781 -0.4038  1.1745
   67MOL   H46338875   0.629   3.268   4.536  0.1268 -0.7243  1.0680
   67MOL   H46438876   0.446   3.555   4.742  0.5330 -1.0021  0.9305
   67MOL   H46538877   0.632   3.545   4.731 -0.4813 -0.9594 -0.2935
   67MOL   C46638878   0.452   3.740   4.593  0.3966 -0.6514 -0.2380
   67MOL   C46738879   0.533   3.852   4.658 -0.6482  0.4970 -0.2291
   67MOL   O46838880   0.626   3.863   4.550  0.0366  0.3458  0.0956
   67MOL   C46938881   0.461   3.988   4.659 -0.3644 -0.5210  0.7414
   67MOL   O47038882   0.519   4.083   4.749  0.0161 -0.3034 -0.0520
   67MOL   C47138883   0.431   4.191   4.770  0.5156  0.1532 -0.3651
   67MOL   C47238884   0.494   4.319   4.825  0.1221 -0.5477 -0.1093
   67MOL   C47338885   0.594   4.297   4.936  0.2171  0.1352  0.3498
   67MOL   O47438886   0.641   4.430   4.961 -0.1983 -0.1003 -0.4917
   67MOL   C47538887   0.754   4.449   5.044 -0.8153 -0.3283  0.1671
   67MOL   O47638888   0.773   4.588   5.072  0.1814 -0.3386 -0.0561
   67MOL   C47738889   0.885   4.399   4.992  0.0409 -1.0363 -0.4641
   67MOL   O47838890   0.900   4.264   5.020 -0.3889 -0.3882 -0.3046
   67MOL   H47938891   0.373   3.722   4.666  1.1662 -0.2096  0.7126
   67MOL   H48038892   0.409   3.771   4.498  2.9229 -1.3817 -1.6637
   67MOL   H48138893   0.587   3.826   4.749  0.5456  2.6853 -0.2928
   67MOL   H48238894   0.646   3.774   4.527 -0.2088  0.7412 -1.6666
   67MOL   H48338895   0.461   4.042   4.564  0.4368 -0.9967  0.4613
   67MOL   H48438896   0.361   3.957   4.687 -0.1861 -0.8674  0.9952
   67MOL   H48538897   0.371   4.160   4.855  1.5075  0.0676  0.3088
   67MOL   H48638898   0.361   4.219   4.691 -0.9270 -0.7039  0.5889
   67MOL   H48738899   0.420   4.395   4.851  0.6193  0.0336 -0.3527
   67MOL   H48838900   0.558   4.342   4.740 -0.8164 -2.0278 -1.2278
   67MOL   H48938901   0.542   4.258   5.023 -1.0703  1.0340  0.0131
   67MOL   H49038902   0.681   4.244   4.898  1.7566  1.9444  1.2962
   67MOL   H49138903   0.739   4.393   5.136  0.7267 -1.7397 -0.4174
   67MOL   H49238904   0.808   4.627   4.994 -1.0596  0.3822 -0.2750
   67MOL   H49338905   0.906   4.439   4.893  1.3136 -0.0615  0.1852
   67MOL   H49438906   0.961   4.453   5.049  0.2920  1.1042 -2.7525
   67MOL   C49538907   0.962   4.198   4.908 -0.3587  0.7489  0.5039
   67MOL   C49638908   0.977   4.051   4.921 -0.2183 -0.7569  0.0163
   67MOL   O49738909   0.855   3.996   4.893  0.6406 -0.1978 -0.4036
   67MOL   C49838910   1.075   3.985   4.821  0.3995 -0.0751  0.4857
   67MOL   O49938911   1.098   3.852   4.866  0.4250 -0.4791  0.0009
   67MOL   C50038912   1.196   3.776   4.795  0.3629 -0.1789 -0.3194
   67MOL   C50138913   1.146   3.735   4.662 -0.2095 -0.0069 -0.2086
   67MOL   C50238914   1.003   3.682   4.656  0.4353  0.3051  0.0156
   67MOL   O50338915   0.990   3.640   4.527  0.4335 -0.5499  0.1362
   67MOL   C50438916   0.881   3.569   4.498  0.1205 -0.4190 -1.0171
   67MOL   O50538917   0.894   3.441   4.547  0.2302 -0.1055 -0.0500
   67MOL   C50638918   0.859   3.583   4.352  0.0305  0.0229 -0.0806
   67MOL   O50738919   0.803   3.709   4.334  0.0915  0.0767  0.0296
   67MOL   H50838920   1.059   4.239   4.881  0.0008 -0.2179  0.3443
   67MOL   H50938921   0.894   4.212   4.824  0.9391  0.6997 -0.5551
   67MOL   H51038922   1.007   4.021   5.022  2.5729 -0.0875 -0.5750
   67MOL   H51138923   0.831   4.031   4.809  1.7328  0.0907 -0.6026
   67MOL   H51238924   1.027   3.972   4.724 -0.8765 -1.3211  1.2602
   67MOL   H51338925   1.165   4.044   4.808  0.2612  0.0282 -0.0396
   67MOL   H51438926   1.208   3.690   4.862 -1.0356  0.8709  1.3552
   67MOL   H51538927   1.298   3.815   4.796  0.3775 -0.1559  2.9093
   67MOL   H51638928   1.199   3.646   4.626  0.0302  0.0205  0.0801
   67MOL   H51738929   1.159   3.823   4.600  2.2901  0.6938  1.2396
   67MOL   H51838930   1.000   3.605   4.733 -0.4305 -0.8463 -1.1683
   67MOL   H51938931   0.923   3.752   4.680  0.2377 -0.7327  2.5450
   67MOL   H52038932   0.791   3.607   4.546  1.0726  2.3558 -1.3128
   67MOL   H52138933   0.810   3.402   4.568 -0.1528  0.4044 -0.6190
   67MOL   H52238934   0.952   3.564   4.298 -0.3918 -1.7733 -0.2163
   67MOL   H52338935   0.778   3.516   4.323 -1.2449  1.2996  0.4970
   67MOL   C52438936   0.807   3.748   4.201 -0.9307  0.1420 -0.2431
   67MOL   C52538937   0.764   3.892   4.191 -0.1459  0.2131 -0.4444
   67MOL   O52638938   0.636   3.904   4.247  0.2612  0.0761 -0.1511
   67MOL   C52738939   0.745   3.940   4.048 -0.2038  0.3306 -0.3468
   67MOL   O52838940   0.818   4.056   4.010  0.4995 -0.1377 -0.1256
   67MOL   C52938941   0.774   4.176   4.075  0.2408 -0.2073  0.3159
   67MOL   C53038942   0.837   4.301   4.009  0.4702 -0.0658 -0.2091
   67MOL   C53138943   0.887   4.406   4.111 -0.4837 -0.3433 -0.0249
   67MOL   O53238944   0.782   4.482   4.175  0.4480  0.7280  0.5544
   67MOL   C53338945   0.823   4.607   4.212  0.5984  0.1681 -0.7915
   67MOL   O53438946   0.813   4.695   4.097 -0.4789  0.4870  0.0832
   67MOL   C53538947   0.722   4.665   4.314  0.1229  0.6653  0.2782
   67MOL   O53638948   0.770   4.645   4.441  0.1723 -0.0386  0.0505
   67MOL   H53738949   0.743   3.687   4.137 -0.8774 -1.2409  1.0101
   67MOL   H53838950   0.905   3.744   4.154 -1.0649  2.5372 -0.8255
   67MOL   H53938951   0.833   3.954   4.248 -0.2964  0.2079 -0.2572
   67MOL   H54038952   0.646   3.856   4.328 -0.6756 -1.6322 -1.0071
   67MOL   H54138953   0.790   3.862   3.986  3.9553  2.0630  0.2926
   67MOL   H54238954   0.644   3.959   4.012 -1.1251 -1.0244  1.4423
   67MOL   H54338955   0.816   4.167   4.175 -2.2051  0.8770  1.4650
   67MOL   H54438956   0.666   4.185   4.068  0.3694 -0.0210 -1.9244
   67MOL   H54538957   0.767   4.342   3.935 -0.8564 -1.9397 -0.0361
   67MOL   H54638958   0.922   4.261   3.953  0.4963 -1.2404  0.6420
   67MOL   H54738959   0.953   4.366   4.188 -1.8601  0.7448  1.7843
   67MOL   H54838960   0.955   4.466   4.050  2.0661 -2.4490  0.6649
   67MOL   H54938961   0.922   4.619   4.256  0.2822 -2.3814  0.6986
   67MOL   H55038962   0.724   4.683   4.067  0.3879 -1.6747 -1.8342
   67MOL   H55138963   0.699   4.772   4.315 -1.1445  0.3878  1.2131
   67MOL   H55238964   0.623   4.621   4.306  0.3372 -0.1731  2.2289
   67MOL   C55338965   0.675   4.684   4.542 -0.0834 -0.1434 -0.2904
   67MOL   C55438966   0.729   4.650   4.682  0.2103 -0.5206  0.9536
   67MOL   O55538967   0.611   4.619   4.760  0.2046 -0.2472 -0.6262
   67MOL   C55638968   0.799   4.772   4.759 -0.2464 -0.0051  0.3231
   67MOL   O55738969   0.885   4.706   4.856  0.0741 -0.0309 -0.2115
   67MOL   C55838970   0.976   4.798   4.915  0.1704 -0.0280  0.4331
   67MOL   C55938971   1.073   4.739   5.008  0.2098 -0.2808 -0.3536
   67MOL   C56038972   1.168   4.842   5.062 -0.1648 -0.3700  0.2579
   67MOL   O56138973   1.249   4.903   4.956 -0.3452 -0.1193 -0.4657
   67MOL   C56238974   1.342   5.004   4.981 -0.0005 -0.2387  0.3160
   67MOL   O56338975   1.430   4.972   5.083 -0.4519 -0.0175 -0.0977
   67MOL   C56438976   1.418   4.999   4.855  0.0825 -0.1210  0.5705
   67MOL   O56538977   1.325   5.037   4.758 -0.3768  0.1377 -0.1188
   67MOL   H56638978   0.582   4.635   4.511  0.1743 -0.9142  0.1554
   67MOL   H56738979   0.657   4.791   4.536  2.3096  0.4250  1.9953
   67MOL   H56838980   0.800   4.567   4.672  1.2152  0.3589  0.6041
   67MOL   H56938981   0.633   4.539   4.806  0.6657  0.3983  0.2888
   67MOL   H57038982   0.853   4.821   4.678 -0.5099 -1.8298 -1.0041
   67MOL   H57138983   0.726   4.837   4.807  0.4063  0.9150  0.0838
   67MOL   H57238984   1.042   4.841   4.840  2.5998 -1.1944  1.8380
   67MOL   H57338985   0.918   4.878   4.961 -1.0000 -1.5477  1.6634
   67MOL   H57438986   1.143   4.667   4.965  0.0611 -0.6629  0.0458
   67MOL   H57538987   1.010   4.704   5.089  0.6546 -0.0906  0.0817
   67MOL   H57638988   1.099   4.920   5.093 -0.0253  0.3336 -1.1551
   67MOL   H57738989   1.227   4.799   5.143  2.0394  1.6103 -0.2522
   67MOL   H57838990   1.291   5.099   4.992  1.2997  0.9488 -3.2539
   67MOL   H57938991   1.515   5.008   5.063  0.5842 -2.6176 -0.5848
   67MOL   H58038992   1.505   5.064   4.855 -1.3922  1.9758 -2.5146
   67MOL   H58138993   1.449   4.895   4.845 -1.5432 -0.5409 -0.3237
   67MOL   H58238994   1.249   4.989   4.785  0.4305 -1.2422 -0.2373
   68MOL     C138995   3.898   4.896   3.835 -0.4416  0.3057 -1.1592
   68MOL     C238996   3.973   4.788   3.929 -0.2771  0.6218  0.6188
   68MOL     O338997   3.917   4.666   3.912  0.0629  0.1528 -0.2532
   68MOL     C438998   4.115   4.776   3.904  0.1461 -0.1422 -0.5719
   68MOL     O538999   4.175   4.714   4.015 -0.0215 -0.1789 -0.6767
   68MOL     C639000   4.307   4.669   4.000  0.5194  0.2358  0.0814
   68MOL     C739001   4.350   4.557   4.098 -0.4897  0.9958 -0.1778
   68MOL     C839002   4.490   4.500   4.072 -0.0648  0.0872  0.3876
   68MOL     O939003   4.510   4.428   4.190  0.0118 -0.8844 -0.1223
   68MOL    C1039004   4.637   4.365   4.195  0.1740  0.4661  0.3433
   68MOL    O1139005   4.649   4.258   4.102  0.2166  0.6942  0.2613
   68MOL    C1239006   4.635   4.281   4.330 -0.5095  0.5018  0.2862
   68MOL    O1339007   4.521   4.195   4.331 -0.2132  0.5186  0.0939
   68MOL    H1439008   3.791   4.901   3.857 -0.6967  1.0206 -2.4754
   68MOL    H1539009   3.929   4.864   3.735  0.8737  0.2083 -0.7184
   68MOL    H1639010   3.959   4.821   4.033 -0.7729  0.3293  0.6468
   68MOL    H1739011   3.963   4.595   3.953 -4.2025 -3.2178 -0.8768
   68MOL    H1839012   4.130   4.704   3.823 -0.0732 -0.1791 -0.5787
   68MOL    H1939013   4.159   4.874   3.885 -0.6540  0.6371  1.4466
   68MOL    H2039014   4.362   4.763   4.005 -0.0604  0.6119 -0.4344
   68MOL    H2139015   4.326   4.648   3.894  4.9394  1.0771  0.6211
   68MOL    H2239016   4.280   4.474   4.100 -0.1161  0.7092  1.9945
   68MOL    H2339017   4.353   4.601   4.198 -3.0091 -0.0154  0.3680
   68MOL    H2439018   4.501   4.440   3.982  2.8415  0.3996  0.4885
   68MOL    H2539019   4.565   4.578   4.073 -0.8827  0.8804  2.2726
   68MOL    H2639020   4.725   4.430   4.190  0.2358  0.3221 -0.5037
   68MOL    H2739021   4.585   4.194   4.129  3.0342 -2.2573  0.1361
   68MOL    H2839022   4.718   4.212   4.339 -2.7605 -2.0877  2.0345
   68MOL    H2939023   4.625   4.349   4.415 -1.9051  1.5172 -0.6542
   68MOL    H3039024   3.925   5.001   3.845 -0.3237  0.0887  0.8739
   68MOL    C3139025   4.454   4.163   4.449  0.1181  0.0808  0.4179
   68MOL    C3239026   4.525   4.047   4.514 -0.1950 -0.0352 -0.1115
   68MOL    O3339027   4.438   3.930   4.516  0.0563 -0.0720 -0.1119
   68MOL    C3439028   4.560   4.068   4.665 -0.5486 -0.6251  0.4365
   68MOL    O3539029   4.432   4.082   4.727 -0.2690  0.4988 -0.0464
   68MOL    C3639030   4.447   4.082   4.870 -0.1148  0.2975 -0.7977
   68MOL    C3739031   4.303   4.091   4.930 -0.6438 -0.0391 -0.0720
   68MOL    C3839032   4.290   4.067   5.083 -0.3352 -0.8262 -0.1693
   68MOL    O3939033   4.335   4.186   5.150  0.8619  0.4752  0.6056
   68MOL    C4039034   4.329   4.165   5.286  0.4304 -0.0943  0.4063
   68MOL    O4139035   4.203   4.192   5.335  0.2403 -0.5816 -0.2611
   68MOL    C4239036   4.435   4.262   5.351 -0.2170 -0.6554 -0.2777
   68MOL    O4339037   4.560   4.191   5.360 -0.5038 -0.3335 -0.3131
   68MOL    H4439038   4.440   4.248   4.515  0.0795  0.1529  0.3161
   68MOL    H4539039   4.356   4.125   4.420  0.7228 -1.0082 -0.2338
   68MOL    H4639040   4.610   4.011   4.455  1.7170  3.6421  0.2883
   68MOL    H4739041   4.391   3.940   4.598 -0.9945  0.9026 -0.8252
   68MOL    H4839042   4.610   3.977   4.698 -2.4047 -1.8577 -0.0845
   68MOL    H4939043   4.631   4.149   4.679 -0.7619 -0.9478  3.8321
   68MOL    H5039044   4.509   4.168   4.894  0.3282  0.4058 -2.2783
   68MOL    H5139045   4.503   3.994   4.899 -0.6181 -1.4735 -4.8756
   68MOL    H5239046   4.238   4.021   4.878 -2.9892  2.0253  0.0084
   68MOL    H5339047   4.269   4.191   4.906 -1.2197 -0.8652 -2.8223
   68MOL    H5439048   4.185   4.052   5.108 -0.4944  1.5192  0.7166
   68MOL    H5539049   4.355   3.986   5.116  0.7059 -0.5487 -1.4635
   68MOL    H5639050   4.347   4.060   5.313 -0.2646 -0.6202 -1.1510
   68MOL    H5739051   4.183   4.280   5.307  1.3699 -0.3401 -0.3124
   68MOL    H5839052   4.438   4.361   5.304 -0.3034 -0.1141  0.8505
   68MOL    H5939053   4.405   4.276   5.455 -0.0930  1.6723 -0.5213
   68MOL    C6039054   4.636   4.187   5.237 -0.8315  0.6548  0.4400
   68MOL    C6139055   4.787   4.159   5.257 -0.0558 -0.3163 -0.5339
   68MOL    O6239056   4.846   4.284   5.279 -0.2992 -0.3488 -0.0886
   68MOL    C6339057   4.857   4.088   5.140  0.4374 -0.6933 -0.1331
   68MOL    O6439058   4.983   4.035   5.187  0.1912  0.5649 -0.3854
   68MOL    C6539059   5.049   3.963   5.083  0.2652 -0.4767 -0.2249
   68MOL    C6639060   5.147   3.878   5.153 -0.5627  0.5200 -0.4049
   68MOL    C6739061   5.207   3.780   5.050 -0.6220  0.6362 -0.6644
   68MOL    O6839062   5.311   3.700   5.097  0.4253 -0.3372  0.1915
   68MOL    C6939063   5.271   3.580   5.168 -0.7789 -0.0110  0.6390
   68MOL    O7039064   5.221   3.479   5.080 -0.0900 -0.3767 -0.1399
   68MOL    C7139065   5.403   3.524   5.241 -0.0081 -0.0211 -0.3185
   68MOL    O7239066   5.366   3.455   5.359  0.2164  0.2216  0.6174
   68MOL    H7339067   4.625   4.290   5.203 -0.5044  0.6996  0.4608
   68MOL    H7439068   4.594   4.118   5.164  1.3851 -1.9591  1.5320
   68MOL    H7539069   4.811   4.112   5.352  0.1405 -0.3486 -0.5985
   68MOL    H7639070   4.938   4.288   5.257  0.1537  0.8927  1.9662
   68MOL    H7739071   4.791   4.010   5.101 -1.6341  0.7440  0.4313
   68MOL    H7839072   4.860   4.160   5.059 -0.4725  0.4161  0.7885
   68MOL    H7939073   5.100   4.035   5.020  1.9604 -2.3109 -1.0098
   68MOL    H8039074   4.984   3.895   5.028  0.0524 -0.4799  0.0286
   68MOL    H8139075   5.109   3.828   5.242 -0.7450  0.6073 -0.4336
   68MOL    H8239076   5.221   3.947   5.195  0.8997 -1.1644 -0.1555
   68MOL    H8339077   5.246   3.836   4.965  1.1739 -0.4517 -0.5957
   68MOL    H8439078   5.125   3.719   5.012 -1.2161 -0.2380  1.8738
   68MOL    H8539079   5.206   3.614   5.249  1.6316  1.6015  1.9687
   68MOL    H8639080   5.297   3.431   5.053  1.8022  3.0747 -1.2130
   68MOL    H8739081   5.464   3.481   5.162  0.4092  0.3892 -0.2221
   68MOL    H8839082   5.459   3.608   5.283 -0.9207  0.4723 -0.0812
   68MOL    C8939083   5.473   3.395   5.427  0.0541 -0.5347  0.4053
   68MOL    C9039084   5.423   3.335   5.559 -0.3313 -0.3082 -0.4566
   68MOL    O9139085   5.386   3.442   5.650  0.7865  0.2803 -0.1716
   68MOL    C9239086   5.338   3.214   5.531  0.3078  1.1937 -0.7027
   68MOL    O9339087   5.360   3.127   5.645  0.0342 -0.9047  0.0957
   68MOL    C9439088   5.317   2.993   5.635  0.1247 -0.0021 -0.1121
   68MOL    C9539089   5.171   2.975   5.683 -0.1137  0.2849  0.1445
   68MOL    C9639090   5.111   2.829   5.668 -0.2098  0.3079 -0.4656
   68MOL    O9739091   5.100   2.794   5.531 -0.9518  0.3253  1.2442
   68MOL    C9839092   5.051   2.661   5.511  0.0017 -0.5935  0.2093
   68MOL    O9939093   5.007   2.636   5.379  0.1386  0.3729 -0.2165
   68MOL   C10039094   5.160   2.563   5.545  0.3746 -0.0767  0.1027
   68MOL   O10139095   5.137   2.507   5.676  0.1097  0.0328 -0.5872
   68MOL   H10239096   5.546   3.468   5.460 -0.8062  0.9448 -0.8885
   68MOL   H10339097   5.530   3.332   5.360  0.4457  0.6272 -0.3669
   68MOL   H10439098   5.515   3.307   5.612 -0.8922 -2.5102 -0.6302
   68MOL   H10539099   5.299   3.468   5.623  0.6245  0.3137  0.3791
   68MOL   H10639100   5.235   3.243   5.507  0.3915  2.3290  0.2375
   68MOL   H10739101   5.378   3.160   5.446 -0.0626 -0.2949  0.0592
   68MOL   H10839102   5.381   2.940   5.706 -0.4084 -1.1519 -0.4767
   68MOL   H10939103   5.351   2.934   5.550  1.5821  0.1349  0.3579
   68MOL   H11039104   5.107   3.052   5.639 -1.4677 -0.9839 -0.1362
   68MOL   H11139105   5.164   3.004   5.787 -3.9880  0.8371 -0.1975
   68MOL   H11239106   5.166   2.758   5.729 -2.8994 -0.9271  0.5934
   68MOL   H11339107   5.008   2.833   5.704  0.0192 -1.2621  0.4193
   68MOL   H11439108   4.960   2.647   5.570 -0.7200  1.4178 -0.3750
   68MOL   H11539109   5.081   2.626   5.320  1.4466  0.2538  1.4222
   68MOL   H11639110   5.147   2.483   5.473 -1.9938  0.9974 -0.6957
   68MOL   H11739111   5.262   2.595   5.525  0.4954 -1.9512 -2.3688
   68MOL   C11839112   5.246   2.425   5.714 -0.3628  0.8995 -0.2741
   68MOL   C11939113   5.201   2.303   5.796 -0.4538  0.0833  0.7246
   68MOL   O12039114   5.112   2.230   5.715 -0.4675 -0.3184  0.1394
   68MOL   C12139115   5.120   2.350   5.923  0.1473  0.4672  0.3554
   68MOL   O12239116   5.072   2.238   5.991 -0.2045 -0.0772  0.0666
   68MOL   C12339117   4.976   2.277   6.094 -0.9415 -0.2648 -0.5096
   68MOL   C12439118   4.911   2.154   6.151  0.1342  0.3764 -0.4488
   68MOL   C12539119   4.862   2.056   6.040  0.5134  0.5282  0.1996
   68MOL   O12639120   4.792   1.951   6.101  0.1783 -0.2518 -0.1025
   68MOL   C12739121   4.867   1.832   6.120  0.2446 -0.7117 -0.5100
   68MOL   O12839122   4.879   1.758   5.995 -0.1824  0.6901 -0.7314
   68MOL   C12939123   4.793   1.746   6.227  0.1188 -1.0343  0.4814
   68MOL   O13039124   4.891   1.697   6.318  0.3549  0.2282  0.5601
   68MOL   H13139125   5.317   2.400   5.635 -0.3590 -1.3200  0.4051
   68MOL   H13239126   5.314   2.487   5.774  0.2885  0.4410 -0.5303
   68MOL   H13339127   5.285   2.239   5.822 -0.5721  0.1907  1.3845
   68MOL   H13439128   5.038   2.289   5.714 -0.4240 -0.2156  1.9168
   68MOL   H13539129   5.186   2.399   5.994 -1.9897  0.7725  2.1804
   68MOL   H13639130   5.051   2.432   5.901  0.2415  0.5142  0.2351
   68MOL   H13739131   4.910   2.356   6.058  0.0569  0.3525 -1.0312
   68MOL   H13839132   5.026   2.324   6.179  0.4323 -0.1247 -1.3817
   68MOL   H13939133   4.821   2.179   6.209 -0.0622  3.3032 -1.9396
   68MOL   H14039134   4.984   2.101   6.212  0.5792 -0.7008 -1.9015
   68MOL   H14139135   4.799   2.100   5.964  1.1055  0.4115 -0.3653
   68MOL   H14239136   4.947   2.023   5.980  1.3378  1.9258  0.5844
   68MOL   H14339137   4.965   1.864   6.153 -1.4967  1.3299  2.9691
   68MOL   H14439138   4.792   1.745   5.960 -0.3754  0.1061 -0.0507
   68MOL   H14539139   4.735   1.822   6.280  1.1674  2.2419 -2.8144
   68MOL   H14639140   4.723   1.671   6.191 -1.4788 -0.9593  3.3118
   68MOL   C14739141   4.837   1.648   6.444 -0.3347 -0.5706 -0.9946
   68MOL   C14839142   4.947   1.548   6.494 -0.5294 -0.4267  0.0865
   68MOL   O14939143   4.895   1.488   6.607  0.0940  0.2934  0.0307
   68MOL   C15039144   5.080   1.619   6.532  0.2379 -0.3824  0.6156
   68MOL   O15139145   5.048   1.728   6.617  0.0582 -0.2005  0.5286
   68MOL   C15239146   5.155   1.796   6.682  0.8933  0.0488  0.0205
   68MOL   C15339147   5.163   1.940   6.647  0.1094 -0.3593 -0.4569
   68MOL   C15439148   5.282   2.004   6.726 -0.6101  0.4037  0.3655
   68MOL   O15539149   5.406   1.959   6.683 -0.0462 -0.1748  0.0653
   68MOL   C15639150   5.513   2.030   6.732 -0.1547 -0.0212 -0.3608
   68MOL   O15739151   5.517   2.151   6.667 -0.0668 -0.1500  0.0240
   68MOL   C15839152   5.644   1.941   6.709 -0.5585  0.2736  0.2204
   68MOL   O15939153   5.763   1.985   6.782  0.0612  0.0605  0.2027
   68MOL   H16039154   4.746   1.590   6.428 -2.6737  2.5706  0.5274
   68MOL   H16139155   4.806   1.731   6.507  3.5948  0.1644  0.1272
   68MOL   H16239156   4.963   1.471   6.418 -1.3714 -0.3920 -0.1241
   68MOL   H16339157   4.902   1.553   6.675 -0.7622 -0.4131  0.8258
   68MOL   H16439158   5.153   1.552   6.578  0.2690 -0.9999 -0.3151
   68MOL   H16539159   5.131   1.660   6.444 -1.0490  2.2630  1.0629
   68MOL   H16639160   5.248   1.740   6.672  0.3296 -0.4933 -2.4474
   68MOL   H16739161   5.123   1.792   6.786  2.4795 -3.7998  0.4344
   68MOL   H16839162   5.072   1.992   6.677  0.8365 -0.5996  2.3840
   68MOL   H16939163   5.175   1.963   6.541  0.1358 -1.6024 -0.7261
   68MOL   H17039164   5.282   2.113   6.715 -0.9532  0.4325  0.6190
   68MOL   H17139165   5.269   1.998   6.834  1.9120  2.0268  0.8026
   68MOL   H17239166   5.497   2.055   6.837  0.2912  0.8291 -0.4864
   68MOL   H17339167   5.496   2.137   6.576  3.3141 -1.0792 -0.6522
   68MOL   H17439168   5.608   1.842   6.737 -1.9887  0.2246 -1.7196
   68MOL   H17539169   5.650   1.940   6.600 -1.4345  1.1569  0.1578
   68MOL   C17639170   5.874   1.907   6.752  0.1201  0.1693  0.1119
   68MOL   C17739171   5.990   1.924   6.853 -0.8886 -0.2939 -0.0366
   68MOL   O17839172   5.935   1.900   6.980  0.1560  0.4165  0.1707
   68MOL   C17939173   6.050   2.063   6.839 -0.2806  0.0367 -0.1785
   68MOL   O18039174   6.170   2.059   6.921 -0.1597 -0.3334  0.6468
   68MOL   C18139175   6.287   2.106   6.871  0.0152 -0.6481  0.4986
   68MOL   C18239176   6.352   1.997   6.778 -0.9122  0.5592  0.1457
   68MOL   C18339177   6.417   1.873   6.839 -0.0906 -0.0684  0.6878
   68MOL   O18439178   6.486   1.799   6.736 -0.5244 -0.0133  0.0043
   68MOL   C18539179   6.545   1.680   6.789  1.0584 -0.0499  0.8284
   68MOL   O18639180   6.662   1.706   6.855 -0.2546  0.1949  0.5009
   68MOL   C18739181   6.573   1.599   6.660 -0.0927  0.3464  0.5323
   68MOL   O18839182   6.446   1.547   6.616 -0.4127 -0.0281  0.1367
   68MOL   H18939183   5.909   1.933   6.653  2.6163  0.2096  0.9594
   68MOL   H19039184   5.845   1.802   6.747 -0.8500  0.5242 -2.2286
   68MOL   H19139185   6.075   1.857   6.839  0.7957  1.6075  0.7957
   68MOL   H19239186   5.866   1.964   6.972 -0.7314 -0.8004 -2.9174
   68MOL   H19339187   6.082   2.094   6.740  0.9837 -1.8725 -0.3914
   68MOL   H19439188   5.983   2.139   6.879  0.0489  0.9340 -1.3023
   68MOL   H19539189   6.362   2.112   6.949 -0.5316 -0.0601  0.9814
   68MOL   H19639190   6.278   2.205   6.825  0.6056 -0.4156  0.8729
   68MOL   H19739191   6.416   2.045   6.704 -1.9069  0.9124 -0.5045
   68MOL   H19839192   6.280   1.948   6.712 -1.2058  0.9499  0.1761
   68MOL   H19939193   6.500   1.912   6.898  1.6198  1.3582 -2.5025
   68MOL   H20039194   6.349   1.809   6.895  0.4937 -0.9304  0.4255
   68MOL   H20139195   6.475   1.628   6.854  0.4682 -0.9139 -0.4647
   68MOL   H20239196   6.734   1.712   6.794 -0.2330  0.3377  0.5405
   68MOL   H20339197   6.625   1.659   6.584  0.0176 -0.5988 -0.1451
   68MOL   H20439198   6.632   1.510   6.680 -0.0922  0.1754 -0.2301
   68MOL   C20539199   6.448   1.486   6.493 -0.1976  0.1135  0.9919
   68MOL   C20639200   6.320   1.406   6.462 -0.6435 -0.7433 -0.6024
   68MOL   O20739201   6.247   1.474   6.351  0.6622 -0.3587 -0.0174
   68MOL   C20839202   6.336   1.253   6.440  1.2116 -0.3574 -0.4067
   68MOL   O20939203   6.444   1.231   6.359  0.0474  0.6255  0.2817
   68MOL   C21039204   6.480   1.095   6.343  0.5230  0.5847 -0.7684
   68MOL   C21139205   6.616   1.066   6.410  0.3415 -0.2351  0.6083
   68MOL   C21239206   6.720   1.174   6.377  0.5974 -0.0825  0.4085
   68MOL   O21339207   6.852   1.125   6.404 -0.0325 -0.1487  0.0330
   68MOL   C21439208   6.950   1.198   6.339  0.7193 -0.2029  0.3088
   68MOL   O21539209   6.946   1.185   6.201  0.2528  0.1606  0.2277
   68MOL   C21639210   7.093   1.152   6.391 -0.6643 -0.5332  1.0740
   68MOL   O21739211   7.107   1.013   6.383  0.0533  0.5147  0.2331
   68MOL   H21839212   6.540   1.429   6.480 -0.7839 -0.9421  1.4168
   68MOL   H21939213   6.456   1.564   6.417 -0.5800 -0.9653 -0.1668
   68MOL   H22039214   6.250   1.407   6.546  0.8159  4.0059  0.7102
   68MOL   H22139215   6.308   1.476   6.278  0.2628  1.1453 -0.3038
   68MOL   H22239216   6.337   1.199   6.534 -2.2426  0.9882  0.4533
   68MOL   H22339217   6.245   1.213   6.396 -0.2595  0.5762  1.7560
   68MOL   H22439218   6.494   1.076   6.236  0.8309 -1.0330 -0.4605
   68MOL   H22539219   6.405   1.026   6.382  1.4903 -1.4041 -2.3443
   68MOL   H22639220   6.656   0.970   6.376  2.4487  0.2115  1.7295
   68MOL   H22739221   6.586   1.064   6.514 -0.9160 -1.0745  0.2464
   68MOL   H22839222   6.704   1.193   6.271  0.4918  0.5296  0.5354
   68MOL   H22939223   6.708   1.269   6.429 -5.1083  0.6353 -1.8942
   68MOL   H23039224   6.945   1.304   6.364 -1.7750  0.2908 -2.0903
   68MOL   H23139225   6.977   1.098   6.179  1.3710  0.8506 -1.0381
   68MOL   H23239226   7.178   1.208   6.352 -0.1835  0.5021  3.5391
   68MOL   H23339227   7.097   1.182   6.496 -0.2951  3.1524  0.0714
   68MOL   C23439228   7.231   0.972   6.441  0.0391 -0.0704  0.0158
   68MOL   C23539229   7.223   0.825   6.489 -1.2609  0.5182 -0.1936
   68MOL   O23639230   7.327   0.801   6.577 -0.2898 -0.1753  0.0635
   68MOL   C23739231   7.215   0.724   6.374  0.0504  0.3963 -0.0214
   68MOL   O23839232   7.130   0.620   6.413  0.0666  0.3346  0.2912
   68MOL   C23939233   7.090   0.537   6.303 -0.5063  0.4388  0.0577
   68MOL   C24039234   6.977   0.593   6.220 -0.2049 -0.2837  0.2059
   68MOL   C24139235   6.856   0.619   6.307 -0.4202  0.5269  0.6638
   68MOL   O24239236   6.738   0.626   6.232 -0.4439 -0.3843 -0.1391
   68MOL   C24339237   6.625   0.666   6.301 -0.9580  0.3387 -0.6022
   68MOL   O24439238   6.567   0.554   6.368  0.2658  0.3862  0.3166
   68MOL   C24539239   6.522   0.724   6.198 -0.2225  0.3903  0.8928
   68MOL   O24639240   6.545   0.860   6.155  0.2843  0.2093 -0.1332
   68MOL   H24739241   7.309   0.994   6.368  0.8375 -2.3394  0.1502
   68MOL   H24839242   7.253   1.038   6.525  2.3921  0.6018 -1.0906
   68MOL   H24939243   7.128   0.825   6.542 -0.1325 -3.8887  2.1062
   68MOL   H25039244   7.327   0.706   6.576 -0.7491 -0.1724 -0.3667
   68MOL   H25139245   7.187   0.769   6.279 -2.5274 -1.8920 -0.4096
   68MOL   H25239246   7.315   0.681   6.360  0.3724  0.6788  1.4101
   68MOL   H25339247   7.059   0.446   6.355  0.8843 -1.0863 -1.7395
   68MOL   H25439248   7.180   0.512   6.248  0.3377 -0.4247  1.7750
   68MOL   H25539249   6.946   0.520   6.145  0.1987  1.3264 -1.5403
   68MOL   H25639250   7.001   0.680   6.159  1.2133 -2.7590 -2.8826
   68MOL   H25739251   6.843   0.543   6.384  0.8665 -0.9979 -0.5821
   68MOL   H25839252   6.861   0.715   6.358 -1.5850 -1.1868  4.1299
   68MOL   H25939253   6.645   0.742   6.376  3.1430  0.8674 -2.1180
   68MOL   H26039254   6.623   0.528   6.439  0.4823 -0.9368 -0.3431
   68MOL   H26139255   6.508   0.652   6.118 -0.2556  0.5730  0.7318
   68MOL   H26239256   6.429   0.739   6.253 -0.0933  2.5541  0.5799
   68MOL   C26339257   6.668   0.865   6.079  0.4008 -0.2091 -0.5642
   68MOL   C26439258   6.694   1.004   6.018  0.3877  0.0481  0.3417
   68MOL   O26539259   6.831   1.017   5.976  0.6196  0.1366  1.0893
   68MOL   C26639260   6.608   1.019   5.899 -0.1786 -0.1044 -0.4794
   68MOL   O26739261   6.628   1.143   5.830  0.5049  0.4955  0.3256
   68MOL   C26839262   6.591   1.150   5.688  0.3050 -0.9595 -0.2493
   68MOL   C26939263   6.611   1.282   5.624 -0.0818 -0.3132 -0.4725
   68MOL   C27039264   6.580   1.293   5.470 -0.1236  0.4225 -0.8975
   68MOL   O27139265   6.608   1.427   5.411  0.8534  0.0771 -0.3004
   68MOL   C27239266   6.743   1.452   5.403 -0.5307  0.2072  0.1321
   68MOL   O27339267   6.789   1.357   5.309 -0.3289  0.3873 -0.7150
   68MOL   C27439268   6.748   1.583   5.345  0.4254 -0.0640 -0.8528
   68MOL   O27539269   6.724   1.675   5.447  0.3572 -0.7391  0.1703
   68MOL   H27639270   6.666   0.790   5.999  1.7471 -1.1970  0.2955
   68MOL   H27739271   6.749   0.846   6.150 -0.7687  1.7443  1.3453
   68MOL   H27839272   6.670   1.084   6.088 -2.6379  1.5978 -2.3532
   68MOL   H27939273   6.836   1.106   5.945  0.8983 -0.0807  0.4998
   68MOL   H28039274   6.632   0.938   5.830  2.1856  0.6591 -0.6287
   68MOL   H28139275   6.502   1.015   5.921 -0.3583 -3.4677 -1.6661
   68MOL   H28239276   6.483   1.136   5.676  0.3446 -1.4413 -0.0743
   68MOL   H28339277   6.645   1.074   5.632 -0.2963 -1.4332 -0.2043
   68MOL   H28439278   6.714   1.315   5.638 -0.5880  1.3641 -0.4769
   68MOL   H28539279   6.548   1.356   5.674 -0.8595 -0.8002 -0.7268
   68MOL   H28639280   6.636   1.216   5.418 -1.9336 -0.9330 -0.9167
   68MOL   H28739281   6.473   1.273   5.457 -0.7441  2.1294  1.2963
   68MOL   H28839282   6.802   1.453   5.495 -0.3552  1.2138  0.0163
   68MOL   H28939283   6.727   1.369   5.238  0.0710  0.5294 -1.0439
   68MOL   H29039284   6.849   1.612   5.316  0.8270  0.3174  0.8876
   68MOL   H29139285   6.673   1.585   5.265  0.1004  1.3651 -0.5300
   68MOL   C29239286   6.741   1.810   5.413 -0.3767  0.1502 -0.1587
   68MOL   C29339287   6.704   1.914   5.524  0.2467  0.4409  0.0317
   68MOL   O29439288   6.802   1.883   5.628 -0.1888  0.0771 -0.1363
   68MOL   C29539289   6.728   2.059   5.480  0.1694 -0.4161 -0.3613
   68MOL   O29639290   6.716   2.140   5.592 -0.2786 -0.1526 -0.3097
   68MOL   C29739291   6.802   2.254   5.604 -0.0819 -0.3567 -0.0688
   68MOL   C29839292   6.809   2.301   5.753  0.3410 -0.4680  0.3674
   68MOL   C29939293   6.933   2.250   5.826  0.0759  0.3256  0.4840
   68MOL   O30039294   6.889   2.296   5.954 -0.2045 -0.2336  0.1771
   68MOL   C30139295   6.955   2.238   6.062 -0.5687  0.0547 -0.3265
   68MOL   O30239296   7.090   2.289   6.075 -0.3722  0.1236  0.0873
   68MOL   C30339297   6.881   2.261   6.194 -0.3023 -0.1484 -0.0038
   68MOL   O30439298   6.863   2.398   6.220  0.8536  0.2238  0.1079
   68MOL   H30539299   6.845   1.820   5.382 -0.7008  0.5178 -1.1809
   68MOL   H30639300   6.684   1.838   5.324 -1.7679 -2.1566 -0.0356
   68MOL   H30739301   6.599   1.906   5.553  0.4243 -2.2961  0.1289
   68MOL   H30839302   6.817   1.790   5.626 -1.8790 -0.2114 -0.2373
   68MOL   H30939303   6.827   2.074   5.437 -0.0041 -1.4590 -1.1310
   68MOL   H31039304   6.666   2.088   5.395  0.9561  0.9794 -0.4793
   68MOL   H31139305   6.769   2.337   5.543 -0.7536  0.1726  1.0044
   68MOL   H31239306   6.901   2.231   5.563 -1.3399 -2.6459 -1.9354
   68MOL   H31339307   6.718   2.271   5.805 -0.9688 -0.1734 -1.7017
   68MOL   H31439308   6.803   2.409   5.751 -0.4241 -0.4993  0.8539
   68MOL   H31539309   6.938   2.142   5.811  0.6912  0.7702 -2.9337
   68MOL   H31639310   7.015   2.307   5.782 -0.0665  0.6925  0.6911
   68MOL   H31739311   6.964   2.132   6.041 -0.0996  0.0568 -0.1321
   68MOL   H31839312   7.078   2.378   6.105  0.1098  0.5826 -1.0705
   68MOL   H31939313   6.943   2.222   6.275 -2.2712  0.0853  1.6600
   68MOL   H32039314   6.791   2.199   6.197 -0.1640 -0.3747 -0.5916
   68MOL   C32139315   6.777   2.426   6.321 -0.0151 -0.2410 -0.8668
   68MOL   C32239316   6.742   2.579   6.317  0.9150 -0.0381  0.0220
   68MOL   O32339317   6.604   2.598   6.355  0.2353 -0.2540 -0.2014
   68MOL   C32439318   6.836   2.671   6.409 -0.3001  0.6971  0.1216
   68MOL   O32539319   6.972   2.634   6.396 -0.2647 -0.3606 -0.4615
   68MOL   C32639320   7.030   2.563   6.503 -0.1853 -0.0260  0.1901
   68MOL   C32739321   7.182   2.572   6.518  0.1141 -1.0032 -0.5944
   68MOL   C32839322   7.266   2.523   6.395  0.2162 -0.0089  0.1398
   68MOL   O32939323   7.266   2.379   6.388  0.1369 -0.1346  0.5346
   68MOL   C33039324   7.346   2.334   6.290 -0.3546 -0.6612 -0.2161
   68MOL   O33139325   7.487   2.344   6.320  0.2606  0.2659 -0.8592
   68MOL   C33239326   7.312   2.190   6.265  0.3361 -0.6900  0.0699
   68MOL   O33339327   7.369   2.107   6.366  0.0160 -0.2030 -0.2863
   68MOL   H33439328   6.822   2.390   6.413  0.6275  0.9705 -0.6975
   68MOL   H33539329   6.683   2.379   6.291 -2.3623  1.9162  2.8485
   68MOL   H33639330   6.748   2.612   6.213 -2.6339  0.9454  0.0744
   68MOL   H33739331   6.555   2.547   6.292 -1.2460  2.3817 -1.2743
   68MOL   H33839332   6.801   2.671   6.513  2.0753 -1.8844  0.9791
   68MOL   H33939333   6.806   2.772   6.380  1.6720  0.9235 -1.1627
   68MOL   H34039334   6.997   2.460   6.493 -1.4337  0.2354  1.5273
   68MOL   H34139335   6.975   2.578   6.596 -1.7671 -0.6087 -0.6260
   68MOL   H34239336   7.204   2.678   6.532 -0.4061 -0.8937 -0.5947
   68MOL   H34339337   7.204   2.513   6.607 -1.3474 -0.5355  0.0760
   68MOL   H34439338   7.235   2.561   6.298  1.1857 -0.3369 -0.3040
   68MOL   H34539339   7.368   2.561   6.408  0.6482 -0.0302 -2.9443
   68MOL   H34639340   7.337   2.397   6.202 -2.0286  0.2282  0.5641
   68MOL   H34739341   7.523   2.258   6.332  0.0791  0.1939 -0.8216
   68MOL   H34839342   7.204   2.179   6.256  0.3980 -0.6435 -0.7115
   68MOL   H34939343   7.344   2.158   6.166 -3.0147  1.5832 -1.8630
   68MOL   C35039344   7.379   1.967   6.327  0.1419  0.5021 -0.5882
   68MOL   C35139345   7.240   1.890   6.331 -0.1068  0.5724 -0.0653
   68MOL   O35239346   7.183   1.892   6.203 -0.3831 -0.8300 -0.3271
   68MOL   C35339347   7.253   1.747   6.385 -0.0553 -0.0553 -0.1858
   68MOL   O35439348   7.130   1.705   6.435 -0.3898  0.2248  0.7959
   68MOL   C35539349   7.138   1.619   6.550 -0.0485  0.1588 -0.8735
   68MOL   C35639350   7.003   1.563   6.592 -0.5955  0.5172 -0.6194
   68MOL   C35739351   7.006   1.452   6.695  0.7368  0.5532 -0.2131
   68MOL   O35839352   6.873   1.415   6.722 -0.7818 -0.2378 -0.3413
   68MOL   C35939353   6.856   1.285   6.783  0.3650 -0.1071  0.2564
   68MOL   O36039354   6.932   1.278   6.899  0.5674 -0.0136 -0.3739
   68MOL   C36139355   6.711   1.263   6.820  0.4188  0.0489 -0.0934
   68MOL   O36239356   6.685   1.125   6.845  0.5555 -0.2073 -0.1505
   68MOL   H36339357   7.450   1.914   6.391 -0.2425 -2.0443 -2.1878
   68MOL   H36439358   7.433   1.967   6.232 -1.1513  1.7359 -1.3403
   68MOL   H36539359   7.177   1.948   6.398 -0.6292 -0.2032  0.1243
   68MOL   H36639360   7.147   1.805   6.197  2.2944 -2.3402  3.7174
   68MOL   H36739361   7.281   1.672   6.311  2.0415  0.3574  0.1503
   68MOL   H36839362   7.324   1.747   6.468 -0.6283 -0.6907  0.3168
   68MOL   H36939363   7.181   1.682   6.628  1.5651 -1.6183 -0.2841
   68MOL   H37039364   7.213   1.543   6.530 -0.2759  0.3319 -2.4685
   68MOL   H37139365   6.959   1.522   6.501  0.9735 -0.6872 -0.8368
   68MOL   H37239366   6.945   1.649   6.628 -0.0229 -0.0828  1.8395
   68MOL   H37339367   7.062   1.363   6.667 -0.3372  0.4968 -2.2803
   68MOL   H37439368   7.050   1.499   6.783  2.2761 -0.1099 -0.6033
   68MOL   H37539369   6.891   1.204   6.720  1.4867 -1.2451  2.2592
   68MOL   H37639370   6.937   1.187   6.922 -2.4362 -0.0376  0.3597
   68MOL   H37739371   6.682   1.326   6.905 -1.2168 -0.0266 -0.5745
   68MOL   H37839372   6.654   1.295   6.732  1.1500  1.6148 -0.0254
   68MOL   C37939373   6.546   1.096   6.847 -0.0923 -0.0992  0.6901
   68MOL   C38039374   6.492   1.079   6.984 -1.1679  0.0152 -0.0468
   68MOL   O38139375   6.357   1.048   6.989 -0.1761  0.3416 -0.1419
   68MOL   C38239376   6.565   0.963   7.057  0.3441 -0.1712 -0.0846
   68MOL   O38339377   6.597   0.986   7.188  0.4744 -0.5547  0.2632
   68MOL   C38439378   6.692   1.085   7.198  0.0691 -0.7705 -0.7998
   68MOL   C38539379   6.799   1.038   7.302 -0.1055  0.2450 -0.4428
   68MOL   C38639380   6.913   1.143   7.304 -0.0817  0.2407 -0.0377
   68MOL   O38739381   6.844   1.267   7.307 -0.3009 -0.5380 -0.2814
   68MOL   C38839382   6.923   1.378   7.287 -0.5077 -0.3178  0.4459
   68MOL   O38939383   6.970   1.380   7.157  0.0428 -0.4138  0.2381
   68MOL   C39039384   6.839   1.504   7.303 -0.0227 -0.8628 -0.1541
   68MOL   O39139385   6.726   1.497   7.221  0.6100  0.8759 -0.0351
   68MOL   H39239386   6.523   1.001   6.797 -2.2981  0.5391  0.4159
   68MOL   H39339387   6.485   1.167   6.791 -0.2752  0.9034  2.1522
   68MOL   H39439388   6.513   1.176   7.030  2.1920 -0.8572  0.3977
   68MOL   H39539389   6.304   1.111   6.943  0.5728  1.1560  0.1091
   68MOL   H39639390   6.507   0.873   7.038  0.7792 -0.5041  0.1492
   68MOL   H39739391   6.657   0.926   7.011  0.7702 -2.6680  2.6567
   68MOL   H39839392   6.644   1.177   7.230 -0.7229 -0.1907 -3.5476
   68MOL   H39939393   6.744   1.110   7.106 -0.1417  0.9526 -0.4652
   68MOL   H40039394   6.833   0.936   7.284 -1.5470  0.1247 -2.6253
   68MOL   H40139395   6.757   1.034   7.403  2.3459 -0.5560  0.5862
   68MOL   H40239396   6.978   1.132   7.391 -2.4527 -0.0924  1.7398
   68MOL   H40339397   6.984   1.132   7.222  0.4313  1.5586  0.2280
   68MOL   H40439398   7.009   1.369   7.354  0.0257 -1.5222 -0.3604
   68MOL   H40539399   6.904   1.429   7.112 -0.3382 -0.7627  0.4146
   68MOL   H40639400   6.818   1.515   7.410  2.5011 -1.9689  0.4801
   68MOL   H40739401   6.901   1.590   7.278  0.8962 -0.6720  2.5494
   68MOL   C40839402   6.636   1.601   7.239 -0.3190 -0.4177  0.2213
   68MOL   C40939403   6.513   1.589   7.136 -0.8038 -0.1203  0.3416
   68MOL   O41039404   6.433   1.696   7.158 -0.2723  0.0723  0.3823
   68MOL   C41139405   6.445   1.456   7.154 -0.3841  0.4968  0.1737
   68MOL   O41239406   6.405   1.400   7.031  0.0837 -0.0611  0.4165
   68MOL   C41339407   6.273   1.448   7.002 -0.3478 -0.0013 -0.1074
   68MOL   C41439408   6.223   1.395   6.870 -0.1117  0.0959 -0.2862
   68MOL   C41539409   6.096   1.460   6.810  0.6196 -0.5565  0.0942
   68MOL   O41639410   6.042   1.391   6.695  0.4221 -0.3891 -0.2751
   68MOL   C41739411   5.964   1.462   6.610 -0.5976  1.2332  0.4579
   68MOL   O41839412   6.029   1.573   6.551  0.5791  0.1482  0.6049
   68MOL   C41939413   5.834   1.507   6.675  0.0819  0.7717 -0.3672
   68MOL   O42039414   5.756   1.394   6.708 -0.1230  0.3474 -0.0938
   68MOL   H42139415   6.686   1.697   7.241 -0.9738 -0.0630 -0.0448
   68MOL   H42239416   6.594   1.593   7.339 -0.6879 -0.9292  0.0280
   68MOL   H42339417   6.558   1.597   7.037 -1.7957 -1.0716 -0.1990
   68MOL   H42439418   6.373   1.682   7.230  0.0353 -0.2679  0.5776
   68MOL   H42539419   6.518   1.388   7.199 -0.4452  0.5484  0.3514
   68MOL   H42639420   6.364   1.468   7.226 -2.7774 -0.2222 -2.3546
   68MOL   H42739421   6.196   1.416   7.071  0.3267  0.2377  0.7593
   68MOL   H42839422   6.262   1.557   7.004 -0.2235 -0.0199  4.0282
   68MOL   H42939423   6.213   1.287   6.877  0.1423  0.1456  1.1274
   68MOL   H43039424   6.308   1.404   6.802 -0.4098  0.5692 -0.5960
   68MOL   H43139425   6.019   1.470   6.887 -2.6368  0.3593 -3.1043
   68MOL   H43239426   6.130   1.561   6.784  0.0677 -0.4369 -0.1811
   68MOL   H43339427   5.939   1.392   6.531 -0.2940 -0.4121  1.7903
   68MOL   H43439428   6.074   1.534   6.478  1.6199  2.3722  0.0041
   68MOL   H43539429   5.852   1.579   6.755 -0.1370  2.3377 -1.6960
   68MOL   H43639430   5.778   1.569   6.604  1.4515  0.2011 -1.9759
   68MOL   C43739431   5.621   1.419   6.727 -0.6127  0.2772 -0.6392
   68MOL   C43839432   5.554   1.301   6.645 -0.6735 -0.2361 -0.7910
   68MOL   O43939433   5.534   1.351   6.514 -0.1946  0.3569 -0.1578
   68MOL   C44039434   5.427   1.256   6.715 -0.0244 -0.3673 -0.6851
   68MOL   O44139435   5.375   1.136   6.656  0.2087  0.4624 -0.2623
   68MOL   C44239436   5.456   1.021   6.645  0.3602  0.0634  0.3437
   68MOL   C44339437   5.361   0.905   6.606 -0.4081 -0.0067 -0.2491
   68MOL   C44439438   5.448   0.793   6.555  0.2751  0.0411 -0.1555
   68MOL   O44539439   5.494   0.833   6.429 -0.6339 -0.1128  0.5814
   68MOL   C44639440   5.603   0.774   6.380  0.4304  0.1995  0.5577
   68MOL   O44739441   5.717   0.834   6.440 -0.1011 -0.1762  0.5679
   68MOL   C44839442   5.614   0.785   6.224  0.3001 -0.5909 -0.3440
   68MOL   O44939443   5.593   0.918   6.184 -0.9123  0.6456 -0.0105
   68MOL   H45039444   5.600   1.399   6.832 -1.8046  2.4634 -0.4407
   68MOL   H45139445   5.585   1.519   6.703  0.2081  0.1955 -2.2969
   68MOL   H45239446   5.621   1.216   6.630 -2.0028 -1.6067  0.9054
   68MOL   H45339447   5.444   1.373   6.497  0.2368  0.7724 -2.0585
   68MOL   H45439448   5.441   1.225   6.818 -0.4651 -1.6563 -1.0023
   68MOL   H45539449   5.344   1.327   6.716 -1.6140 -2.1948  0.8421
   68MOL   H45639450   5.511   1.007   6.738  1.5287  0.4521 -0.2748
   68MOL   H45739451   5.537   1.036   6.572  1.2605 -0.4258  1.2340
   68MOL   H45839452   5.293   0.947   6.532  0.9958  2.1534 -0.3699
   68MOL   H45939453   5.307   0.876   6.696  1.8985 -1.4043  0.7021
   68MOL   H46039454   5.531   0.786   6.625  0.0650 -0.3283  0.0599
   68MOL   H46139455   5.400   0.695   6.553  0.6173 -0.1380  0.4088
   68MOL   H46239456   5.601   0.666   6.393 -3.8889 -0.1249 -1.6331
   68MOL   H46339457   5.704   0.926   6.423  3.1970  0.2923  0.0676
   68MOL   H46439458   5.703   0.734   6.188  1.2353  1.7161 -1.3906
   68MOL   H46539459   5.524   0.732   6.193 -0.8687  0.4968  1.0691
   68MOL   C46639460   5.629   0.940   6.049 -0.4226  0.0264  0.3792
   68MOL   C46739461   5.784   0.959   6.028  0.2565  0.4332  0.0135
   68MOL   O46839462   5.841   0.835   6.037 -0.6239 -0.0335  0.4708
   68MOL   C46939463   5.830   1.012   5.897  0.2133 -0.6911 -0.1156
   68MOL   O47039464   5.747   0.964   5.793  0.2072  0.5187  0.1790
   68MOL   C47139465   5.797   1.001   5.662 -0.7367  0.0191 -0.5889
   68MOL   C47239466   5.670   1.004   5.584  0.0283 -0.3538 -0.1133
   68MOL   C47339467   5.701   1.032   5.433  0.7111  0.5745 -0.6635
   68MOL   O47439468   5.585   1.071   5.356  0.3194 -0.2226  0.0408
   68MOL   C47539469   5.619   1.119   5.224 -0.2820  0.4718  0.4606
   68MOL   O47639470   5.682   1.241   5.246 -0.0016 -0.0163 -0.4365
   68MOL   C47739471   5.496   1.144   5.140 -0.1345  0.4032 -0.4847
   68MOL   O47839472   5.456   1.023   5.078  0.2313  0.0948 -0.5398
   68MOL   H47939473   5.575   1.029   6.016 -2.1174 -0.5468  1.5588
   68MOL   H48039474   5.600   0.854   5.990  1.4571 -0.7060  0.4961
   68MOL   H48139475   5.820   1.021   6.110  0.7889  0.5019 -0.2755
   68MOL   H48239476   5.917   0.832   6.093  0.4060 -0.0213 -0.8851
   68MOL   H48339477   5.814   1.120   5.898 -0.3330 -0.7345 -1.7713
   68MOL   H48439478   5.936   0.991   5.884  0.6652  0.3097  1.8397
   68MOL   H48539479   5.863   0.924   5.622  0.1419  1.7761 -2.6089
   68MOL   H48639480   5.828   1.106   5.663 -0.0098 -0.2003  0.1574
   68MOL   H48739481   5.603   1.079   5.626  0.3713 -0.3699  0.4516
   68MOL   H48839482   5.610   0.913   5.584 -1.3450  0.5320  0.4307
   68MOL   H48939483   5.786   1.100   5.433  1.1445  0.0305 -1.4165
   68MOL   H49039484   5.739   0.938   5.393  1.4310  0.3853  0.4269
   68MOL   H49139485   5.688   1.044   5.187 -0.8053 -0.1129  0.6575
   68MOL   H49239486   5.611   1.302   5.257 -2.3750 -2.9931  1.8835
   68MOL   H49339487   5.420   1.194   5.200  0.2757  2.0155 -1.3014
   68MOL   H49439488   5.527   1.217   5.066 -1.4504  0.2043 -1.2544
   68MOL   C49539489   5.464   1.035   4.938  0.0240 -0.0588  0.0949
   68MOL   C49639490   5.360   0.925   4.881  0.7183 -0.5939  0.0129
   68MOL   O49739491   5.429   0.802   4.898 -0.0682 -0.2414  0.1692
   68MOL   C49839492   5.231   0.920   4.953  0.8364  0.1334 -0.4057
   68MOL   O49939493   5.123   0.911   4.864  0.1016 -0.3817  0.1150
   68MOL   C50039494   4.997   0.908   4.928 -0.3467 -0.4323  0.4345
   68MOL   C50139495   4.880   0.903   4.828 -0.4713  0.7713 -0.4635
   68MOL   C50239496   4.742   0.944   4.877 -0.1755 -0.5542  0.3209
   68MOL   O50339497   4.654   0.962   4.765  0.0771 -0.4719  0.6648
   68MOL   C50439498   4.527   1.014   4.785  0.0733  0.0523  0.2155
   68MOL   O50539499   4.517   1.135   4.844 -0.3550 -0.5018 -0.1437
   68MOL   C50639500   4.436   0.906   4.856  0.4026 -0.7028  0.0762
   68MOL   O50739501   4.353   0.850   4.760  0.0672  0.1848 -0.3583
   68MOL   H50839502   5.563   1.042   4.893 -0.7372  1.7160 -1.3594
   68MOL   H50939503   5.426   1.132   4.905  3.9444  1.6474  0.3883
   68MOL   H51039504   5.341   0.951   4.777 -0.6173 -0.3581  0.3056
   68MOL   H51139505   5.437   0.793   4.992  0.3511 -3.6822 -0.1569
   68MOL   H51239506   5.225   0.838   5.023 -0.6993  0.7252  0.1884
   68MOL   H51339507   5.217   1.009   5.014  0.1434 -0.6170  0.5255
   68MOL   H51439508   4.994   0.999   4.987 -1.2250 -0.2833  0.1671
   68MOL   H51539509   4.985   0.833   5.007  0.9696  0.0310  1.0745
   68MOL   H51639510   4.874   0.796   4.805  2.6695  0.3797  0.2801
   68MOL   H51739511   4.904   0.966   4.742  0.4263 -1.2926 -1.7575
   68MOL   H51839512   4.708   0.867   4.946  0.9670 -0.3268  1.1485
   68MOL   H51939513   4.746   1.030   4.943 -2.6315 -1.5086  1.7620
   68MOL   H52039514   4.478   1.037   4.690 -0.3265 -0.7473  0.2250
   68MOL   H52139515   4.519   1.193   4.770  1.5668 -1.8164 -1.1760
   68MOL   H52239516   4.488   0.816   4.889  0.0453 -0.7953  0.3902
   68MOL   H52339517   4.379   0.953   4.936  1.1773 -0.5585  0.5535
   68MOL   C52439518   4.407   0.757   4.674 -0.2266  0.7984 -0.2675
   68MOL   C52539519   4.294   0.707   4.579 -0.1601 -0.4718 -0.1545
   68MOL   O52639520   4.213   0.634   4.670  0.7009  0.2917 -0.0650
   68MOL   C52739521   4.341   0.611   4.467 -0.1224  0.1525 -0.5065
   68MOL   O52839522   4.230   0.600   4.378 -0.2876 -0.2742 -0.1020
   68MOL   C52939523   4.239   0.484   4.300 -0.0794 -0.2247  0.1301
   68MOL   C53039524   4.276   0.531   4.164 -0.2101 -0.5462  0.4663
   68MOL   C53139525   4.257   0.417   4.058  0.2278 -0.2997  0.5282
   68MOL   O53239526   4.357   0.321   4.093 -0.0313 -0.1497 -0.3032
   68MOL   C53339527   4.368   0.212   4.006  0.6773  0.0448  1.1815
   68MOL   O53439528   4.455   0.241   3.896 -0.9126 -0.5350  0.2817
   68MOL   C53539529   4.425   0.089   4.070  0.4798 -0.4192  0.1017
   68MOL   O53639530   4.323   7.684   4.104  0.0600 -0.1396  0.1003
   68MOL   H53739531   4.453   0.672   4.724 -1.7273 -0.5074 -1.0364
   68MOL   H53839532   4.483   0.792   4.604  0.1228 -0.1895 -0.4021
   68MOL   H53939533   4.247   0.796   4.538 -1.6701  0.0206  2.5491
   68MOL   H54039534   4.222   0.672   4.757 -0.4294 -0.1363  0.2473
   68MOL   H54139535   4.419   0.663   4.412 -0.9653  1.7983 -0.1646
   68MOL   H54239536   4.368   0.514   4.510 -0.2990  1.0736  1.7584
   68MOL   H54339537   4.141   0.439   4.286 -0.4187  0.3381  0.6526
   68MOL   H54439538   4.297   0.402   4.341 -2.0810 -1.3780  0.7030
   68MOL   H54539539   4.381   0.561   4.161  0.2996 -2.4162 -1.0527
   68MOL   H54639540   4.214   0.615   4.134 -1.4134 -1.5231  0.1797
   68MOL   H54739541   4.158   0.373   4.071  0.1518 -0.9671 -2.0837
   68MOL   H54839542   4.255   0.456   3.956 -1.5469  1.6620  1.2842
   68MOL   H54939543   4.273   0.190   3.956  0.7765  1.3334  0.3948
   68MOL   H55039544   4.545   0.239   3.925 -1.4557 -2.9714  2.0245
   68MOL   H55139545   4.484   0.035   3.997  1.0734  0.1418  0.1553
   68MOL   H55239546   4.493   0.111   4.153  1.1561 -0.6119 -0.3950
   68MOL   C55339547   4.382   7.561   4.131  0.7133  0.5059 -0.6054
   68MOL   C55439548   4.289   7.469   4.208  0.4297  0.4399 -0.0008
   68MOL   O55539549   4.290   7.522   4.336 -0.1220  0.4428  0.8711
   68MOL   C55639550   4.337   7.326   4.220 -0.4267 -0.4740 -1.1758
   68MOL   O55739551   4.343   7.273   4.094  0.0385  0.0784  0.0735
   68MOL   C55839552   4.454   7.178   4.077 -0.1389  0.3675  0.2156
   68MOL   C55939553   4.562   7.263   4.024  0.5153  0.1797  0.2075
   68MOL   C56039554   4.690   7.182   3.966 -0.5404  0.0060  0.2662
   68MOL   O56139555   4.750   7.256   3.859 -0.1006 -0.2739  0.4643
   68MOL   C56239556   4.852   7.198   3.786  0.6735 -0.5321  0.0334
   68MOL   O56339557   4.797   7.117   3.681 -0.0734 -0.2037 -0.0624
   68MOL   C56439558   4.941   7.303   3.724 -0.3498  0.0078 -0.3154
   68MOL   O56539559   4.873   7.372   3.625  0.7883 -0.1727  0.6976
   68MOL   H56639560   4.478   7.562   4.182  1.7530  1.3073 -2.5089
   68MOL   H56739561   4.393   7.520   4.030  0.2687  0.2075 -0.5353
   68MOL   H56839562   4.191   7.473   4.161  0.4210 -0.6880 -0.0909
   68MOL   H56939563   4.236   7.599   4.331 -0.3807  0.2078 -0.1270
   68MOL   H57039564   4.436   7.337   4.265 -1.2198 -0.0450  0.4888
   68MOL   H57139565   4.285   7.253   4.282  0.1027 -0.3536 -0.5924
   68MOL   H57239566   4.480   7.132   4.172  0.3424  0.7200  0.2575
   68MOL   H57339567   4.428   7.099   4.006  3.2730 -0.4072 -0.2638
   68MOL   H57439568   4.588   7.345   4.091  0.3357  1.4855 -1.2681
   68MOL   H57539569   4.516   7.312   3.938  1.9020  0.6858 -0.2534
   68MOL   H57639570   4.753   7.167   4.054  0.0999  0.7713 -0.0526
   68MOL   H57739571   4.652   7.092   3.919 -0.0304  0.5574 -1.2080
   68MOL   H57839572   4.905   7.130   3.853 -0.4408 -3.7062 -2.1690
   68MOL   H57939573   4.768   7.173   3.611  1.4829  0.2697 -0.3635
   68MOL   H58039574   4.951   7.372   3.808  0.6604  0.2732 -0.6460
   68MOL   H58139575   5.038   7.263   3.694 -0.2534 -0.3647  0.4751
   68MOL   H58239576   4.795   7.401   3.670  0.8370  1.4543 -0.2484
   69MOL     C139577   6.012   3.593   0.913  0.3952 -0.1947  0.0621
   69MOL     C239578   5.925   3.501   0.992 -0.0258  0.1370 -0.0412
   69MOL     O339579   5.790   3.491   0.950  0.0984 -0.2111 -0.1092
   69MOL     C439580   5.971   3.357   0.999 -0.1312  0.1883  0.2614
   69MOL     O539581   5.911   3.297   1.111 -0.2519 -0.2153  0.1940
   69MOL     C639582   5.897   3.153   1.099 -0.5907  0.0746  0.0062
   69MOL     C739583   5.823   3.091   1.219 -0.3085 -0.6781  0.8530
   69MOL     C839584   5.797   2.941   1.211  0.7520 -0.0646 -0.4678
   69MOL     O939585   5.731   2.927   1.085 -0.0397 -0.2532 -1.1583
   69MOL    C1039586   5.693   2.790   1.063 -0.6958 -0.0008 -0.0234
   69MOL    O1139587   5.803   2.700   1.046  0.1523  0.0962 -0.6891
   69MOL    C1239588   5.618   2.801   0.936  0.1003  1.2846  0.7537
   69MOL    O1339589   5.500   2.721   0.953 -0.4086 -0.4850  0.9817
   69MOL    H1439590   6.010   3.556   0.810 -1.1536  1.0056 -0.3615
   69MOL    H1539591   6.113   3.578   0.951 -0.1658 -1.9767  0.8945
   69MOL    H1639592   5.920   3.552   1.088  3.0362  1.0168 -0.3050
   69MOL    H1739593   5.739   3.437   1.009 -0.8248  1.2231  0.4329
   69MOL    H1839594   5.942   3.306   0.907 -1.5343  2.0600 -0.3681
   69MOL    H1939595   6.079   3.350   1.009 -0.3696 -2.1208  1.6001
   69MOL    H2039596   5.997   3.108   1.096 -0.2540  0.7728  0.5643
   69MOL    H2139597   5.846   3.133   1.005  0.7501  0.5227 -0.8340
   69MOL    H2239598   5.730   3.146   1.233  0.0022 -0.0162  0.3679
   69MOL    H2339599   5.877   3.113   1.311  2.4350 -0.7776 -0.6585
   69MOL    H2439600   5.897   2.897   1.209  0.1804 -1.4381  0.8779
   69MOL    H2539601   5.734   2.918   1.297  0.1594 -3.1180 -1.6740
   69MOL    H2639602   5.634   2.768   1.152  1.4630  2.2219  2.0417
   69MOL    H2739603   5.758   2.620   1.021  0.7942 -0.4231 -0.2141
   69MOL    H2839604   5.598   2.906   0.913 -1.8963  1.3857  2.7577
   69MOL    H2939605   5.681   2.766   0.854 -2.7790  0.7875 -1.2939
   69MOL    H3039606   5.976   3.695   0.904 -0.1173 -0.2900  1.0308
   69MOL    C3139607   5.384   2.795   0.970 -0.4227  0.0202 -0.6087
   69MOL    C3239608   5.258   2.705   0.977  0.3573 -0.5407  0.2120
   69MOL    O3339609   5.151   2.786   0.964  0.5887  0.3445 -0.7527
   69MOL    C3439610   5.247   2.636   1.112 -0.4409  0.5582 -0.0994
   69MOL    O3539611   5.137   2.534   1.100  0.1179  0.0266 -0.8904
   69MOL    C3639612   5.102   2.482   1.227 -0.0251 -0.0032 -0.1493
   69MOL    C3739613   5.017   2.594   1.297 -0.1397 -0.4246 -0.1333
   69MOL    C3839614   5.015   2.587   1.452  0.0124 -0.0143  0.0271
   69MOL    O3939615   4.911   2.664   1.504 -0.0087 -0.0548  0.1240
   69MOL    C4039616   4.934   2.801   1.513 -1.1979 -0.0936  0.1487
   69MOL    O4139617   5.022   2.832   1.615 -0.0139  0.4156 -0.8267
   69MOL    C4239618   4.802   2.859   1.556  0.0518  0.8120 -0.0320
   69MOL    O4339619   4.744   2.783   1.657 -0.2599  0.0639  0.4740
   69MOL    H4439620   5.391   2.845   1.067  0.3905 -2.4735  0.6567
   69MOL    H4539621   5.376   2.870   0.891  1.5281 -0.6474 -1.4593
   69MOL    H4639622   5.262   2.635   0.893  0.9779  1.6414 -1.6244
   69MOL    H4739623   5.078   2.740   1.002 -0.7598 -0.0142 -3.5988
   69MOL    H4839624   5.335   2.573   1.125 -1.1470  0.0520  2.3726
   69MOL    H4939625   5.238   2.709   1.192  0.4750  1.3238 -0.6684
   69MOL    H5039626   5.197   2.455   1.273 -0.7143 -0.5746  0.9779
   69MOL    H5139627   5.048   2.388   1.218 -0.6285  0.3058  0.1946
   69MOL    H5239628   4.922   2.597   1.244  0.8919  1.4904 -1.9784
   69MOL    H5339629   5.054   2.693   1.268 -0.0150 -0.9065 -1.6489
   69MOL    H5439630   4.998   2.481   1.472 -0.0778  0.0375  0.2219
   69MOL    H5539631   5.117   2.605   1.484  0.3188  0.3962 -1.1420
   69MOL    H5639632   4.973   2.839   1.419  0.7896 -2.0171  0.1543
   69MOL    H5739633   4.977   2.890   1.675 -0.2953 -0.5403 -0.0994
   69MOL    H5839634   4.818   2.958   1.598  0.4446  0.9516 -0.4982
   69MOL    H5939635   4.740   2.862   1.466 -1.9524 -0.1937  1.2948
   69MOL    C6039636   4.627   2.841   1.708  0.6589  0.4902  0.2746
   69MOL    C6139637   4.534   2.727   1.761  0.0523 -0.2088 -0.2020
   69MOL    O6239638   4.437   2.696   1.661  0.5055 -0.1680 -0.3277
   69MOL    C6339639   4.453   2.781   1.878  0.4525 -0.9527  0.5712
   69MOL    O6439640   4.384   2.680   1.955  0.0390  0.0086 -0.1413
   69MOL    C6539641   4.290   2.739   2.044 -0.6261  0.3182  0.1225
   69MOL    C6639642   4.152   2.750   1.989  0.3014 -0.1267  0.1278
   69MOL    C6739643   4.105   2.629   1.905 -0.6396  0.6284 -0.4795
   69MOL    O6839644   3.964   2.640   1.876  0.3664 -0.0197  0.0244
   69MOL    C6939645   3.910   2.530   1.806 -0.1887  0.0103 -0.1050
   69MOL    O7039646   3.889   2.425   1.901 -0.3520  0.4604  0.0311
   69MOL    C7139647   3.773   2.565   1.744  0.7701  0.0796  0.4637
   69MOL    O7239648   3.784   2.600   1.603 -0.6584 -0.2128 -0.3092
   69MOL    H7339649   4.582   2.909   1.635 -1.1501 -2.1317 -1.1171
   69MOL    H7439650   4.663   2.908   1.787 -0.7409 -0.9803  2.2125
   69MOL    H7539651   4.590   2.644   1.805 -1.1635  0.0015  1.8136
   69MOL    H7639652   4.373   2.643   1.704 -1.0144  0.5815 -1.6069
   69MOL    H7739653   4.529   2.812   1.949 -0.0321 -0.8770  1.0588
   69MOL    H7839654   4.403   2.867   1.832  1.6471 -1.7083 -2.2074
   69MOL    H7939655   4.328   2.835   2.077 -0.4334  0.4320 -0.4171
   69MOL    H8039656   4.283   2.685   2.138  0.5574  1.2003  0.7190
   69MOL    H8139657   4.154   2.841   1.929 -1.1427 -2.1614 -3.1782
   69MOL    H8239658   4.096   2.769   2.080  0.8340  1.7868  0.0786
   69MOL    H8339659   4.128   2.530   1.946  2.7753  2.0439  1.2372
   69MOL    H8439660   4.155   2.629   1.808 -0.2029 -0.2505 -0.2593
   69MOL    H8539661   3.981   2.486   1.736  1.1419  0.6681  0.8034
   69MOL    H8639662   3.977   2.411   1.932 -0.2933  0.1896 -0.2629
   69MOL    H8739663   3.712   2.477   1.763  1.8915 -0.4086  1.8532
   69MOL    H8839664   3.730   2.647   1.802  2.4202  1.3470 -0.0462
   69MOL    C8939665   3.658   2.586   1.534 -0.6040 -0.1534 -0.4342
   69MOL    C9039666   3.671   2.676   1.406  0.5503  0.3390 -0.1058
   69MOL    O9139667   3.738   2.601   1.298 -0.3398 -0.1099 -0.7008
   69MOL    C9239668   3.539   2.733   1.352  0.6295  0.6242  0.3061
   69MOL    O9339669   3.440   2.634   1.337  0.3454  0.5792  0.0346
   69MOL    C9439670   3.324   2.687   1.277 -0.1033  0.2124 -0.9352
   69MOL    C9539671   3.203   2.606   1.325 -0.3369 -0.4026 -0.8646
   69MOL    C9639672   3.181   2.623   1.481 -0.3688 -0.0070  0.6252
   69MOL    O9739673   3.081   2.545   1.527  0.7221  0.3203  0.1778
   69MOL    C9839674   3.026   2.595   1.645 -1.0310 -0.5569 -0.1527
   69MOL    O9939675   2.943   2.707   1.631 -0.0595 -0.0533  0.4000
   69MOL   C10039676   2.948   2.485   1.717 -0.1962 -0.5812 -0.0253
   69MOL   O10139677   3.025   2.432   1.823  0.2942 -0.3757  0.3775
   69MOL   H10239678   3.582   2.639   1.591 -0.2922 -1.6214  1.3802
   69MOL   H10339679   3.630   2.483   1.509  1.4575 -1.1690  1.3117
   69MOL   H10439680   3.736   2.760   1.427 -2.0546  2.3260  0.1939
   69MOL   H10539681   3.688   2.522   1.280 -0.3749 -0.3482  0.4396
   69MOL   H10639682   3.490   2.796   1.426 -0.3045  0.6135 -0.2939
   69MOL   H10739683   3.553   2.797   1.265  0.5363  2.2736  1.4803
   69MOL   H10839684   3.326   2.677   1.168  1.0927 -2.6562 -0.6691
   69MOL   H10939685   3.304   2.794   1.290 -0.2335  0.3464 -2.1811
   69MOL   H11039686   3.207   2.504   1.287 -2.1188  0.1783 -2.7050
   69MOL   H11139687   3.122   2.657   1.274 -0.7373  0.5712  0.6960
   69MOL   H11239688   3.274   2.592   1.529 -0.6330  0.6186  1.5634
   69MOL   H11339689   3.181   2.731   1.493 -2.0520  0.1576 -0.6553
   69MOL   H11439690   3.111   2.624   1.707 -0.1979 -0.7722 -1.1687
   69MOL   H11539691   2.860   2.674   1.601  0.0094  1.5587 -1.6331
   69MOL   H11639692   2.852   2.520   1.754  1.4453  2.8835  1.1302
   69MOL   H11739693   2.936   2.408   1.641  0.3202 -3.2141  2.4571
   69MOL   C11839694   2.958   2.329   1.896  0.7285  0.7551 -0.2134
   69MOL   C11939695   2.852   2.370   1.993  0.5988  0.1716  0.8112
   69MOL   O12039696   2.914   2.391   2.117 -0.0656  0.0652  0.1683
   69MOL   C12139697   2.753   2.253   2.016  0.0096  0.6586  0.5043
   69MOL   O12239698   2.623   2.297   2.037 -0.2074  0.6857  0.7122
   69MOL   C12339699   2.539   2.249   1.935 -0.8453 -0.1863  0.3806
   69MOL   C12439700   2.391   2.290   1.952 -0.7462 -0.2243 -0.6939
   69MOL   C12539701   2.380   2.437   1.994 -0.1573 -0.1798 -0.0859
   69MOL   O12639702   2.239   2.479   1.975 -0.0425  0.2132 -0.2857
   69MOL   C12739703   2.203   2.611   2.001  0.5166 -0.0966 -0.2317
   69MOL   O12839704   2.201   2.641   2.141 -0.3716  0.6199  0.5430
   69MOL   C12939705   2.063   2.637   1.941  0.5717 -0.6348  0.9956
   69MOL   O13039706   2.034   2.773   1.908  0.2690  0.3944 -0.3950
   69MOL   H13139707   2.909   2.259   1.829 -1.6726  1.5530  0.6444
   69MOL   H13239708   3.033   2.264   1.940  0.9410  0.8881 -0.3755
   69MOL   H13339709   2.797   2.457   1.958  0.4425  0.2950  1.3626
   69MOL   H13439710   2.889   2.316   2.167 -1.2717  0.0298 -0.4862
   69MOL   H13539711   2.760   2.165   1.952  0.9398  2.1814 -1.5491
   69MOL   H13639712   2.763   2.199   2.111  0.5386  0.3590  0.2773
   69MOL   H13739713   2.541   2.140   1.925 -1.8388 -0.3484  1.7044
   69MOL   H13839714   2.556   2.284   1.834  2.9556 -0.6679  0.7784
   69MOL   H13939715   2.348   2.239   2.038  0.1685 -0.7590 -0.5527
   69MOL   H14039716   2.326   2.264   1.868  0.7057 -0.2808 -1.8133
   69MOL   H14139717   2.405   2.444   2.100  1.4639 -0.3568 -0.4548
   69MOL   H14239718   2.461   2.496   1.951  0.0214 -0.7781 -0.5790
   69MOL   H14339719   2.273   2.679   1.953  0.1742  0.9585  0.7480
   69MOL   H14439720   2.274   2.696   2.164 -0.0271 -0.0789  1.1480
   69MOL   H14539721   2.058   2.578   1.849  1.7186 -1.5394  1.5052
   69MOL   H14639722   1.982   2.603   2.006 -2.0642 -0.4969 -2.0818
   69MOL   C14739723   1.893   2.797   1.881 -0.0607 -0.4352 -0.3844
   69MOL   C14839724   1.872   2.953   1.852 -0.0216 -1.3096 -0.4352
   69MOL   O14939725   1.890   3.010   1.978  0.0845  0.3829  0.1204
   69MOL   C15039726   1.741   3.006   1.785 -0.4097 -0.0477 -0.1955
   69MOL   O15139727   1.767   3.125   1.716 -0.3783 -0.4408 -0.3807
   69MOL   C15239728   1.759   3.107   1.575  0.5947  0.4792 -0.1833
   69MOL   C15339729   1.757   3.248   1.516  0.3168  0.8608  0.2572
   69MOL   C15439730   1.721   3.262   1.368  0.1579  0.7436  0.4748
   69MOL   O15539731   1.578   3.282   1.360  0.4535  0.3656  0.0775
   69MOL   C15639732   1.505   3.192   1.281 -0.7974  0.3091 -0.4478
   69MOL   O15739733   1.509   3.067   1.335 -0.4999 -0.2274 -0.3862
   69MOL   C15839734   1.555   3.202   1.133  0.7445 -0.4503 -0.3417
   69MOL   O15939735   1.498   3.314   1.063 -0.1439  0.1983  0.4425
   69MOL   H16039736   1.829   2.775   1.967 -0.9005  3.3076  0.0134
   69MOL   H16139737   1.849   2.743   1.797 -0.1308  0.2446 -0.7883
   69MOL   H16239738   1.950   2.999   1.791  2.0037 -1.4857  1.9530
   69MOL   H16339739   1.981   3.035   1.982  0.7750 -1.7403 -1.4080
   69MOL   H16439740   1.723   2.921   1.720  2.1893 -1.3166  0.6874
   69MOL   H16539741   1.658   3.022   1.854  0.5457 -0.8048  1.1541
   69MOL   H16639742   1.661   3.065   1.550  0.1030  1.3917  0.1647
   69MOL   H16739743   1.842   3.046   1.542  2.2857  0.8807  3.0810
   69MOL   H16839744   1.854   3.295   1.538  0.6107  0.3791 -0.0069
   69MOL   H16939745   1.671   3.298   1.561 -0.7635 -0.3688 -0.4150
   69MOL   H17039746   1.769   3.353   1.335 -0.7520  1.5343  1.2673
   69MOL   H17139747   1.761   3.182   1.306 -1.0308  0.2849  0.2844
   69MOL   H17239748   1.406   3.236   1.294 -0.9701 -0.1891 -0.0604
   69MOL   H17339749   1.473   3.071   1.422  0.0386 -2.1088 -0.0533
   69MOL   H17439750   1.663   3.193   1.125  1.1790  0.8893  2.9240
   69MOL   H17539751   1.516   3.114   1.083 -0.6806 -0.7524  1.2665
   69MOL   C17639752   1.538   3.312   0.927  0.3408  0.2993 -0.5572
   69MOL   C17739753   1.675   3.377   0.901  0.7398 -0.3197 -0.8401
   69MOL   O17839754   1.679   3.483   0.997  0.8304  0.5045 -0.1703
   69MOL   C17939755   1.683   3.434   0.760  0.0743 -0.2515  0.1147
   69MOL   O18039756   1.816   3.476   0.724  0.4228 -0.0658  0.1678
   69MOL   C18139757   1.846   3.610   0.766  0.2053  1.0348  0.5829
   69MOL   C18239758   1.994   3.656   0.712  0.5749 -0.4151 -0.7503
   69MOL   C18339759   2.020   3.805   0.716 -0.4616 -0.1860  0.3180
   69MOL   O18439760   1.929   3.864   0.623 -0.0436 -0.0873 -0.1915
   69MOL   C18539761   1.886   3.997   0.644 -0.3280  0.3029  0.8273
   69MOL   O18639762   1.790   4.014   0.752  0.0356 -0.0180  0.4063
   69MOL   C18739763   1.812   4.035   0.519  0.0289  0.4093  0.0072
   69MOL   O18839764   1.682   3.971   0.505  0.2829 -0.2524  0.1484
   69MOL   H18939765   1.478   3.382   0.868 -1.1711  0.6327  1.3437
   69MOL   H19039766   1.522   3.220   0.872  2.2622  0.4794 -1.4533
   69MOL   H19139767   1.756   3.308   0.922  1.6185  0.7218 -0.7959
   69MOL   H19239768   1.625   3.443   1.063  0.2234  1.0279 -0.3545
   69MOL   H19339769   1.660   3.361   0.683  0.3619 -0.3540  0.1246
   69MOL   H19439770   1.604   3.508   0.747  2.0989  1.5656 -2.5976
   69MOL   H19539771   1.831   3.623   0.873  0.3990 -1.3208  0.9164
   69MOL   H19639772   1.768   3.668   0.717 -0.1909  0.3055  0.3416
   69MOL   H19739773   2.015   3.611   0.614  2.5559 -1.9464  0.3170
   69MOL   H19839774   2.071   3.601   0.767  0.0990  0.2696  0.6223
   69MOL   H19939775   1.999   3.843   0.816  0.4381  0.9163  0.0998
   69MOL   H20039776   2.123   3.834   0.695 -0.5351  0.1135  0.3732
   69MOL   H20139777   1.975   4.057   0.661  0.1284 -0.6049  1.6608
   69MOL   H20239778   1.706   4.015   0.709 -0.0746 -2.2997  0.4852
   69MOL   H20339779   1.795   4.141   0.501 -1.0592  0.0829 -0.8928
   69MOL   H20439780   1.872   4.002   0.433 -0.6945  0.5471 -0.5501
   69MOL   C20539781   1.684   3.841   0.450  0.0503  0.0686  0.0963
   69MOL   C20639782   1.540   3.808   0.409  0.0024  0.2149  0.6974
   69MOL   O20739783   1.530   3.742   0.278  0.2411 -0.2887 -0.0639
   69MOL   C20839784   1.479   3.735   0.532 -0.6362  0.1102  0.2525
   69MOL   O20939785   1.344   3.779   0.546 -0.3097 -1.0202 -0.3736
   69MOL   C21039786   1.270   3.695   0.634  0.1904  1.3176  0.5230
   69MOL   C21139787   1.156   3.770   0.694 -0.1156  0.6644 -0.0957
   69MOL   C21239788   1.192   3.896   0.774  0.1449 -0.1146 -0.1481
   69MOL   O21339789   1.075   3.975   0.811  0.0220  0.6501  0.5436
   69MOL   C21439790   1.119   4.093   0.865 -0.1758 -0.3300 -0.3962
   69MOL   O21539791   1.159   4.067   0.999  0.1324 -0.4747  0.0845
   69MOL   C21639792   1.001   4.191   0.875  0.5282  0.2834  1.6160
   69MOL   O21739793   0.933   4.212   0.755  0.3800  0.0353 -0.1343
   69MOL   H21839794   1.729   3.764   0.513 -1.7558 -1.8663 -0.9068
   69MOL   H21939795   1.732   3.839   0.352 -2.3423  0.5114 -1.1242
   69MOL   H22039796   1.487   3.903   0.403 -1.1601 -0.4968 -0.4847
   69MOL   H22139797   1.573   3.658   0.265  1.7866  0.3729  0.7083
   69MOL   H22239798   1.493   3.631   0.502  0.7322  0.2470  0.4186
   69MOL   H22339799   1.533   3.755   0.624 -0.5163 -0.3275  0.2792
   69MOL   H22439800   1.336   3.666   0.716  0.3488  1.5605  0.4814
   69MOL   H22539801   1.232   3.604   0.588 -0.2093  2.1551 -0.8500
   69MOL   H22639802   1.089   3.703   0.748 -0.8896 -0.0981 -1.9666
   69MOL   H22739803   1.095   3.800   0.609 -1.6041 -0.0274  0.6959
   69MOL   H22839804   1.251   3.868   0.861  1.0536 -1.7151 -1.2500
   69MOL   H22939805   1.251   3.958   0.707  0.2004  0.7307  0.6646
   69MOL   H23039806   1.207   4.135   0.818  1.1544 -1.4350  1.0717
   69MOL   H23139807   1.086   4.034   1.048  0.2488 -0.2539  0.4033
   69MOL   H23239808   0.922   4.150   0.938 -0.1863  0.4198  0.8209
   69MOL   H23339809   1.019   4.284   0.928  2.3634  0.9445 -0.1315
   69MOL   C23439810   0.981   4.319   0.675  0.4231  0.5001 -0.2074
   69MOL   C23539811   0.950   4.290   0.533  0.6694 -0.0224 -0.3878
   69MOL   O23639812   0.806   4.275   0.528  0.3393  0.4193  0.0211
   69MOL   C23739813   1.024   4.162   0.495  0.0893 -0.0616  0.4869
   69MOL   O23839814   1.076   4.155   0.358 -0.0107  1.0165  0.0493
   69MOL   C23939815   1.157   4.040   0.332 -0.0012  0.5845 -0.7078
   69MOL   C24039816   1.213   4.050   0.188  0.5466 -0.9658  0.2396
   69MOL   C24139817   1.278   3.921   0.135 -0.5522  0.2331  0.8750
   69MOL   O24239818   1.221   3.865   0.019  0.6732 -0.0270 -1.0502
   69MOL   C24339819   1.285   3.745   7.672 -0.2500  0.1433  0.0349
   69MOL   O24439820   1.399   3.778   7.598 -0.0838  0.6278  0.0710
   69MOL   C24539821   1.188   3.660   7.584  0.3416 -0.0728 -0.1498
   69MOL   O24639822   1.190   3.522   7.616  0.3583  0.1790 -0.1250
   69MOL   H24739823   0.940   4.415   0.706 -0.4617  0.3659 -0.9420
   69MOL   H24839824   1.089   4.328   0.681  0.4019  0.3478  0.5178
   69MOL   H24939825   0.982   4.371   0.469 -1.4472 -0.1427 -1.6399
   69MOL   H25039826   0.778   4.227   0.604 -1.0489 -0.4194 -1.0018
   69MOL   H25139827   1.095   4.128   0.570  0.8763  2.4398  0.9108
   69MOL   H25239828   0.940   4.092   0.503  1.6427 -1.8101  1.8168
   69MOL   H25339829   1.101   3.946   0.340 -0.2682  0.9029  1.4906
   69MOL   H25439830   1.244   4.042   0.397  0.7637  0.4923 -1.7142
   69MOL   H25539831   1.282   4.134   0.180 -0.2293 -0.3516 -0.0802
   69MOL   H25639832   1.133   4.084   0.122 -1.0363 -0.5192  2.2978
   69MOL   H25739833   1.383   3.932   0.107 -0.7399  0.3019  0.1875
   69MOL   H25839834   1.272   3.851   0.218 -1.6429 -0.3635  0.3067
   69MOL   H25939835   1.320   3.681   0.059  0.5331 -1.3625 -1.4535
   69MOL   H26039836   1.458   3.827   7.653 -0.5686  1.4390 -0.1369
   69MOL   H26139837   1.084   3.686   7.606  0.3311 -1.2011  1.2315
   69MOL   H26239838   1.215   3.682   7.481 -0.8218 -0.5137 -0.5589
   69MOL   C26339839   1.290   3.448   7.546 -0.2563  0.3824  0.3234
   69MOL   C26439840   1.287   3.303   7.583 -0.4563 -0.3782 -0.3232
   69MOL   O26539841   1.281   3.304   0.031  0.1319  0.3798  0.4036
   69MOL   C26639842   1.157   3.235   7.530  0.3614 -0.3181 -0.7065
   69MOL   O26739843   1.166   3.094   7.550  0.2306  0.0857  0.0236
   69MOL   C26839844   1.051   3.022   7.509 -0.3515  0.4606  0.3605
   69MOL   C26939845   1.062   2.870   7.520  0.1963 -0.1665 -0.2167
   69MOL   C27039846   0.928   2.797   7.488  0.7676  0.1189  0.1822
   69MOL   O27139847   0.883   2.835   7.360 -0.0047 -0.4711 -0.2461
   69MOL   C27239848   0.760   2.783   7.321 -0.1139  0.0637  0.0267
   69MOL   O27339849   0.659   2.852   7.398  0.3467  0.0167  0.1589
   69MOL   C27439850   0.755   2.804   7.173 -0.3009  0.4292 -0.0773
   69MOL   O27539851   0.817   2.696   7.098  0.2441 -0.1570 -0.0212
   69MOL   H27639852   1.382   3.501   7.569  1.4180 -1.0209 -2.7782
   69MOL   H27739853   1.281   3.456   7.437 -2.2632  0.6991  0.5047
   69MOL   H27839854   1.376   3.245   7.556  1.7714  2.3126  1.0065
   69MOL   H27939855   1.235   3.382   0.057 -3.0512 -1.0426 -0.6324
   69MOL   H28039856   1.069   3.268   7.586 -0.1683  0.4601 -1.9792
   69MOL   H28139857   1.141   3.254   7.424 -0.1925 -1.0433 -0.7564
   69MOL   H28239858   1.024   3.051   7.407  0.9341  0.3270 -0.0280
   69MOL   H28339859   0.967   3.060   7.567 -0.9502  0.0383 -0.2163
   69MOL   H28439860   1.081   2.850   7.625 -2.5461  0.5415  0.4383
   69MOL   H28539861   1.146   2.838   7.459  1.8193  2.3994  0.5752
   69MOL   H28639862   0.937   2.689   7.506  0.9638  0.0145 -0.5024
   69MOL   H28739863   0.849   2.827   7.557  0.6817 -0.4753  0.3497
   69MOL   H28839864   0.762   2.677   7.347 -1.0160  0.2113  0.7422
   69MOL   H28939865   0.611   2.905   7.337 -0.1554  0.9464  1.3413
   69MOL   H29039866   0.653   2.812   7.138 -0.6658 -1.5534  0.4911
   69MOL   H29139867   0.799   2.902   7.157 -1.7474  1.3034  1.1715
   69MOL   C29239868   0.882   2.732   6.970  0.3094 -0.4049  0.4984
   69MOL   C29339869   1.024   2.677   6.976  0.2778 -0.3481 -0.8522
   69MOL   O29439870   1.081   2.677   6.843 -0.2048  0.4935 -0.2424
   69MOL   C29539871   1.110   2.761   7.071  0.4248 -0.4497  0.0773
   69MOL   O29639872   1.242   2.714   7.073 -1.2665  0.2497 -0.3293
   69MOL   C29739873   1.311   2.725   7.199  0.8895 -0.3027  0.9936
   69MOL   C29839874   1.461   2.696   7.168 -0.0958 -0.3176  0.6463
   69MOL   C29939875   1.488   2.557   7.122  0.0830  0.1444  0.3046
   69MOL   O30039876   1.623   2.545   7.104  0.2131 -0.2665  0.3446
   69MOL   C30139877   1.672   2.418   7.096  0.3940 -0.9148 -0.2551
   69MOL   O30239878   1.618   2.348   6.983  0.4829  0.5984 -0.0902
   69MOL   C30339879   1.826   2.425   7.078  0.5852  0.2498  0.1261
   69MOL   O30439880   1.904   2.439   7.194  0.4425  0.5761  0.5074
   69MOL   H30539881   0.839   2.683   6.883  1.1972  0.1813 -0.2837
   69MOL   H30639882   0.882   2.840   6.953  0.0929 -0.5196 -0.2180
   69MOL   H30739883   1.016   2.575   7.015 -0.8812  0.2613  0.5104
   69MOL   H30839884   1.136   2.754   6.843  1.5422 -0.7037 -2.4296
   69MOL   H30939885   1.098   2.865   7.041 -0.2467 -0.6806 -0.4669
   69MOL   H31039886   1.061   2.746   7.167  1.4926  1.4397  0.9504
   69MOL   H31139887   1.274   2.646   7.264  1.3355 -0.6060  0.8770
   69MOL   H31239888   1.296   2.826   7.237 -0.8501  0.5990 -1.9015
   69MOL   H31339889   1.524   2.713   7.255  0.1088  0.7099  0.2978
   69MOL   H31439890   1.486   2.771   7.093  0.1842 -0.1037  0.9530
   69MOL   H31539891   1.444   2.478   7.183  0.2627  1.3178  1.9697
   69MOL   H31639892   1.444   2.543   7.023  0.1593  2.0174 -0.0048
   69MOL   H31739893   1.649   2.361   7.186  0.4706 -1.5016 -0.5993
   69MOL   H31839894   1.667   2.374   6.906  1.1670  0.8386  0.4166
   69MOL   H31939895   1.856   2.493   6.999  1.2471 -1.5623 -1.2276
   69MOL   H32039896   1.852   2.329   7.032  3.2301  1.0353 -0.1211
   69MOL   C32139897   1.865   2.565   7.260 -1.3819 -0.5937  0.4753
   69MOL   C32239898   1.950   2.565   7.386 -0.2906  0.1089 -0.0397
   69MOL   O32339899   2.080   2.567   7.336  0.1019  0.1678 -0.1535
   69MOL   C32439900   1.929   2.687   7.480  0.1319  0.5277  0.1544
   69MOL   O32539901   1.936   2.814   7.408  0.0609  0.3425 -0.3831
   69MOL   C32639902   1.896   2.916   7.496 -0.3290 -0.0730 -0.9536
   69MOL   C32739903   2.021   2.962   7.577 -0.2316  0.0462  0.1823
   69MOL   C32839904   1.992   3.086   7.660 -0.3599  0.3937 -0.4170
   69MOL   O32939905   2.076   3.104   0.080  0.2470 -0.4893  0.4726
   69MOL   C33039906   2.202   3.172   0.060  0.2417 -0.6343 -0.3085
   69MOL   O33139907   2.191   3.312   0.052  0.3077 -0.4635 -0.1288
   69MOL   C33239908   2.306   3.139   0.173  0.6465 -0.6030 -0.1742
   69MOL   O33339909   2.388   3.037   0.124 -0.4910 -0.5026 -0.0401
   69MOL   H33439910   1.761   2.580   7.291 -0.7548  0.1318  2.2833
   69MOL   H33539911   1.893   2.652   7.200  0.1166 -0.5586  1.2107
   69MOL   H33639912   1.931   2.469   7.433  2.2040 -1.1642 -1.5486
   69MOL   H33739913   2.082   2.491   7.280  0.1796 -1.2168  1.6666
   69MOL   H33839914   2.009   2.698   7.553  0.8135  1.9224 -0.7902
   69MOL   H33939915   1.833   2.681   7.532 -0.8442  0.3586 -1.6555
   69MOL   H34039916   1.802   2.899   7.550  1.2169 -2.5285  1.0976
   69MOL   H34139917   1.871   3.002   7.434 -2.0456  1.0882  1.2292
   69MOL   H34239918   2.054   2.880   7.640  0.2750  1.7078  2.1309
   69MOL   H34339919   2.108   2.995   7.519 -0.7552  1.1133 -0.0205
   69MOL   H34439920   1.986   3.176   7.599 -1.4536  0.7878  0.2726
   69MOL   H34539921   1.897   3.064   0.014  0.3472  1.2357  1.4004
   69MOL   H34639922   2.249   3.143   7.660  0.5098 -1.6156  0.1177
   69MOL   H34739923   2.168   3.341   7.659 -2.3721 -3.5141 -0.5222
   69MOL   H34839924   2.368   3.222   0.207 -2.5023  1.8455 -0.2255
   69MOL   H34939925   2.249   3.101   0.258  2.0499  0.8697  1.4760
   69MOL   C35039926   2.520   3.038   0.181 -0.2748  0.9155  0.2203
   69MOL   C35139927   2.622   2.967   0.090 -0.3323 -0.1998  0.0771
   69MOL   O35239928   2.634   3.047   7.670 -0.4945 -0.0518  0.3392
   69MOL   C35339929   2.764   2.972   0.164 -0.8485  0.5413 -0.4360
   69MOL   O35439930   2.852   2.880   0.105  0.6804 -0.1204  0.7358
   69MOL   C35539931   2.829   2.745   0.127  0.1076 -0.0795  0.5464
   69MOL   C35639932   2.908   2.661   0.025  0.9288 -0.3450 -0.2256
   69MOL   C35739933   2.892   2.510   0.035 -0.3037  0.1898 -0.6658
   69MOL   O35839934   2.947   2.468   0.157 -0.0495 -1.0432  0.0213
   69MOL   C35939935   2.908   2.338   0.188  0.1062 -0.5992  0.1065
   69MOL   O36039936   2.961   2.241   0.093  0.6917  0.4415  0.7958
   69MOL   C36139937   2.956   2.320   0.334 -0.3074 -0.4873  0.1755
   69MOL   O36239938   3.100   2.295   0.336  0.7908  0.6737  0.1285
   69MOL   H36339939   2.511   2.987   0.276  1.0307  0.7314  0.2522
   69MOL   H36439940   2.563   3.132   0.216 -1.1559  1.4821 -0.2008
   69MOL   H36539941   2.598   2.864   0.063 -1.1755  0.4512 -1.6976
   69MOL   H36639942   2.653   3.134   0.006  0.1393 -0.0834  0.0316
   69MOL   H36739943   2.805   3.073   0.165  0.3684  0.0488  1.8888
   69MOL   H36839944   2.767   2.948   0.270 -0.2290  0.8246 -0.3928
   69MOL   H36939945   2.724   2.717   0.126 -0.5698  2.3113 -0.7233
   69MOL   H37039946   2.868   2.727   0.227 -0.3109  0.6781  0.8564
   69MOL   H37139947   3.012   2.692   0.036  1.3016 -0.5485 -2.8997
   69MOL   H37239948   2.901   2.684   7.613  2.9338  3.2212  0.3159
   69MOL   H37339949   2.785   2.488   0.032  0.1936 -2.4040 -0.0948
   69MOL   H37439950   2.936   2.455   7.646 -0.3252  0.0330 -0.5734
   69MOL   H37539951   2.799   2.329   0.185  0.2031 -1.5426 -0.7567
   69MOL   H37639952   3.036   2.205   0.137  0.6413 -0.3696  0.2289
   69MOL   H37739953   2.926   2.405   0.395 -1.1406 -0.0845 -0.7829
   69MOL   H37839954   2.912   2.226   0.367 -0.9861 -0.2201  0.0352
   69MOL   C37939955   3.164   2.412   0.376 -0.8828 -0.4447 -0.1805
   69MOL   C38039956   3.314   2.395   0.399 -0.0114  0.0797  0.4664
   69MOL   O38139957   3.313   2.284   0.496  0.2478  0.3346 -0.9327
   69MOL   C38239958   3.387   2.341   0.273 -0.6314  0.3123  0.1377
   69MOL   O38339959   3.396   2.447   0.176 -0.3838  0.2103 -0.7550
   69MOL   C38439960   3.401   2.407   0.040  0.3939  0.1039  0.8004
   69MOL   C38539961   3.267   2.439   7.667 -0.8812  0.0508 -0.1009
   69MOL   C38639962   3.274   2.456   7.509 -0.2640 -0.7780  0.3844
   69MOL   O38739963   3.139   2.472   7.453 -0.7541 -0.1125 -0.0008
   69MOL   C38839964   3.140   2.489   7.312  0.4157  0.2520  0.6324
   69MOL   O38939965   3.196   2.380   7.239 -0.0459 -0.5261 -0.0817
   69MOL   C39039966   2.993   2.507   7.275  0.7537 -0.2638  0.0743
   69MOL   O39139967   2.957   2.647   7.298  0.7180 -0.1728 -0.3265
   69MOL   H39239968   3.114   2.464   0.459 -1.2053 -0.3653 -0.4266
   69MOL   H39339969   3.156   2.481   0.292  0.6980 -0.8923 -0.7116
   69MOL   H39439970   3.361   2.483   0.444  0.2465 -0.5397  1.4203
   69MOL   H39539971   3.239   2.230   0.475  0.4498 -0.3081 -0.0312
   69MOL   H39639972   3.484   2.307   0.310 -1.4393 -0.9968  1.1102
   69MOL   H39739973   3.328   2.261   0.229 -1.8321 -0.7533  3.4926
   69MOL   H39839974   3.434   2.304   0.027  1.3844  0.5916 -0.6573
   69MOL   H39939975   3.477   2.469   7.687  0.9187  0.2944  1.8823
   69MOL   H40039976   3.229   2.532   0.013  0.4078  0.2623  0.6335
   69MOL   H40139977   3.197   2.359   7.691  0.7158 -1.1128  0.7306
   69MOL   H40239978   3.348   2.531   7.482 -2.4956  1.9377  1.5825
   69MOL   H40339979   3.312   2.358   7.481 -0.9147 -1.1520  0.7965
   69MOL   H40439980   3.197   2.578   7.285 -0.9711  1.3386  1.2357
   69MOL   H40539981   3.245   2.419   7.168 -0.4581  0.0009 -0.0815
   69MOL   H40639982   2.986   2.476   7.171 -2.2963  0.2598  0.0658
   69MOL   H40739983   2.931   2.427   7.317  0.7508  0.0417  0.6475
   69MOL   C40839984   2.825   2.679   7.253  0.0529 -0.3272  0.0757
   69MOL   C40939985   2.716   2.614   7.340  0.1485 -0.0798 -0.3258
   69MOL   O41039986   2.676   2.491   7.283 -0.7759  0.6916 -0.0866
   69MOL   C41139987   2.593   2.698   7.370  0.2281 -0.2165 -0.3345
   69MOL   O41239988   2.515   2.617   7.449  0.3553  0.1933 -0.4370
   69MOL   C41339989   2.386   2.673   7.478  0.6498  0.9584  0.4891
   69MOL   C41439990   2.328   2.595   7.592  0.3266  0.0277 -0.3526
   69MOL   C41539991   2.384   2.656   0.032 -0.8201  0.9341  0.0925
   69MOL   O41639992   2.340   2.568   0.133 -0.0935  0.4354  0.2218
   69MOL   C41739993   2.426   2.579   0.241  0.8365  0.3331  0.5590
   69MOL   O41839994   2.552   2.514   0.219 -0.5629  0.2545 -0.1953
   69MOL   C41939995   2.346   2.513   0.352 -0.6338 -0.4088  0.1476
   69MOL   O42039996   2.277   2.615   0.424  0.1140  0.1501 -0.1968
   69MOL   H42139997   2.814   2.664   7.146 -2.8457  2.0471 -0.0089
   69MOL   H42239998   2.825   2.787   7.269  0.3066 -0.5415  1.6118
   69MOL   H42339999   2.754   2.585   7.438  1.7755  1.3542 -0.5024
   69MOL   H42440000   2.600   2.475   7.337 -0.6895  0.7396  0.0504
   69MOL   H42540001   2.614   2.798   7.407  0.0518  0.1592 -1.2160
   69MOL   H42640002   2.537   2.720   7.279 -1.4542  0.0526  0.7366
   69MOL   H42740003   2.384   2.777   7.510  1.1297  0.9592  0.5242
   69MOL   H42840004   2.310   2.676   7.401  0.2399  1.3838  0.9078
   69MOL   H42940005   2.345   2.487   7.583  0.6535  0.0133  0.4020
   69MOL   H43040006   2.220   2.612   7.590  0.2819 -0.2368 -0.3009
   69MOL   H43140007   2.493   2.652   0.025 -0.8919  1.5794 -1.7456
   69MOL   H43240008   2.348   2.757   0.050  0.3178  1.1762  1.0697
   69MOL   H43340009   2.447   2.682   0.270 -2.2094  0.9499  0.6925
   69MOL   H43440010   2.538   2.423   0.240 -3.7032  0.3224 -1.7103
   69MOL   H43540011   2.287   2.429   0.316  0.2913 -1.2156  0.5051
   69MOL   H43640012   2.431   2.490   0.416 -0.9449  1.0622  1.1082
   69MOL   C43740013   2.168   2.671   0.354 -0.0195 -0.1806 -0.1695
   69MOL   C43840014   2.130   2.810   0.426 -0.2685 -0.4271 -0.4253
   69MOL   O43940015   2.102   2.781   0.562  0.9540 -0.0705  0.3025
   69MOL   C44040016   2.029   2.887   0.357  0.1481 -0.6322  0.6366
   69MOL   O44140017   1.916   2.803   0.329 -0.1144 -0.8475  0.4832
   69MOL   C44240018   1.834   2.856   0.229  0.5286  0.5950 -0.2478
   69MOL   C44340019   1.689   2.831   0.253  0.5739  0.0630 -0.5975
   69MOL   C44440020   1.601   2.911   0.165 -0.4169  0.6292 -0.4315
   69MOL   O44540021   1.598   2.871   0.025  0.5626 -0.4730 -0.1455
   69MOL   C44640022   1.477   2.918   7.655 -0.2072 -0.1235  0.4231
   69MOL   O44740023   1.364   2.843   7.693 -0.1410  0.4030  0.2253
   69MOL   C44840024   1.491   2.913   7.503 -0.1130  0.1891  1.0141
   69MOL   O44940025   1.499   3.043   7.450  0.2642 -0.0399 -0.5206
   69MOL   H45040026   2.192   2.700   0.251 -2.2748  1.7893 -0.1877
   69MOL   H45140027   2.078   2.609   0.354  0.3364 -0.6971 -0.1582
   69MOL   H45240028   2.223   2.866   0.433 -0.5238 -0.0965  0.3839
   69MOL   H45340029   2.153   2.702   0.567  0.2840 -0.5170  0.1468
   69MOL   H45440030   1.997   2.984   0.396 -1.8992 -1.5556  1.3275
   69MOL   H45540031   2.079   2.913   0.263  1.0213 -2.6428  0.5180
   69MOL   H45640032   1.856   2.796   0.141  1.8883  2.3959 -1.1639
   69MOL   H45740033   1.855   2.958   0.198  0.4916 -0.0685 -2.5222
   69MOL   H45840034   1.666   2.844   0.359  0.4226 -2.4952 -0.3025
   69MOL   H45940035   1.678   2.723   0.246 -0.2981  0.1499 -0.6563
   69MOL   H46040036   1.500   2.905   0.204  0.4987 -1.2177  1.7729
   69MOL   H46140037   1.628   3.015   0.186  1.7676  0.0425 -0.1902
   69MOL   H46240038   1.464   3.024   7.678 -2.4223 -0.7402  2.1105
   69MOL   H46340039   1.309   2.906   0.042 -1.4978  0.5475 -1.6396
   69MOL   H46440040   1.580   2.860   7.468 -0.5137  1.4052 -1.9677
   69MOL   H46540041   1.407   2.860   7.458  1.4143 -0.2412 -1.4303
   69MOL   C46640042   1.529   3.053   7.312  0.8171  0.2423 -0.1241
   69MOL   C46740043   1.465   3.179   7.256  0.5094  0.0094  0.4394
   69MOL   O46840044   1.524   3.296   7.315  0.3298  0.1153  0.3354
   69MOL   C46940045   1.486   3.178   7.105  0.6384  0.1023 -0.2207
   69MOL   O47040046   1.400   3.073   7.049  0.1479 -0.0371 -0.0254
   69MOL   C47140047   1.390   3.081   6.914 -0.1582 -0.6906  0.6910
   69MOL   C47240048   1.277   2.997   6.855  0.4436 -0.5558  0.0614
   69MOL   C47340049   1.288   2.969   6.705  0.4915 -0.3967  0.0847
   69MOL   O47440050   1.237   2.840   6.680  0.4765 -0.5499 -1.0827
   69MOL   C47540051   1.247   2.787   6.548  0.1631  0.0684 -0.5984
   69MOL   O47640052   1.371   2.732   6.518 -0.2108  0.3790 -0.4009
   69MOL   C47740053   1.197   2.876   6.432  0.5402 -0.4642  0.0036
   69MOL   O47840054   1.079   2.948   6.478  0.1734  0.1673 -0.6828
   69MOL   H47940055   1.481   2.967   7.266  2.5070 -0.8000  0.0157
   69MOL   H48040056   1.634   3.042   7.286  0.7542  1.8680 -1.2031
   69MOL   H48140057   1.356   3.172   7.266  0.2740 -1.3311 -2.5292
   69MOL   H48240058   1.571   3.257   7.386 -0.1282  0.2085  0.6943
   69MOL   H48340059   1.461   3.277   7.066 -0.9750 -0.6389 -1.1054
   69MOL   H48440060   1.591   3.157   7.081  0.5857  1.6018 -1.8489
   69MOL   H48540061   1.481   3.047   6.863  0.0261 -0.8840  1.1468
   69MOL   H48640062   1.364   3.182   6.881  1.2878 -0.0493  1.4491
   69MOL   H48740063   1.173   3.021   6.879  0.2384  1.0983 -2.2282
   69MOL   H48840064   1.293   2.899   6.899 -0.5844 -0.8613 -0.2325
   69MOL   H48940065   1.233   3.045   6.650 -0.9209 -0.9854  0.6668
   69MOL   H49040066   1.391   2.976   6.668  0.1962  0.6678 -0.5652
   69MOL   H49140067   1.182   2.701   6.560 -0.9219  0.9411 -0.1139
   69MOL   H49240068   1.415   2.787   6.455 -1.9082 -0.2710 -2.1754
   69MOL   H49340069   1.271   2.953   6.410  0.0084  0.0147 -0.1106
   69MOL   H49440070   1.175   2.823   6.339 -2.2635  1.1264 -0.3059
   69MOL   C49540071   0.962   2.869   6.507  0.3126 -0.5431 -0.1460
   69MOL   C49640072   0.924   2.772   6.388  0.2838  0.3736  0.3663
   69MOL   O49740073   0.990   2.647   6.409  0.0127  0.1291 -0.2595
   69MOL   C49840074   0.779   2.740   6.396 -0.3099  0.6720 -0.4688
   69MOL   O49940075   0.754   2.682   6.523  0.4427  0.1782  0.3675
   69MOL   C50040076   0.617   2.666   6.571  0.6337 -0.8556 -0.4742
   69MOL   C50140077   0.632   2.576   6.692  0.3192  0.8573 -0.0087
   69MOL   C50240078   0.524   2.472   6.724 -0.6942 -0.7369 -0.2110
   69MOL   O50340079   0.524   2.386   6.606  0.0407 -0.2177 -0.1965
   69MOL   C50440080   0.406   2.329   6.575  0.2074 -1.0274  0.1869
   69MOL   O50540081   0.397   2.222   6.657 -0.4564  0.3599  0.0546
   69MOL   C50640082   0.413   2.284   6.432  0.4963 -0.3900 -0.3625
   69MOL   O50740083   0.284   2.289   6.364  0.3919 -0.6944 -0.4542
   69MOL   H50840084   0.882   2.944   6.510  1.6481  0.8820  1.1043
   69MOL   H50940085   0.958   2.815   6.602 -2.9755 -1.7979 -0.9346
   69MOL   H51040086   0.943   2.815   6.289  0.2093 -1.9696 -0.7107
   69MOL   H51140087   0.931   2.603   6.468  0.3294 -1.2366 -0.9545
   69MOL   H51240088   0.718   2.829   6.378 -1.1205 -0.2997 -2.6582
   69MOL   H51340089   0.748   2.671   6.318 -0.1381  2.8531 -2.5291
   69MOL   H51440090   0.571   2.611   6.489  2.2731  0.7412 -2.5366
   69MOL   H51540091   0.569   2.760   6.598 -0.5469 -1.7532  0.6041
   69MOL   H51640092   0.644   2.624   6.789  0.8251  0.3940  0.1646
   69MOL   H51740093   0.722   2.516   6.682  0.6187  1.5728 -1.6172
   69MOL   H51840094   0.537   2.414   6.816 -0.6078  0.5101  0.5727
   69MOL   H51940095   0.433   2.530   6.732  1.1566  2.2304 -0.1098
   69MOL   H52040096   0.325   2.401   6.591  2.6131  1.8538 -0.1304
   69MOL   H52140097   0.366   2.260   6.738  0.8853 -0.1552  0.8362
   69MOL   H52240098   0.467   2.367   6.385  0.3522 -1.2557 -2.1049
   69MOL   H52340099   0.471   2.193   6.419  1.9627  0.0734  2.4286
   69MOL   C52440100   0.294   2.266   6.228  0.6409  0.0981 -0.3359
   69MOL   C52540101   0.160   2.269   6.149  0.8465  0.0265 -0.4699
   69MOL   O52640102   0.089   2.149   6.193  0.0977 -0.8332 -0.2931
   69MOL   C52740103   0.165   2.231   5.996  0.2409  0.2339 -0.2366
   69MOL   O52840104   0.053   2.291   5.918 -0.6632  0.4503  0.5578
   69MOL   C52940105   7.626   2.220   5.915  0.3360 -0.0634 -0.1346
   69MOL   C53040106   7.532   2.274   5.806 -0.6959 -0.0657 -0.2677
   69MOL   C53140107   7.390   2.229   5.833  0.2739  0.6332 -0.1354
   69MOL   O53240108   7.394   2.087   5.839 -0.1695 -0.0272 -0.0209
   69MOL   C53340109   7.272   2.024   5.881 -0.3061 -0.2995  0.0166
   69MOL   O53440110   7.167   2.040   5.784  0.1583 -0.3022  0.2839
   69MOL   C53540111   7.298   1.880   5.902  0.3975 -0.4007  0.4022
   69MOL   O53640112   7.362   1.810   5.798  0.3650 -0.0699 -0.1377
   69MOL   H53740113   0.347   2.171   6.225 -0.0916 -0.4435  2.3663
   69MOL   H53840114   0.362   2.333   6.174 -0.9395  0.3485 -2.0951
   69MOL   H53940115   0.103   2.361   6.159  0.2512 -0.1567 -2.0429
   69MOL   H54040116   0.109   2.143   6.285  0.8349 -3.2211 -0.5957
   69MOL   H54140117   0.248   2.280   5.946 -1.1468  1.3324 -1.4960
   69MOL   H54240118   0.169   2.122   5.987 -0.4323  0.2697 -0.9805
   69MOL   H54340119   7.574   2.241   6.008  2.4954  1.4743  0.7581
   69MOL   H54440120   7.640   2.112   5.900 -0.1811  0.2255 -2.9493
   69MOL   H54540121   7.565   2.234   5.710 -1.9814 -0.0600 -0.7327
   69MOL   H54640122   7.533   2.382   5.794 -1.0680  0.1326  1.3584
   69MOL   H54740123   7.356   2.249   5.934  1.3564 -1.7338  0.7279
   69MOL   H54840124   7.309   2.263   5.767  0.5076 -0.9348 -1.2561
   69MOL   H54940125   7.241   2.071   5.974 -1.9186 -0.9360 -0.1878
   69MOL   H55040126   7.188   1.985   5.710 -1.1469 -2.0100  1.1535
   69MOL   H55140127   7.360   1.867   5.992  0.6980  1.9048  0.5761
   69MOL   H55240128   7.203   1.828   5.909 -0.6376  1.1045 -1.9525
   69MOL   C55340129   7.507   1.827   5.797 -0.6581 -0.1164 -0.4682
   69MOL   C55440130   7.548   1.850   5.652  0.1346  0.2173 -0.7124
   69MOL   O55540131   7.508   1.732   5.575  0.1636  0.1018 -0.2947
   69MOL   C55640132   0.009   1.870   5.639  0.5515 -0.2440  0.1722
   69MOL   O55740133   0.041   1.889   5.495 -0.3275 -0.5381  0.4210
   69MOL   C55840134   0.184   1.867   5.474 -0.5086  0.5311  0.0553
   69MOL   C55940135   0.228   1.914   5.333  0.6705  0.3911  0.3781
   69MOL   C56040136   0.121   1.880   5.231  0.1310  0.6219 -0.4267
   69MOL   O56140137   0.154   1.937   5.113 -0.4416 -0.7573  0.3588
   69MOL   C56240138   0.053   1.923   5.010 -0.4979 -0.9833 -0.6852
   69MOL   O56340139   7.629   1.993   5.039  0.4016 -0.4661  0.0196
   69MOL   C56440140   0.106   1.970   4.874  0.1277  0.1971  0.1494
   69MOL   O56540141   0.122   2.107   4.882  0.3565 -0.3070  0.2843
   69MOL   H56640142   7.543   1.736   5.845 -0.4013  0.4517  0.4259
   69MOL   H56740143   7.539   1.905   5.865 -0.7293 -0.5358  0.0500
   69MOL   H56840144   7.479   1.928   5.621 -0.1680  0.4807  0.5985
   69MOL   H56940145   7.539   1.745   5.487 -1.9691  3.7812 -0.6161
   69MOL   H57040146   0.029   1.963   5.692  5.3150 -0.5743 -0.8592
   69MOL   H57140147   0.058   1.781   5.680 -1.6202 -1.1211  0.9585
   69MOL   H57240148   0.246   1.904   5.555 -1.3363 -0.4307  1.1592
   69MOL   H57340149   0.205   1.760   5.480 -1.2882  0.4000  0.6011
   69MOL   H57440150   0.323   1.867   5.307  0.9004  1.0732 -0.0272
   69MOL   H57540151   0.248   2.021   5.331  0.1446  0.4970  0.8019
   69MOL   H57640152   0.126   1.772   5.212  1.0198  0.6473 -0.3678
   69MOL   H57740153   0.022   1.907   5.267 -1.1075 -0.5328 -2.8361
   69MOL   H57840154   0.022   1.821   4.987 -1.0158 -0.5369 -2.0393
   69MOL   H57940155   7.567   1.939   5.084  1.2070 -1.7103 -0.3508
   69MOL   H58040156   0.200   1.921   4.849 -0.2252 -0.8806  0.9006
   69MOL   H58140157   0.034   1.952   4.793  1.3463  0.6725 -1.0609
   69MOL   H58240158   0.080   2.129   4.964  2.7523 -1.4605  1.8811
   70MOL     C140159   5.631   4.841   5.449 -0.1088  0.2704 -0.0353
   70MOL     C240160   5.689   4.972   5.504 -0.4509 -0.0965  0.4718
   70MOL     O340161   5.593   5.060   5.557 -0.6160  0.3962  0.3443
   70MOL     C440162   5.794   4.959   5.616 -0.0466 -0.1219  0.1296
   70MOL     O540163   5.738   4.869   5.716  0.7666 -0.8235  0.2100
   70MOL     C640164   5.827   4.835   5.819  0.4718  0.8211  0.3185
   70MOL     C740165   5.764   4.830   5.961  0.2376 -0.2055 -0.4583
   70MOL     C840166   5.872   4.820   6.072  0.7820  0.6452 -0.5266
   70MOL     O940167   5.970   4.918   6.036 -0.2629  0.1127  0.0145
   70MOL    C1040168   6.074   4.939   6.130  1.0178 -0.1034  0.3252
   70MOL    O1140169   6.031   4.964   6.263 -0.2252  0.1381  1.0926
   70MOL    C1240170   6.163   5.053   6.086 -0.3886 -0.8023  0.1167
   70MOL    O1340171   6.086   5.172   6.092 -0.0866  0.4835  0.0269
   70MOL    H1440172   5.595   4.767   5.521 -1.1450  0.2208 -0.5895
   70MOL    H1540173   5.698   4.802   5.373 -0.5542  0.1688 -0.3793
   70MOL    H1640174   5.723   5.033   5.420 -1.0307  0.3233  0.5344
   70MOL    H1740175   5.563   5.021   5.638  3.9797 -0.7739  1.6425
   70MOL    H1840176   5.879   4.911   5.567 -1.5020 -1.1870 -1.4201
   70MOL    H1940177   5.823   5.053   5.664 -0.1159 -1.2374  2.4081
   70MOL    H2040178   5.909   4.907   5.810  0.9710  0.2811  0.4980
   70MOL    H2140179   5.874   4.738   5.804  0.1040  1.0179 -2.2873
   70MOL    H2240180   5.691   4.751   5.977  2.7057 -2.7025 -1.1594
   70MOL    H2340181   5.715   4.927   5.970 -0.8324 -0.8120  0.3059
   70MOL    H2440182   5.831   4.838   6.171  0.6672 -0.9209 -0.2773
   70MOL    H2540183   5.923   4.724   6.074 -0.3338  0.0510 -0.4310
   70MOL    H2640184   6.136   4.850   6.132  2.6361  0.9945  1.0041
   70MOL    H2740185   5.985   5.046   6.257 -0.6811 -0.1001  1.3158
   70MOL    H2840186   6.258   5.060   6.138  0.1044 -0.5457 -0.8125
   70MOL    H2940187   6.193   5.021   5.986  1.5668  2.4937 -0.4341
   70MOL    H3040188   5.547   4.854   5.381 -0.1951  0.8557  0.1794
   70MOL    C3140189   6.095   5.243   5.967 -0.0493 -0.1033  0.6752
   70MOL    C3240190   5.971   5.313   5.938  0.0404  0.3643  0.1718
   70MOL    O3340191   5.947   5.397   6.041  0.5454 -0.0916  0.0557
   70MOL    C3440192   5.847   5.228   5.923 -0.4428 -0.2577 -0.2968
   70MOL    O3540193   5.732   5.308   5.909 -1.0342 -0.0001  0.1808
   70MOL    C3640194   5.619   5.231   5.871  0.9881 -0.3444 -0.2362
   70MOL    C3740195   5.499   5.323   5.831 -0.0181  0.0198 -0.1934
   70MOL    C3840196   5.372   5.254   5.776 -0.3780  0.2799 -0.0723
   70MOL    O3940197   5.270   5.339   5.726 -0.4278  0.3983  1.0217
   70MOL    C4040198   5.202   5.412   5.830  0.0820 -0.4084  0.6769
   70MOL    O4140199   5.116   5.326   5.915 -0.4112 -0.2221 -0.0351
   70MOL    C4240200   5.125   5.527   5.750  0.5876 -1.0984  0.2575
   70MOL    O4340201   5.214   5.626   5.709  0.4446  0.3592  0.3029
   70MOL    H4440202   6.180   5.311   5.972  1.2933 -1.5565 -1.5705
   70MOL    H4540203   6.103   5.177   5.881 -0.7654  0.1694  0.3951
   70MOL    H4640204   5.978   5.367   5.844  0.1813  1.1413  0.6248
   70MOL    H4740205   6.028   5.442   6.059 -0.9402  2.2528  1.2837
   70MOL    H4840206   5.852   5.170   5.831  1.3631  1.4515 -1.3256
   70MOL    H4940207   5.839   5.160   6.008 -0.3167  2.0629  1.6142
   70MOL    H5040208   5.597   5.167   5.957 -1.7253 -3.4788 -3.1346
   70MOL    H5140209   5.623   5.159   5.790 -0.4791 -2.9808  1.9473
   70MOL    H5240210   5.530   5.391   5.751  1.8014  3.0583  2.9750
   70MOL    H5340211   5.474   5.384   5.918 -2.1005  0.3079 -0.9769
   70MOL    H5440212   5.412   5.187   5.699  2.7064  0.6456  1.1503
   70MOL    H5540213   5.335   5.184   5.851  2.1960  0.3076  1.2670
   70MOL    H5640214   5.278   5.461   5.890  0.9957  1.9656 -2.2867
   70MOL    H5740215   5.066   5.381   5.972  0.1299  1.9230 -1.5528
   70MOL    H5840216   5.075   5.492   5.660  1.8857 -1.2560 -0.4191
   70MOL    H5940217   5.042   5.566   5.809  1.5515  0.5505  0.5647
   70MOL    C6040218   5.273   5.611   5.581 -0.0974  0.2036  0.0007
   70MOL    C6140219   5.359   5.730   5.548 -0.1111  0.0461  0.4394
   70MOL    O6240220   5.272   5.843   5.516  0.4646 -0.5950  0.2567
   70MOL    C6340221   5.437   5.693   5.417  0.8052  0.1479 -0.2984
   70MOL    O6440222   5.555   5.772   5.429  0.0452 -0.4557  0.5283
   70MOL    C6540223   5.645   5.761   5.325  0.1834 -0.2376 -0.0146
   70MOL    C6640224   5.747   5.866   5.345 -0.4415 -0.2464  0.0658
   70MOL    C6740225   5.847   5.878   5.233 -0.2337  1.0059 -0.2210
   70MOL    O6840226   5.793   5.906   5.111  0.7542  0.0405 -0.4460
   70MOL    C6940227   5.885   5.903   5.007 -0.3024 -0.3584 -0.2038
   70MOL    O7040228   5.902   5.767   4.970  0.2457 -0.2274 -0.2454
   70MOL    C7140229   5.819   5.987   4.888 -0.0925 -0.0179 -0.0277
   70MOL    O7240230   5.823   6.132   4.904  0.1732  0.3008  0.0901
   70MOL    H7340231   5.198   5.585   5.506  0.9555  0.5915 -1.2139
   70MOL    H7440232   5.337   5.525   5.604 -1.7955 -0.4169  2.6158
   70MOL    H7540233   5.424   5.770   5.625  0.3321  0.1832 -0.0030
   70MOL    H7640234   5.225   5.819   5.437 -0.1506 -0.8633  0.6956
   70MOL    H7740235   5.472   5.591   5.402  0.4733  0.0937 -0.7243
   70MOL    H7840236   5.384   5.721   5.326  1.6987  0.1434 -0.8200
   70MOL    H7940237   5.595   5.774   5.228 -1.2303  0.8969  0.8463
   70MOL    H8040238   5.683   5.659   5.336 -0.2593 -0.0972  3.0154
   70MOL    H8140239   5.806   5.835   5.430  2.4915 -0.1522 -1.8601
   70MOL    H8240240   5.698   5.963   5.350  1.6547  0.9405 -1.3753
   70MOL    H8340241   5.898   5.782   5.239  1.0592  1.5449 -2.2096
   70MOL    H8440242   5.903   5.969   5.256 -1.0300  1.8707 -1.6370
   70MOL    H8540243   5.979   5.949   5.037 -0.2242  0.1613 -1.2185
   70MOL    H8640244   5.990   5.740   4.994  0.2635 -0.2657 -0.3510
   70MOL    H8740245   5.880   5.966   4.800 -0.5676  1.3974 -0.7089
   70MOL    H8840246   5.720   5.945   4.874  0.0183  0.1976 -1.5213
   70MOL    C8940247   5.750   6.196   4.801  0.2245 -0.1998  0.2662
   70MOL    C9040248   5.763   6.344   4.831 -0.3501  0.3429  0.3980
   70MOL    O9140249   5.684   6.370   4.949  0.0365 -0.4558 -0.3417
   70MOL    C9240250   5.907   6.394   4.848  0.1948 -0.6427 -0.2471
   70MOL    O9340251   5.916   6.531   4.805  0.2023 -0.2281 -0.6635
   70MOL    C9440252   6.040   6.594   4.856  0.2547 -0.0834  0.5572
   70MOL    C9540253   6.031   6.641   5.002 -0.0712  0.9439  0.3939
   70MOL    C9640254   6.174   6.681   5.052  0.2412 -0.1678  0.4672
   70MOL    O9740255   6.213   6.610   5.166 -0.3510 -0.1621  0.1866
   70MOL    C9840256   6.349   6.602   5.198  0.2507  0.4848  0.4535
   70MOL    O9940257   6.423   6.512   5.118 -0.1049 -0.2456 -0.5435
   70MOL   C10040258   6.420   6.735   5.202  0.2524  0.0223  0.0896
   70MOL   O10140259   6.365   6.812   5.312  0.0316 -0.1391  0.1239
   70MOL   H10240260   5.647   6.162   4.811 -0.6691  2.8586  2.2790
   70MOL   H10340261   5.785   6.171   4.701 -0.2384  1.2873 -0.2787
   70MOL   H10440262   5.717   6.401   4.751  0.1392 -1.3140 -1.0981
   70MOL   H10540263   5.711   6.304   5.012  0.7032 -0.2447 -0.4032
   70MOL   H10640264   5.948   6.373   4.947 -0.5490  0.6305  0.3434
   70MOL   H10740265   5.959   6.334   4.773  2.5259  0.3277  0.5246
   70MOL   H10840266   6.044   6.686   4.798  1.3691  0.2208  1.1070
   70MOL   H10940267   6.126   6.530   4.836  2.0432  2.7092 -1.0193
   70MOL   H11040268   5.988   6.556   5.055  0.5009  1.5840  1.8951
   70MOL   H11140269   5.959   6.721   5.018  0.6331  1.4736  0.9351
   70MOL   H11240270   6.243   6.667   4.968 -1.7801 -0.8699 -1.1270
   70MOL   H11340271   6.191   6.786   5.075 -0.8198  0.3206 -0.8999
   70MOL   H11440272   6.355   6.558   5.298 -0.5353  0.7759  0.6356
   70MOL   H11540273   6.404   6.428   5.157  1.2381  0.1266  0.9654
   70MOL   H11640274   6.526   6.714   5.214  0.1260 -0.2978  0.6172
   70MOL   H11740275   6.412   6.783   5.104 -0.2790 -0.8877 -0.3163
   70MOL   C11840276   6.418   6.945   5.328 -0.6149 -0.2293 -0.2743
   70MOL   C11940277   6.525   6.939   5.445 -0.5532 -0.3713  0.8045
   70MOL   O12040278   6.639   6.881   5.388 -0.1174  0.1865  0.2081
   70MOL   C12140279   6.488   6.861   5.569 -0.3880 -0.0231 -0.3059
   70MOL   O12240280   6.588   6.896   5.661 -0.1888 -0.2191 -0.6828
   70MOL   C12340281   6.606   6.814   5.774  0.4839 -0.2397 -0.1601
   70MOL   C12440282   6.683   6.889   5.889  0.5180 -0.3924 -0.3586
   70MOL   C12540283   6.666   6.812   6.024 -0.6331  0.2508 -1.1623
   70MOL   O12640284   6.743   6.693   6.036  0.1088 -0.2351  0.0993
   70MOL   C12740285   6.710   6.610   6.146  0.7529 -0.5187  0.3946
   70MOL   O12840286   6.744   6.675   6.266  0.1756 -0.1108  0.3226
   70MOL   C12940287   6.795   6.484   6.151  0.2256 -0.4271 -0.1387
   70MOL   O13040288   6.933   6.510   6.143 -0.1804 -0.1770  0.3847
   70MOL   H13140289   6.452   6.978   5.230  0.7524  1.9060  0.8715
   70MOL   H13240290   6.340   7.013   5.364  0.5710 -0.2049  2.3810
   70MOL   H13340291   6.546   7.044   5.467 -0.5949  0.1853 -1.6773
   70MOL   H13440292   6.665   6.818   5.453  0.5778  1.0100  0.7397
   70MOL   H13540293   6.393   6.896   5.609 -0.5374 -2.1406  1.2703
   70MOL   H13640294   6.479   6.756   5.542 -0.0406 -0.2169  0.3284
   70MOL   H13740295   6.668   6.727   5.753  0.0646 -0.6869  0.4596
   70MOL   H13840296   6.508   6.781   5.808 -0.0110  0.2024 -1.1376
   70MOL   H13940297   6.637   6.988   5.899  1.7759  0.2076 -0.4740
   70MOL   H14040298   6.789   6.902   5.867  0.9685 -2.9191  0.2164
   70MOL   H14140299   6.678   6.876   6.111  0.0457  1.2025 -1.9436
   70MOL   H14240300   6.563   6.781   6.042 -0.2622  0.4908  1.5150
   70MOL   H14340301   6.603   6.592   6.140  1.3037 -3.6332 -1.0092
   70MOL   H14440302   6.674   6.735   6.289  1.0302  1.1960 -0.4195
   70MOL   H14540303   6.768   6.427   6.240  0.7379  0.5917  0.6864
   70MOL   H14640304   6.771   6.426   6.062 -0.8918  0.7628 -0.6168
   70MOL   C14740305   7.009   6.401   6.189 -0.5133 -0.1069 -0.2824
   70MOL   C14840306   7.151   6.428   6.141  0.4034 -0.5282  0.5881
   70MOL   O14940307   7.153   6.372   6.012 -0.2349 -0.5004 -0.8784
   70MOL   C15040308   7.248   6.347   6.225  0.6952 -0.3526  0.0811
   70MOL   O15140309   7.386   6.395   6.204  0.8927 -0.0852  0.3365
   70MOL   C15240310   7.436   6.491   6.295  0.2373  0.3399 -0.2582
   70MOL   C15340311   7.538   6.584   6.224 -0.6674  0.2916  0.6312
   70MOL   C15440312   7.467   6.665   6.125  0.0584  0.2778 -0.1273
   70MOL   O15540313   7.551   6.767   6.075  0.3680 -0.2893 -0.1901
   70MOL   C15640314   7.490   6.851   5.985  0.2163 -0.4482  0.3466
   70MOL   O15740315   7.473   6.781   5.864 -0.3068 -0.5579 -0.3733
   70MOL   C15840316   7.578   6.973   5.973  0.4545  0.1210  0.0456
   70MOL   O15940317   7.547   7.073   6.078  0.6956  0.3353 -0.4315
   70MOL   H16040318   6.974   6.303   6.159  1.6557 -0.7697 -0.7392
   70MOL   H16140319   7.010   6.408   6.297  0.3287  0.3458 -0.3128
   70MOL   H16240320   7.185   6.531   6.134 -1.0959 -0.0307  0.3498
   70MOL   H16340321   7.070   6.389   5.971 -0.0221  1.1136 -0.6464
   70MOL   H16440322   7.220   6.355   6.330  0.9669  1.3145  0.0434
   70MOL   H16540323   7.233   6.245   6.189 -1.5264 -0.9736  2.6265
   70MOL   H16640324   7.479   6.435   6.378 -2.3285 -0.3797  0.6202
   70MOL   H16740325   7.353   6.549   6.336  0.2755 -0.8282  1.4848
   70MOL   H16840326   7.611   6.522   6.173 -1.4544  1.2558 -1.7293
   70MOL   H16940327   7.598   6.644   6.293  1.8689 -0.7023 -0.6509
   70MOL   H17040328   7.415   6.605   6.051  1.7560  0.0555 -1.1621
   70MOL   H17140329   7.395   6.718   6.188  0.9962 -0.2635  1.4270
   70MOL   H17240330   7.386   6.872   6.012  0.7656  2.1272  0.5849
   70MOL   H17340331   7.383   6.754   5.857 -1.2306  2.0627  0.5993
   70MOL   H17440332   7.683   6.956   5.954  0.6713  1.4907 -0.0304
   70MOL   H17540333   7.536   7.016   5.882 -0.3993  0.4052  0.5615
   70MOL   C17640334   7.653   7.085   6.170  0.4302 -0.3466 -0.6972
   70MOL   C17740335   7.637   7.217   6.238 -0.7265 -0.2189 -0.2944
   70MOL   O17840336   7.690   7.331   6.174  0.0205 -0.6598 -0.1576
   70MOL   C17940337   0.001   7.210   6.378  0.1309 -0.8774 -0.3998
   70MOL   O18040338   0.137   7.167   6.357  0.0364  0.4334 -0.4819
   70MOL   C18140339   0.210   7.149   6.476 -0.3733  0.2587 -0.5288
   70MOL   C18240340   0.332   7.055   6.453  1.2010 -0.1703 -0.0809
   70MOL   C18340341   0.408   7.085   6.329  0.3818  0.5265 -0.5279
   70MOL   O18440342   0.519   6.995   6.321  0.0029  0.9545  0.0690
   70MOL   C18540343   0.616   7.029   6.225  0.0871 -0.6121 -0.1854
   70MOL   O18640344   0.555   7.060   6.105 -0.4336 -0.0163  0.0665
   70MOL   C18740345   0.709   6.915   6.201 -0.1892  0.0919  0.1104
   70MOL   O18840346   0.630   6.807   6.151  0.9261 -0.0501  0.0826
   70MOL   H18940347   0.054   7.081   6.117  1.2854 -0.8057  0.8613
   70MOL   H19040348   7.640   6.999   6.235  0.0456  0.2941  0.0855
   70MOL   H19140349   7.534   7.250   6.254 -0.5377 -0.7566  2.3134
   70MOL   H19240350   0.083   7.304   6.149  0.4092  1.2487 -0.9273
   70MOL   H19340351   0.002   7.295   6.447  1.1651 -0.1331 -1.3139
   70MOL   H19440352   7.646   7.127   6.428 -0.3481 -0.0923  0.4522
   70MOL   H19540353   0.142   7.097   6.544  0.1840  0.9613  0.5757
   70MOL   H19640354   0.226   7.247   6.521  2.2443 -0.8788  1.1011
   70MOL   H19740355   0.300   6.951   6.438  0.4712  0.0446 -0.0488
   70MOL   H19840356   0.408   7.059   6.531 -0.6714  0.6394  1.7603
   70MOL   H19940357   0.344   7.070   6.242  1.0774 -2.3336 -0.6035
   70MOL   H20040358   0.448   7.187   6.324  0.9768  0.3107 -0.2683
   70MOL   H20140359   0.668   7.113   6.271  0.4639  0.8660 -3.1706
   70MOL   H20240360   0.513   6.979   6.083 -3.1812  1.8854 -1.9898
   70MOL   H20340361   0.781   6.934   6.121  0.8100 -1.8015  0.5161
   70MOL   H20440362   0.755   6.898   6.299  1.0061  0.9519 -0.2850
   70MOL   C20540363   0.707   6.693   6.116 -0.6680 -0.7111  0.4259
   70MOL   C20640364   0.619   6.563   6.118  0.3017  0.5091  0.4436
   70MOL   O20740365   0.595   6.527   5.979  0.3517  0.0897  1.0466
   70MOL   C20840366   0.684   6.442   6.184 -0.0010 -0.4005  0.2486
   70MOL   O20940367   0.572   6.362   6.225 -0.4941 -0.5257  0.3048
   70MOL   C21040368   0.618   6.232   6.245 -0.0755 -0.1294  0.0051
   70MOL   C21140369   0.501   6.141   6.306  0.5780  0.4274 -0.2147
   70MOL   C21240370   0.547   5.999   6.322 -0.4541 -0.4709  1.1437
   70MOL   O21340371   0.460   5.931   6.412  0.6347  0.7606  0.1946
   70MOL   C21440372   0.482   5.954   6.549  0.1170  0.0745 -0.3620
   70MOL   O21540373   0.535   5.839   6.605  0.0101 -0.2268  0.4112
   70MOL   C21640374   0.349   5.987   6.618  0.0179  0.7418  0.5415
   70MOL   O21740375   0.287   6.117   6.596  0.2990  0.2324  0.0446
   70MOL   H21840376   0.787   6.685   6.190  0.6969 -0.2170 -0.9406
   70MOL   H21940377   0.767   6.713   6.027 -3.7950 -0.3959 -1.7000
   70MOL   H22040378   0.529   6.590   6.173  1.0721  3.4784  0.2886
   70MOL   H22140379   0.527   6.462   5.977 -0.2036  0.7065 -0.2599
   70MOL   H22240380   0.750   6.391   6.115  1.6523  2.3196 -0.2736
   70MOL   H22340381   0.743   6.474   6.270  0.3445  0.7679 -0.4121
   70MOL   H22440382   0.711   6.230   6.302  0.8941  1.5922 -1.4470
   70MOL   H22540383   0.645   6.193   6.147  1.0969  1.1512 -0.1979
   70MOL   H22640384   0.416   6.144   6.238  0.3648 -0.7596 -0.0131
   70MOL   H22740385   0.472   6.180   6.404 -0.6787  0.5291 -0.6201
   70MOL   H22840386   0.540   5.939   6.231 -0.8178  2.5583 -0.9188
   70MOL   H22940387   0.653   6.003   6.345 -0.0737  1.4791 -0.7312
   70MOL   H23040388   0.554   6.034   6.567 -0.6669  0.5815  0.5194
   70MOL   H23140389   0.483   5.770   6.566 -1.3471  0.7373  0.5016
   70MOL   H23240390   0.278   5.909   6.592 -0.1088  1.0951 -0.1723
   70MOL   H23340391   0.367   5.991   6.726 -0.1214  0.2010  0.5863
   70MOL   C23440392   0.182   6.158   6.676  0.3461  0.0382 -0.0610
   70MOL   C23540393   0.214   6.182   6.826  0.3258  0.1376  0.0042
   70MOL   O23640394   0.081   6.182   6.884 -0.7649 -0.3672 -0.4588
   70MOL   C23740395   0.269   6.320   6.864  0.1079  0.1671  0.1056
   70MOL   O23840396   0.314   6.322   7.000 -0.1363  0.5258  0.4324
   70MOL   C23940397   0.427   6.402   7.029  0.0904 -0.1309  0.6403
   70MOL   C24040398   0.416   6.557   6.998 -0.1311  0.3996  0.1893
   70MOL   C24140399   0.302   6.630   7.065  0.1951 -0.0764  0.0123
   70MOL   O24240400   0.292   6.597   7.205  0.1098  0.5554  0.4733
   70MOL   C24340401   0.176   6.644   7.257  0.3689  1.0768  0.8461
   70MOL   O24440402   0.168   6.783   7.264  0.3242  0.1317  0.3161
   70MOL   C24540403   0.163   6.584   7.401 -0.2954 -0.1010 -0.4791
   70MOL   O24640404   0.024   6.594   7.442 -0.1239  0.1600  0.3632
   70MOL   H24740405   0.154   6.255   6.635  2.1711  0.4768 -0.3206
   70MOL   H24840406   0.096   6.092   6.666 -0.0516  0.3631  1.1222
   70MOL   H24940407   0.280   6.101   6.858  2.4139  2.2134  1.1584
   70MOL   H25040408   0.082   6.223   6.970 -1.3052 -0.1583 -0.5481
   70MOL   H25140409   0.343   6.341   6.788 -2.0707 -2.0529 -2.7723
   70MOL   H25240410   0.193   6.398   6.858  1.2275  1.1557 -1.2403
   70MOL   H25340411   0.503   6.358   6.965 -1.2044 -0.1322 -0.9402
   70MOL   H25440412   0.445   6.378   7.133  1.0188 -1.2342  0.2355
   70MOL   H25540413   0.406   6.577   6.891  0.4323 -0.5297 -0.0382
   70MOL   H25640414   0.505   6.600   7.041  0.4891 -1.0296  0.3514
   70MOL   H25740415   0.309   6.738   7.051  0.4281 -0.1964 -0.7908
   70MOL   H25840416   0.210   6.596   7.018  0.2881 -1.4129  0.7928
   70MOL   H25940417   0.094   6.612   7.193  1.2738  2.1700 -0.9031
   70MOL   H26040418   0.211   6.809   7.344  0.6921 -1.0589  0.5156
   70MOL   H26140419   0.190   6.478   7.391  0.2315 -0.1791  1.5914
   70MOL   H26240420   0.239   6.625   7.467  0.5343 -0.1512 -1.3766
   70MOL   C26340421   7.689   6.499   7.541  0.2532  0.0829  0.1835
   70MOL   C26440422   7.539   6.490   7.562  0.5290  0.4282  0.3502
   70MOL   O26540423   7.491   6.632   7.578 -0.5865 -0.2698 -0.7021
   70MOL   C26640424   7.463   6.419   7.447 -0.0270  0.0806 -0.2713
   70MOL   O26740425   7.325   6.410   7.480  0.2759  0.4950 -0.2333
   70MOL   C26840426   7.263   6.314   7.398  0.7199  0.4589 -0.2272
   70MOL   C26940427   7.116   6.303   7.447 -0.0319 -0.0972 -0.0750
   70MOL   C27040428   7.018   6.196   7.378  0.1129  0.2673 -0.2560
   70MOL   O27140429   7.075   6.072   7.408  0.4732 -0.1576  0.2592
   70MOL   C27240430   7.013   5.960   7.353  0.2348 -0.3360 -0.2225
   70MOL   O27340431   7.020   5.948   7.216 -0.0907  0.4029 -0.2586
   70MOL   C27440432   7.074   5.833   7.402  0.6102 -0.3085  0.1357
   70MOL   O27540433   7.210   5.832   7.388 -0.1990 -0.0621 -0.5590
   70MOL   H27640434   0.027   6.534   7.639 -0.1209  0.0283  0.3266
   70MOL   H27740435   0.036   6.399   7.524 -0.5890 -0.0339 -1.1969
   70MOL   H27840436   7.534   6.429   7.653  2.2228 -0.9360 -0.4629
   70MOL   H27940437   7.553   6.669   7.517 -0.3494  0.7851  0.1666
   70MOL   H28040438   7.478   6.477   7.355 -1.3484 -0.9895 -1.1795
   70MOL   H28140439   7.502   6.318   7.433  1.0866  0.7241 -2.0742
   70MOL   H28240440   7.307   6.216   7.418  0.5636 -0.6130 -4.6136
   70MOL   H28340441   7.261   6.340   7.293  2.0784 -0.1462 -0.4026
   70MOL   H28440442   7.073   6.402   7.460  1.7365  1.0851 -2.7149
   70MOL   H28540443   7.115   6.267   7.550 -0.4609 -2.2257 -0.8059
   70MOL   H28640444   6.914   6.205   7.410  0.0201  0.0650 -0.5019
   70MOL   H28740445   7.005   6.195   7.270  0.3536 -1.5522 -0.2692
   70MOL   H28840446   6.908   5.964   7.383  0.4084  1.2468  0.2407
   70MOL   H28940447   7.113   5.938   7.204 -0.1079 -1.9719  1.2791
   70MOL   H29040448   7.039   5.822   7.505 -0.2183 -1.4711 -0.2568
   70MOL   H29140449   7.033   5.750   7.344 -1.6471  1.5327 -0.9636
   70MOL   C29240450   7.265   5.708   7.426 -0.1996 -0.0303  0.1020
   70MOL   C29340451   7.419   5.707   7.405  0.5283  0.4752 -0.2874
   70MOL   O29440452   7.485   5.732   7.530 -0.0027 -0.2288 -0.7046
   70MOL   C29540453   7.486   5.584   7.336  0.1690 -0.6179  0.6224
   70MOL   O29640454   7.453   5.481   7.432  0.1308 -0.1387  0.1056
   70MOL   C29740455   7.507   5.354   7.397 -0.2117  0.2579 -0.3656
   70MOL   C29840456   7.448   5.244   7.489  0.1074  0.1053 -0.6162
   70MOL   C29940457   7.485   5.267   7.637  0.1257  0.3243  0.2167
   70MOL   O30040458   7.456   5.144   0.021  0.3488 -0.3762 -0.6057
   70MOL   C30140459   7.402   5.159   0.150 -0.6555  0.4247  0.3712
   70MOL   O30240460   7.264   5.130   0.144 -0.2346 -0.2588 -0.0868
   70MOL   C30340461   7.472   5.064   0.241 -0.7576 -0.2975 -0.3442
   70MOL   O30440462   7.603   5.101   0.275 -0.0177  0.3023 -0.5242
   70MOL   H30540463   7.248   5.685   7.531  0.9218  1.6556  0.6901
   70MOL   H30640464   7.215   5.626   7.374 -1.1563  0.1550  0.7190
   70MOL   H30740465   7.437   5.800   7.350 -0.8141  0.5038 -0.6848
   70MOL   H30840466   7.524   5.650   7.554  0.4802  0.3412  0.5367
   70MOL   H30940467   7.463   5.559   7.233 -1.3678  0.2290  0.7432
   70MOL   H31040468   7.593   5.605   7.339 -0.0196  0.4332  0.5048
   70MOL   H31140469   7.616   5.351   7.384  0.2421  0.2996  2.8317
   70MOL   H31240470   7.472   5.331   7.297  1.5263 -1.1402 -0.6784
   70MOL   H31340471   7.479   5.152   7.440  0.4661  0.9252 -1.9728
   70MOL   H31440472   7.339   5.252   7.478  0.0080 -0.3616  0.0466
   70MOL   H31540473   7.593   5.281   7.636  0.0973  0.5075 -0.2817
   70MOL   H31640474   7.441   5.358   7.677 -0.8589 -0.3997  0.8154
   70MOL   H31740475   7.414   5.261   0.186  2.0770  0.3646 -0.2550
   70MOL   H31840476   7.220   5.189   0.083  0.3766  0.8821  0.5649
   70MOL   H31940477   7.478   4.965   0.195  0.5893  0.5165 -1.9689
   70MOL   H32040478   7.426   5.047   0.338 -0.4303 -0.3977 -0.2054
   70MOL   C32140479   7.628   5.199   0.377  0.2793  0.3051  0.2145
   70MOL   C32240480   7.609   5.144   0.518 -0.1723  0.2757  0.7590
   70MOL   O32340481   7.475   5.177   0.552  0.5203  0.5520  0.4551
   70MOL   C32440482   7.645   5.002   0.539 -0.1908  0.5197 -0.5404
   70MOL   O32540483   7.661   4.972   0.677 -0.2034 -0.1154 -0.0641
   70MOL   C32640484   0.035   4.849   0.695 -0.0727  0.3526  0.2436
   70MOL   C32740485   0.088   4.827   0.842 -0.1661 -0.9100 -0.0856
   70MOL   C32840486   0.196   4.920   0.883 -0.6271  0.0260 -0.5339
   70MOL   O32940487   0.217   4.889   1.021 -0.2049 -0.5114  0.1659
   70MOL   C33040488   0.334   4.823   1.050 -0.0158 -0.8586 -0.1797
   70MOL   O33140489   0.448   4.908   1.036  0.4798  0.3884  0.1329
   70MOL   C33240490   0.323   4.769   1.201 -0.2297 -0.1220  0.1992
   70MOL   O33340491   0.422   4.663   1.221 -0.1341  0.7355 -0.0101
   70MOL   H33440492   7.571   5.290   0.357 -0.2089 -0.5384 -2.3707
   70MOL   H33540493   0.039   5.228   0.375  1.1959 -2.7168  1.4623
   70MOL   H33640494   7.677   5.206   0.577  1.7356 -1.0291  0.0098
   70MOL   H33740495   7.446   5.138   0.633  1.6155 -0.1590  0.5077
   70MOL   H33840496   0.040   4.981   0.481  0.6144  0.6130  0.6324
   70MOL   H33940497   7.556   4.952   0.500  0.1469 -0.7184  0.2363
   70MOL   H34040498   0.122   4.841   0.630 -0.4329 -2.5731  0.0501
   70MOL   H34140499   7.663   4.766   0.668  2.1724 -1.2417 -0.5874
   70MOL   H34240500   0.007   4.833   0.915  0.9197  1.0357  1.0112
   70MOL   H34340501   0.126   4.725   0.846  0.3454 -0.6919  0.8807
   70MOL   H34440502   0.284   4.913   0.819  0.7754  0.1179  1.3349
   70MOL   H34540503   0.162   5.024   0.880 -0.6318  0.0630  0.7163
   70MOL   H34640504   0.347   4.749   0.970  0.5473 -0.4553 -0.4628
   70MOL   H34740505   0.466   4.939   1.123  1.5091  1.7446 -0.5386
   70MOL   H34840506   0.325   4.847   1.278  2.1260 -0.1259  0.1695
   70MOL   H34940507   0.224   4.724   1.212 -1.5538  2.6930  0.4328
   70MOL   C35040508   0.407   4.595   1.347 -0.1340 -1.3317  0.3786
   70MOL   C35140509   0.473   4.459   1.353  0.2339  0.0791  0.1420
   70MOL   O35240510   0.470   4.396   1.483 -0.3934  0.1665 -0.3242
   70MOL   C35340511   0.428   4.361   1.242 -0.0713  0.4822  0.0615
   70MOL   O35440512   0.508   4.246   1.240  0.2772  0.4673  0.3736
   70MOL   C35540513   0.480   4.149   1.135  0.7509 -0.6743  0.6725
   70MOL   C35640514   0.543   4.014   1.156 -0.0908 -0.4416  0.5259
   70MOL   C35740515   0.694   4.028   1.119 -0.5563  0.2761  0.5882
   70MOL   O35840516   0.742   3.901   1.133  0.3309  0.1455  0.4955
   70MOL   C35940517   0.875   3.887   1.087 -0.8528  0.8893  0.7067
   70MOL   O36040518   0.968   3.956   1.163  0.0760 -0.1429 -0.0859
   70MOL   C36140519   0.925   3.737   1.090  0.0695  0.1188  0.8007
   70MOL   O36240520   0.943   3.690   1.225 -0.6144 -0.3978 -0.4806
   70MOL   H36340521   0.304   4.578   1.377 -0.7176  0.9135 -0.2155
   70MOL   H36440522   0.448   4.662   1.423 -1.4911 -1.3190  1.1059
   70MOL   H36540523   0.580   4.472   1.337  0.1423  0.8214  0.1013
   70MOL   H36640524   0.514   4.313   1.483  2.9623  1.7988  2.0547
   70MOL   H36740525   0.324   4.332   1.260 -0.5905  2.7495  1.0069
   70MOL   H36840526   0.432   4.416   1.148  1.8307  1.2922  0.5961
   70MOL   H36940527   0.510   4.190   1.038 -0.9807 -1.7897 -0.3630
   70MOL   H37040528   0.372   4.148   1.123  0.9468 -0.6257 -1.1969
   70MOL   H37140529   0.486   3.953   1.085  0.6249 -1.0274  0.4488
   70MOL   H37240530   0.524   3.991   1.261 -1.4632 -1.1011  0.1485
   70MOL   H37340531   0.704   4.058   1.015 -1.9021  0.9288  0.6364
   70MOL   H37440532   0.737   4.096   1.193  1.4183 -0.3234  0.0169
   70MOL   H37540533   0.888   3.925   0.986 -1.5962  1.2941  0.7588
   70MOL   H37640534   0.984   3.909   1.243 -0.9069  0.4135  0.4457
   70MOL   H37740535   0.857   3.680   1.027  0.0404  0.1283  0.8234
   70MOL   H37840536   1.023   3.738   1.043 -1.3866  1.6057 -2.3295
   70MOL   C37940537   0.997   3.555   1.227 -0.3152 -0.2409 -1.3364
   70MOL   C38040538   0.975   3.489   1.368 -0.2346  1.1002  0.5480
   70MOL   O38140539   0.854   3.418   1.362 -0.6605  0.2983 -0.1746
   70MOL   C38240540   1.089   3.396   1.413  0.7547 -1.1543 -0.4561
   70MOL   O38340541   1.162   3.322   1.314  0.6032 -0.1930  0.2217
   70MOL   C38440542   1.087   3.218   1.250 -0.5035  0.2676  0.6159
   70MOL   C38540543   1.155   3.192   1.116 -0.2545  0.3182  0.6825
   70MOL   C38640544   1.129   3.285   1.008  0.1810 -0.1262  0.9067
   70MOL   O38740545   1.183   3.241   0.888 -0.0020 -0.0328 -0.1284
   70MOL   C38840546   1.164   3.321   0.781  0.5202  0.4230  0.0452
   70MOL   O38940547   1.251   3.280   0.679  0.0889 -0.3178 -0.2423
   70MOL   C39040548   1.020   3.307   0.730 -0.8464 -0.0905  0.6293
   70MOL   O39140549   0.983   3.172   0.728 -0.0714 -0.0584  0.0416
   70MOL   H39240550   1.104   3.566   1.214 -0.0764 -0.6385  0.2571
   70MOL   H39340551   0.967   3.479   1.155 -0.3765 -0.8220 -0.6980
   70MOL   H39440552   0.954   3.569   1.440  2.5617  2.6255 -0.2928
   70MOL   H39540553   0.831   3.400   1.452 -0.3394 -0.2496 -0.2042
   70MOL   H39640554   1.168   3.463   1.449 -1.6442  1.4394  0.1626
   70MOL   H39740555   1.051   3.339   1.497 -1.5874 -2.7020 -2.5144
   70MOL   H39840556   0.982   3.244   1.239 -0.3094  0.9074  0.2511
   70MOL   H39940557   1.102   3.132   1.315  0.0419 -0.2879 -0.2339
   70MOL   H40040558   1.129   3.091   1.085  1.9132  0.1676 -0.7655
   70MOL   H40140559   1.264   3.190   1.121 -0.2650  1.3058  1.3717
   70MOL   H40240560   1.021   3.295   1.007  0.3990  2.6433  0.8469
   70MOL   H40340561   1.167   3.386   1.025 -0.0145  0.4033 -1.6160
   70MOL   H40440562   1.191   3.424   0.806  2.2189 -0.2433  0.9616
   70MOL   H40540563   1.227   3.192   0.655 -0.9622 -0.7733  2.3621
   70MOL   H40640564   0.953   3.370   0.789 -0.4708 -0.9195  1.9509
   70MOL   H40740565   1.026   3.346   0.629  0.4489  0.2920  0.8461
   70MOL   C40840566   0.863   3.155   0.650 -0.0800  0.1238 -0.3710
   70MOL   C40940567   0.826   3.006   0.658 -0.0619 -0.2986  0.7284
   70MOL   O41040568   0.907   2.941   0.557  0.0001 -0.0309  0.3089
   70MOL   C41140569   0.680   2.977   0.614 -0.0238 -0.7372 -0.2534
   70MOL   O41240570   0.633   2.848   0.656  0.1877  0.5118 -0.1956
   70MOL   C41340571   0.555   2.854   0.777  0.0483  0.0421  0.2551
   70MOL   C41440572   0.525   2.707   0.815 -0.2923  0.9290 -0.1038
   70MOL   C41540573   0.421   2.686   0.924 -0.0276 -0.2798 -0.2989
   70MOL   O41640574   0.286   2.711   0.890  1.0930  0.0178  0.0022
   70MOL   C41740575   0.243   2.840   0.913  0.6249 -0.2100 -0.0680
   70MOL   O41840576   0.167   2.846   1.034  0.6536  0.0399 -1.3548
   70MOL   C41940577   0.156   2.876   0.792 -0.6482 -0.0296  0.3473
   70MOL   O42040578   0.239   2.909   0.683  0.6925 -0.9257 -0.5637
   70MOL   H42140579   0.876   3.182   0.545 -1.4954 -1.1437 -0.8846
   70MOL   H42240580   0.775   3.216   0.670 -0.5603 -0.5663 -0.3928
   70MOL   H42340581   0.849   2.974   0.759  1.9467 -0.1944  0.3177
   70MOL   H42440582   0.916   2.856   0.598 -1.7537 -0.2124  0.3614
   70MOL   H42540583   0.603   3.048   0.646  2.4732  1.2229  1.5906
   70MOL   H42640584   0.677   2.976   0.505  1.0003 -1.1262 -0.2826
   70MOL   H42740585   0.622   2.896   0.852  0.6185  0.9452 -0.7580
   70MOL   H42840586   0.465   2.911   0.754  0.2673 -0.1006 -0.9802
   70MOL   H42940587   0.617   2.665   0.856  0.3199  1.1512 -1.2156
   70MOL   H43040588   0.490   2.652   0.727  1.0984 -0.2544  0.0657
   70MOL   H43140589   0.425   2.578   0.944  1.4402 -0.3918 -1.1384
   70MOL   H43240590   0.455   2.729   1.019 -3.1547  0.1249  0.6919
   70MOL   H43340591   0.330   2.906   0.920  0.4246  0.2633 -1.8198
   70MOL   H43440592   0.142   2.936   1.045  0.0407 -0.1644 -1.0607
   70MOL   H43540593   0.083   2.795   0.782  1.3834 -2.1494  2.1266
   70MOL   H43640594   0.105   2.963   0.833 -0.1433  0.7674 -0.6739
   70MOL   C43740595   0.172   2.969   0.579 -0.2107 -0.0301  0.4433
   70MOL   C43840596   0.274   2.997   0.474  0.1670 -0.2148  0.4588
   70MOL   O43940597   0.346   3.111   0.507  0.2705 -0.4645 -0.2463
   70MOL   C44040598   0.208   3.020   0.336  0.4931 -0.6976  0.0100
   70MOL   O44140599   0.136   2.908   0.279 -0.1044  0.8102  0.0203
   70MOL   C44240600   0.019   2.942   0.199  0.5517 -0.8409  0.1757
   70MOL   C44340601   7.596   2.997   0.291  0.0103  0.5264 -0.0123
   70MOL   C44440602   7.529   2.889   0.372  0.8370  0.1620  0.2843
   70MOL   O44540603   7.442   2.949   0.467  0.3482 -0.5429  0.2365
   70MOL   C44640604   7.413   2.858   0.569  0.0949  0.5693 -0.2016
   70MOL   O44740605   7.330   2.749   0.534 -0.3318 -0.2542  0.3304
   70MOL   C44840606   7.368   2.928   0.695  0.5939  0.2689  0.4746
   70MOL   O44940607   7.412   2.867   0.810 -0.3379  0.2908  0.0744
   70MOL   H45040608   0.097   2.902   0.536  0.9037 -2.0183  1.5442
   70MOL   H45140609   0.126   3.064   0.608 -1.4873  0.0632 -1.7712
   70MOL   H45240610   0.344   2.915   0.459  1.2662  0.8113 -0.1460
   70MOL   H45340611   0.377   3.097   0.595 -0.7657 -0.3563  0.1478
   70MOL   H45440612   0.147   3.107   0.364  1.1818 -0.2336  0.0797
   70MOL   H45540613   0.280   3.053   0.262  0.6599 -2.1582 -0.4808
   70MOL   H45640614   7.683   2.869   0.124 -0.5885  0.3556 -0.5542
   70MOL   H45740615   0.046   3.026   0.134 -0.9143  0.0937  0.7356
   70MOL   H45840616   7.523   3.038   0.220  0.4042  2.1482  0.4796
   70MOL   H45940617   7.627   3.085   0.348  1.5511  1.7255 -2.5895
   70MOL   H46040618   7.470   2.819   0.313  0.8309 -0.4284  0.9913
   70MOL   H46140619   7.602   2.819   0.413  0.7636 -1.4056 -2.1757
   70MOL   H46240620   7.504   2.813   0.608 -0.5481 -0.4310  0.1712
   70MOL   H46340621   7.241   2.776   0.553 -0.8827 -2.2001  0.6537
   70MOL   H46440622   7.400   3.032   0.702 -1.3207  1.0068 -1.2258
   70MOL   H46540623   7.260   2.928   0.690  0.6364 -1.2321 -0.8109
   70MOL   C46640624   7.368   2.940   0.924 -0.7491 -0.2048 -0.4621
   70MOL   C46740625   7.420   2.875   1.051  0.2087 -0.2714 -0.6333
   70MOL   O46840626   7.414   2.974   1.150  0.5650 -0.5588 -0.2176
   70MOL   C46940627   7.331   2.763   1.106  0.1201  0.3331  0.7518
   70MOL   O47040628   7.374   2.715   1.236 -0.0700 -0.1796 -0.4728
   70MOL   C47140629   7.279   2.633   1.315 -0.2294  0.0084  0.0786
   70MOL   C47240630   7.340   2.596   1.449 -0.3696  0.7755  0.8249
   70MOL   C47340631   7.432   2.476   1.430 -0.1751  0.2905 -0.2266
   70MOL   O47440632   7.483   2.424   1.550 -0.1991 -0.5940 -0.7247
   70MOL   C47540633   7.584   2.323   1.539 -0.6676  0.2063 -0.5045
   70MOL   O47640634   7.529   2.191   1.511  0.3436  0.2057 -0.0057
   70MOL   C47740635   7.659   2.299   1.667  0.7721 -0.3456 -0.2642
   70MOL   O47840636   0.097   2.350   1.649 -0.5247  0.0751  0.0845
   70MOL   H47940637   7.261   2.960   0.924 -0.3583  2.0569  1.0014
   70MOL   H48040638   7.429   3.030   0.920  1.6006 -1.7324 -0.3123
   70MOL   H48140639   7.522   2.844   1.033  0.3860 -0.5417  0.7433
   70MOL   H48240640   7.414   2.939   1.238 -3.2157  0.2330  0.1902
   70MOL   H48340641   7.230   2.804   1.117  1.0854  2.9624  0.1393
   70MOL   H48440642   7.314   2.680   1.037 -0.2776 -0.5732  1.9127
   70MOL   H48540643   7.262   2.543   1.257 -0.3902  1.1812 -1.7259
   70MOL   H48640644   7.183   2.681   1.333  0.1683  1.4864 -1.5502
   70MOL   H48740645   7.262   2.566   1.519  0.3936 -2.8886  0.2093
   70MOL   H48840646   7.396   2.681   1.490 -0.3514  1.6451 -0.9730
   70MOL   H48940647   7.373   2.402   1.376  1.9547 -1.1123 -0.7106
   70MOL   H49040648   7.508   2.502   1.357  1.0040 -0.1905  0.8117
   70MOL   H49140649   7.655   2.352   1.462  0.4967 -1.2651 -0.0001
   70MOL   H49240650   7.582   2.159   1.439  1.0709 -0.6649  0.8916
   70MOL   H49340651   7.611   2.367   1.738 -0.8767 -0.7162 -0.9859
   70MOL   H49440652   7.660   2.195   1.699  1.1346 -0.2092  0.1670
   70MOL   C49540653   0.165   2.379   1.776  0.8933  0.1048 -0.0848
   70MOL   C49640654   0.306   2.437   1.744  0.1403 -0.2346  0.2693
   70MOL   O49740655   0.374   2.323   1.697  0.0233  0.2606  0.4666
   70MOL   C49840656   0.305   2.553   1.636 -0.0443  0.1678 -0.3062
   70MOL   O49940657   0.281   2.685   1.679 -0.1829  0.4785  0.0075
   70MOL   C50040658   0.380   2.749   1.744  0.1095 -0.0677 -0.0620
   70MOL   C50140659   0.363   2.900   1.741 -0.0352 -0.6198  0.2530
   70MOL   C50240660   0.481   2.985   1.805  0.8831  1.0693 -0.4040
   70MOL   O50340661   0.430   3.118   1.797 -0.1437 -0.5625 -0.0765
   70MOL   C50440662   0.513   3.208   1.868 -0.0746 -0.4204  0.7405
   70MOL   O50540663   0.482   3.205   2.004 -0.4818 -0.1509 -0.9824
   70MOL   C50640664   0.481   3.348   1.801  0.1329 -0.7204 -0.3659
   70MOL   O50740665   0.540   3.357   1.679 -0.6753  0.5351 -0.0980
   70MOL   H50840666   0.170   2.287   1.835 -1.2740  1.1669  1.8238
   70MOL   H50940667   0.124   2.464   1.830  2.9775  0.4872  0.9561
   70MOL   H51040668   0.369   2.466   1.828  2.9032  1.5927 -2.3315
   70MOL   H51140669   0.324   2.299   1.620  0.7710 -1.7626  0.5760
   70MOL   H51240670   0.401   2.540   1.585  0.0447  1.2383 -0.4122
   70MOL   H51340671   0.231   2.531   1.559 -0.0930  1.1041 -0.5297
   70MOL   H51440672   0.472   2.722   1.693 -0.5989 -1.6384 -0.5621
   70MOL   H51540673   0.388   2.710   1.846 -2.1178  0.4977  0.3645
   70MOL   H51640674   0.272   2.921   1.798 -1.0111 -0.4721 -1.3341
   70MOL   H51740675   0.339   2.937   1.641 -0.4668  2.3445  1.4199
   70MOL   H51840676   0.504   2.952   1.907 -1.1132  0.6620 -0.0463
   70MOL   H51940677   0.571   2.974   1.745  1.8403  0.4619  1.0903
   70MOL   H52040678   0.617   3.178   1.855 -0.8128 -2.4218 -0.9213
   70MOL   H52140679   0.389   3.216   2.015  0.1437  3.8201  1.1269
   70MOL   H52240680   0.375   3.371   1.804  0.3795  0.4853 -0.6751
   70MOL   H52340681   0.521   3.421   1.871  0.1493 -2.2803  1.2925
   70MOL   C52440682   0.461   3.388   1.562 -0.0591  0.3317  0.1345
   70MOL   C52540683   0.409   3.264   1.478 -0.1985  0.1337  0.3718
   70MOL   O52640684   0.297   3.229   1.550 -0.0344 -0.0891 -0.3995
   70MOL   C52740685   0.500   3.139   1.453  0.0960 -0.0432  0.6523
   70MOL   O52840686   0.431   3.054   1.352  0.4234 -0.2898 -0.3542
   70MOL   C52940687   0.488   2.923   1.333  0.4212  0.3491 -0.6456
   70MOL   C53040688   0.626   2.917   1.260 -0.2815  0.5358 -0.8524
   70MOL   C53140689   0.631   2.970   1.117  0.9717 -0.5657 -0.1298
   70MOL   O53240690   0.666   3.103   1.122  0.2939 -0.2939 -0.4631
   70MOL   C53340691   0.702   3.161   1.000 -1.0229  0.3677 -0.6245
   70MOL   O53440692   0.612   3.149   0.898  0.9578 -0.3428 -0.1892
   70MOL   C53540693   0.733   3.311   1.025 -1.1902  0.0733  0.2581
   70MOL   O53640694   0.612   3.382   1.050  0.1926 -0.5649 -0.0127
   70MOL   H53740695   0.524   3.435   1.485 -1.6000 -2.7331 -3.1397
   70MOL   H53840696   0.380   3.456   1.587  0.8132  1.6268 -0.4511
   70MOL   H53940697   0.360   3.316   1.396  2.9332  3.2372  0.3393
   70MOL   H54040698   0.312   3.202   1.639  0.2443 -0.3049 -0.5110
   70MOL   H54140699   0.592   3.161   1.399  0.4890  2.3627  2.2320
   70MOL   H54240700   0.522   3.084   1.545  0.3386 -1.6110 -0.3297
   70MOL   H54340701   0.407   2.879   1.275  0.0008 -0.8407  0.8060
   70MOL   H54440702   0.495   2.869   1.428 -0.2918  1.8557  0.2749
   70MOL   H54540703   0.647   2.811   1.251  1.0585  0.5851  1.4400
   70MOL   H54640704   0.702   2.968   1.318 -0.8846  1.5418 -0.9297
   70MOL   H54740705   0.704   2.911   1.062 -0.3540 -2.7580  0.4008
   70MOL   H54840706   0.537   2.945   1.067  0.7389  1.4566 -0.7741
   70MOL   H54940707   0.799   3.120   0.970 -0.0452  1.3935  1.0217
   70MOL   H55040708   0.557   3.226   0.907 -2.1029 -2.4285 -0.0858
   70MOL   H55140709   0.810   3.322   1.102  0.3014  0.2579 -1.2225
   70MOL   H55240710   0.769   3.356   0.933 -0.8617  1.6568  1.1386
   70MOL   C55340711   0.635   3.511   1.095  0.4927  0.0029  0.3747
   70MOL   C55440712   0.502   3.553   1.170  0.1981 -0.4828  0.3148
   70MOL   O55540713   0.408   3.591   1.069 -0.0370  0.5219  0.1279
   70MOL   C55640714   0.511   3.671   1.267 -0.5404  0.0648  0.3635
   70MOL   O55740715   0.412   3.673   1.368 -0.7302  0.0447  0.5244
   70MOL   C55840716   0.410   3.795   1.435  0.8982 -0.1570 -0.1727
   70MOL   C55940717   0.333   3.780   1.568  0.1454  0.2895  0.1597
   70MOL   C56040718   0.182   3.754   1.554  0.4707  0.8168 -0.6770
   70MOL   O56140719   0.119   3.875   1.517 -0.3050  0.4853  1.0454
   70MOL   C56240720   0.039   3.862   1.400  0.4223  0.1645  0.4074
   70MOL   O56340721   7.620   3.776   1.428 -0.3305  0.0176  0.4447
   70MOL   C56440722   7.690   3.994   1.353 -0.0851  0.3121 -0.2807
   70MOL   O56540723   0.110   4.078   1.317  0.3325  0.6264 -0.2715
   70MOL   H56640724   0.652   3.575   1.008 -1.2328 -2.5181 -1.8844
   70MOL   H56740725   0.726   3.516   1.155  2.1169  2.1075 -2.1272
   70MOL   H56840726   0.471   3.466   1.228 -1.5160  0.2902  0.6157
   70MOL   H56940727   0.332   3.609   1.122 -0.2945  1.1030 -0.4320
   70MOL   H57040728   0.610   3.668   1.312 -0.0753 -3.1504 -0.7903
   70MOL   H57140729   0.513   3.759   1.202  1.3177  0.4321  0.8793
   70MOL   H57240730   0.507   3.839   1.459  0.1836  1.2091  0.2710
   70MOL   H57340731   0.366   3.868   1.367  0.1143 -1.8755 -1.5375
   70MOL   H57440732   0.352   3.875   1.619 -0.7997  0.3118  0.4850
   70MOL   H57540733   0.377   3.706   1.635 -0.8806  1.4456  2.1555
   70MOL   H57640734   0.160   3.678   1.480 -0.8850  0.8557 -0.3410
   70MOL   H57740735   0.136   3.729   1.650  1.1986  0.0662 -0.5252
   70MOL   H57840736   0.094   3.810   1.322  0.8018 -0.7009  1.2456
   70MOL   H57940737   7.556   3.815   1.486 -2.3456 -2.9434  0.3312
   70MOL   H58040738   7.624   3.976   1.268  0.1569 -2.6088  0.1032
   70MOL   H58140739   7.622   4.027   1.432  0.8106  0.7330  0.3302
   70MOL   H58240740   0.178   4.055   1.378 -1.2334 -1.2709  0.8456
   71MOL     C140741   6.737   2.857   2.888  0.8022 -0.1619  0.3066
   71MOL     C240742   6.638   2.885   2.768 -0.1995  1.0104  0.1778
   71MOL     O340743   6.723   2.913   2.656 -0.2159  0.2545  0.7278
   71MOL     C440744   6.527   2.784   2.758  0.3573  0.2644 -0.2433
   71MOL     O540745   6.420   2.810   2.846  0.2489 -0.4289  0.2001
   71MOL     C640746   6.321   2.709   2.855 -0.0924 -0.6467  0.3464
   71MOL     C740747   6.185   2.775   2.865  0.3294  0.2058  0.0205
   71MOL     C840748   6.078   2.676   2.896  1.1087  0.1436 -0.7145
   71MOL     O940749   5.954   2.728   2.928 -0.0874 -0.1174 -0.3508
   71MOL    C1040750   5.855   2.643   2.977 -0.4121  0.4168 -0.0829
   71MOL    O1140751   5.788   2.581   2.871  0.9716  0.2783  0.4610
   71MOL    C1240752   5.753   2.730   3.045  0.5045  0.0710 -0.4946
   71MOL    O1340753   5.808   2.791   3.163 -0.1595 -0.7150  0.2755
   71MOL    H1440754   6.781   2.947   2.931 -0.3723  0.6081 -0.0807
   71MOL    H1540755   6.822   2.796   2.858 -1.2058 -2.6025 -0.6050
   71MOL    H1640756   6.584   2.978   2.785  0.5146  1.7461 -1.4307
   71MOL    H1740757   6.741   2.834   2.607 -1.0122 -0.2285  1.1932
   71MOL    H1840758   6.486   2.798   2.658  0.6876  0.6034 -0.3319
   71MOL    H1940759   6.555   2.680   2.772  0.4930  0.2566 -0.5637
   71MOL    H2040760   6.350   2.644   2.937  0.4235 -1.8176 -0.7327
   71MOL    H2140761   6.327   2.643   2.768  0.2155 -1.6880  1.1380
   71MOL    H2240762   6.162   2.816   2.766  1.7781 -1.2310 -0.9483
   71MOL    H2340763   6.197   2.846   2.946 -0.4103 -1.2120  1.4073
   71MOL    H2440764   6.070   2.605   2.813 -0.3231 -1.6658  0.9329
   71MOL    H2540765   6.115   2.621   2.982  1.1871  1.2094 -0.0640
   71MOL    H2640766   5.907   2.569   3.038 -2.1915  0.0169  0.9894
   71MOL    H2740767   5.794   2.489   2.889 -3.2653  0.0543  1.0134
   71MOL    H2840768   5.717   2.799   2.970  1.6244  1.6223  0.3660
   71MOL    H2940769   5.669   2.666   3.073  1.5307 -0.5817  1.2069
   71MOL    H3040770   6.690   2.801   2.969 -0.6454  1.0966  0.3695
   71MOL    C3140771   5.725   2.852   3.251 -0.0932  0.9753  0.1141
   71MOL    C3240772   5.810   2.858   3.388 -0.4380  0.1288  0.0617
   71MOL    O3340773   5.829   2.721   3.423 -0.2711  0.0798  0.6048
   71MOL    C3440774   5.727   2.931   3.499  0.3100  0.0635  0.2372
   71MOL    O3540775   5.805   2.936   3.623 -0.0810 -0.3854  0.1586
   71MOL    C3640776   5.746   3.037   3.710  0.6525  0.0588  0.3395
   71MOL    C3740777   5.819   3.034   3.849 -0.3347 -0.4394  0.2491
   71MOL    C3840778   5.831   3.177   3.912 -0.1750  0.1496 -0.1744
   71MOL    O3940779   5.702   3.222   3.946 -0.0405  0.2806 -0.0321
   71MOL    C4040780   5.704   3.334   4.021 -0.1273 -0.5877  0.0978
   71MOL    O4140781   5.729   3.317   4.159 -0.6783  0.0228  0.9590
   71MOL    C4240782   5.584   3.420   3.993 -0.0100 -0.3010  1.1058
   71MOL    O4340783   5.611   3.524   3.898  0.0037 -0.3171  1.3373
   71MOL    H4440784   5.686   2.947   3.214 -0.3514  0.8192 -0.0183
   71MOL    H4540785   5.642   2.784   3.270  0.5772  0.2189  0.3058
   71MOL    H4640786   5.908   2.905   3.384 -1.0744  1.4992  0.4238
   71MOL    H4740787   5.867   2.689   3.344 -2.1186 -1.1149  0.1633
   71MOL    H4840788   5.709   3.030   3.458 -2.0002 -0.6366 -0.5066
   71MOL    H4940789   5.627   2.894   3.522  1.2875 -1.9139  1.4254
   71MOL    H5040790   5.638   3.023   3.715  0.3737  2.0472  0.6139
   71MOL    H5140791   5.747   3.137   3.665  0.0490  0.7369  1.7747
   71MOL    H5240792   5.921   2.996   3.840 -0.3804 -0.5541  0.2190
   71MOL    H5340793   5.765   2.969   3.918  1.6135 -1.0792  1.2213
   71MOL    H5440794   5.905   3.168   3.992  2.6695  3.5524 -2.2431
   71MOL    H5540795   5.867   3.255   3.844 -2.6522 -0.2365 -1.9970
   71MOL    H5640796   5.791   3.392   3.987 -0.4978 -0.4762 -0.6766
   71MOL    H5740797   5.819   3.342   4.172 -0.1853 -0.4955 -1.1214
   71MOL    H5840798   5.509   3.354   3.950 -1.8222  3.1836 -1.2735
   71MOL    H5940799   5.545   3.458   4.087 -0.6957  2.0678 -0.1110
   71MOL    C6040800   5.537   3.644   3.921 -0.0145  0.4633  0.5005
   71MOL    C6140801   5.579   3.746   3.809 -0.3354 -0.4087  0.4565
   71MOL    O6240802   5.713   3.792   3.831  0.4576  0.8095  0.3419
   71MOL    C6340803   5.470   3.854   3.788 -0.3807 -0.1449  0.5408
   71MOL    O6440804   5.451   3.916   3.918 -0.3202  0.7474 -0.2228
   71MOL    C6540805   5.327   3.982   3.921 -0.3699 -0.5830  0.1964
   71MOL    C6640806   5.316   4.050   4.057  0.1073  0.7891  0.0534
   71MOL    C6740807   5.196   4.134   4.085  0.0730  0.6092 -0.6227
   71MOL    O6840808   5.207   4.190   4.218  0.1271 -0.6276  0.2211
   71MOL    C6940809   5.078   4.254   4.249 -0.5716 -0.4640  0.1697
   71MOL    O7040810   4.976   4.156   4.260 -0.1344  0.0102  0.6482
   71MOL    C7140811   5.084   4.323   4.386 -0.0419 -0.1196  0.2202
   71MOL    O7240812   4.975   4.411   4.398  0.3659  0.0536 -0.0932
   71MOL    H7340813   5.549   3.683   4.021 -0.7902 -2.9397  1.9965
   71MOL    H7440814   5.431   3.626   3.904 -0.2529 -0.3492  2.7355
   71MOL    H7540815   5.586   3.694   3.714  0.0913 -1.1038  0.8674
   71MOL    H7640816   5.716   3.796   3.926 -1.5241  1.9263  0.3794
   71MOL    H7740817   5.503   3.932   3.719 -1.6506 -0.1869 -0.1332
   71MOL    H7840818   5.379   3.803   3.755  0.8898 -2.8247  1.0048
   71MOL    H7940819   5.244   3.915   3.900 -0.9548  0.2337 -0.1011
   71MOL    H8040820   5.323   4.060   3.845  0.5122 -1.2742 -0.5638
   71MOL    H8140821   5.401   4.110   4.088  2.1087 -2.7183  1.7340
   71MOL    H8240822   5.317   3.966   4.127  2.7730 -2.3555 -3.5819
   71MOL    H8340823   5.104   4.076   4.077 -1.0266  1.8971  2.1016
   71MOL    H8440824   5.190   4.214   4.012 -1.3248  1.1575  0.0950
   71MOL    H8540825   5.054   4.329   4.173  2.0024 -0.5539 -0.7658
   71MOL    H8640826   4.949   4.130   4.173  0.3033 -1.2871  0.8944
   71MOL    H8740827   5.078   4.243   4.461  1.5613  2.0366  2.7305
   71MOL    H8840828   5.175   4.382   4.398 -0.7540  0.8547  0.8610
   71MOL    C8940829   4.973   4.485   4.517 -0.2275  0.0536 -0.5926
   71MOL    C9040830   4.917   4.397   4.635 -0.2545 -0.2518 -0.4336
   71MOL    O9140831   5.027   4.366   4.723  0.6341 -0.4780 -0.2362
   71MOL    C9240832   4.809   4.462   4.719  0.0703 -0.3512 -0.1986
   71MOL    O9340833   4.761   4.369   4.817  0.2947 -0.1117  0.1814
   71MOL    C9440834   4.686   4.424   4.922 -0.1111  0.0568  0.3676
   71MOL    C9540835   4.554   4.467   4.882  0.2873 -0.2877 -0.5570
   71MOL    C9640836   4.461   4.492   5.008 -0.1292 -0.3847 -0.1121
   71MOL    O9740837   4.323   4.520   4.972 -0.2162  0.0983  0.4419
   71MOL    C9840838   4.236   4.542   5.076 -0.1035 -0.4909 -0.2095
   71MOL    O9940839   4.257   4.668   5.130  0.7354  0.1149 -0.2420
   71MOL   C10040840   4.088   4.520   5.035  1.0689  0.2963  0.4080
   71MOL   O10140841   4.071   4.489   4.895 -0.1494 -0.1310  0.6399
   71MOL   H10240842   4.900   4.565   4.502 -0.2269  0.0492 -0.6177
   71MOL   H10340843   5.070   4.529   4.540 -0.1376 -1.1038  1.3990
   71MOL   H10440844   4.872   4.307   4.591  0.7558 -2.2249  2.4181
   71MOL   H10540845   5.004   4.283   4.761  0.3543 -0.4650 -0.3690
   71MOL   H10640846   4.862   4.541   4.773  0.0112  0.9271 -1.9622
   71MOL   H10740847   4.721   4.498   4.665 -0.0028 -0.0240  0.1324
   71MOL   H10840848   4.727   4.506   4.982 -1.9687  1.8810 -0.7991
   71MOL   H10940849   4.673   4.338   4.988  1.2630  0.2085  0.8521
   71MOL   H11040850   4.502   4.384   4.833  0.0166 -0.8247  0.6128
   71MOL   H11140851   4.553   4.553   4.815 -1.0925  0.3852  0.3075
   71MOL   H11240852   4.459   4.402   5.070 -2.0545  1.0610  1.9647
   71MOL   H11340853   4.504   4.571   5.069 -0.6685  0.3964 -0.7401
   71MOL   H11440854   4.258   4.471   5.156  1.1199  0.1855  0.0730
   71MOL   H11540855   4.274   4.722   5.054  0.2606 -0.0968 -0.4992
   71MOL   H11640856   4.027   4.455   5.098  1.3912 -0.3285  0.0768
   71MOL   H11740857   4.040   4.618   5.045 -0.1173 -0.4356  2.1877
   71MOL   C11840858   3.958   4.404   4.868  0.0095  0.5768 -0.1015
   71MOL   C11940859   3.827   4.477   4.855  0.3651  0.3024  0.0797
   71MOL   O12040860   3.724   4.397   4.791  0.4185 -0.3315  0.5465
   71MOL   C12140861   3.821   4.615   4.793  0.3018  0.4368 -0.0607
   71MOL   O12240862   3.695   4.670   4.841 -0.3155  0.0188  0.3301
   71MOL   C12340863   3.670   4.809   4.816  0.0667  0.3520  0.2690
   71MOL   C12440864   3.513   4.832   4.817 -0.0389 -0.1710  0.1610
   71MOL   C12540865   3.467   4.977   4.782  0.7109 -0.2680 -0.1722
   71MOL   O12640866   3.374   5.016   4.884 -0.9398  0.1243 -0.0604
   71MOL   C12740867   3.356   5.154   4.884  0.1790 -0.0115  0.0777
   71MOL   O12840868   3.452   5.234   4.944 -0.1267  0.4245  0.9641
   71MOL   C12940869   3.217   5.188   4.956  0.4140  0.3484 -0.6799
   71MOL   O13040870   3.109   5.214   4.874 -0.3195 -0.0417  0.2249
   71MOL   H13140871   3.972   4.367   4.766  1.5886 -0.9261  0.6275
   71MOL   H13240872   3.961   4.317   4.935  1.0713 -0.3945 -1.3767
   71MOL   H13340873   3.786   4.496   4.954 -0.3074 -2.7681  0.4433
   71MOL   H13440874   3.647   4.450   4.810  0.1604 -0.0976 -1.0705
   71MOL   H13540875   3.902   4.667   4.845  0.7391 -0.6931  0.4088
   71MOL   H13640876   3.845   4.615   4.686 -0.4423  0.3907 -0.2295
   71MOL   H13740877   3.719   4.840   4.723  0.9902  0.1313  0.6852
   71MOL   H13840878   3.708   4.860   4.904 -2.0853  0.0236  1.4339
   71MOL   H13940879   3.484   4.808   4.919  0.6744 -0.1107  0.3827
   71MOL   H14040880   3.452   4.766   4.755 -0.6299  0.5909 -0.0676
   71MOL   H14140881   3.544   5.050   4.758  0.5076 -0.9674 -3.1996
   71MOL   H14240882   3.408   4.966   4.691  0.6190  1.8575 -0.3849
   71MOL   H14340883   3.353   5.185   4.780  0.5462  0.4205  0.1952
   71MOL   H14440884   3.489   5.183   5.014  0.5148  0.2098  0.4776
   71MOL   H14540885   3.207   5.113   5.034  2.8686  2.6356  1.9290
   71MOL   H14640886   3.223   5.286   5.003 -2.0008 -0.0948  0.6092
   71MOL   C14740887   3.053   5.099   4.812  0.7483  0.3463 -0.3849
   71MOL   C14840888   2.986   5.130   4.674  0.2426  0.0204 -0.4764
   71MOL   O14940889   2.867   5.194   4.713  0.1411  0.1746 -0.3765
   71MOL   C15040890   2.966   4.993   4.604 -0.6961  0.0414 -0.1800
   71MOL   O15140891   3.096   4.955   4.575 -0.0824  0.1526 -0.3707
   71MOL   C15240892   3.106   4.864   4.464 -1.1408 -0.2833 -0.0812
   71MOL   C15340893   3.230   4.785   4.491 -0.4850  0.4795  0.6818
   71MOL   C15440894   3.258   4.672   4.387  0.5778 -0.0483  0.4642
   71MOL   O15540895   3.303   4.563   4.470  0.7695 -0.0176 -0.6605
   71MOL   C15640896   3.419   4.504   4.419 -0.3481 -0.5193 -0.2684
   71MOL   O15740897   3.402   4.437   4.293 -0.3312 -0.6310  0.2670
   71MOL   C15840898   3.487   4.407   4.518 -0.3102  0.0605  0.0059
   71MOL   O15940899   3.390   4.309   4.552  0.1574  0.3831 -0.3465
   71MOL   H16040900   2.979   5.049   4.874 -1.5315  0.1324 -3.1716
   71MOL   H16140901   3.125   5.018   4.811 -0.0825 -0.3915 -1.2406
   71MOL   H16240902   3.049   5.198   4.616 -0.7186  1.2698 -0.0718
   71MOL   H16340903   2.881   5.287   4.722 -0.3926  0.2176  0.0553
   71MOL   H16440904   2.914   4.928   4.675  1.6945 -0.0523  1.5500
   71MOL   H16540905   2.907   5.007   4.513  0.4511 -3.0781 -1.4892
   71MOL   H16640906   3.105   4.933   4.380 -0.4318  0.3735  0.4373
   71MOL   H16740907   3.014   4.807   4.472 -0.0916 -2.0594 -0.1914
   71MOL   H16840908   3.213   4.747   4.591 -1.6658  1.5780  0.9080
   71MOL   H16940909   3.310   4.858   4.506 -0.0614  0.0415  0.6043
   71MOL   H17040910   3.163   4.652   4.339 -0.4064  3.5005  0.7860
   71MOL   H17140911   3.330   4.715   4.316  0.0755  0.3204  0.1735
   71MOL   H17240912   3.495   4.580   4.400 -1.7711  0.6485 -1.3652
   71MOL   H17340913   3.366   4.351   4.307 -1.0161 -0.5175 -0.7194
   71MOL   H17440914   3.584   4.377   4.477  1.2706  0.4257  3.3678
   71MOL   H17540915   3.509   4.458   4.611  0.0399 -1.3578  0.7043
   71MOL   C17640916   3.443   4.190   4.605  0.8940 -0.2569 -0.4640
   71MOL   C17740917   3.514   4.115   4.496  0.2033  0.2686  0.2760
   71MOL   O17840918   3.431   4.072   4.392  0.3436 -0.2306 -0.6659
   71MOL   C17940919   3.573   3.987   4.555 -0.9098 -0.1677 -0.0790
   71MOL   O18040920   3.460   3.923   4.609  0.2276 -0.6560  0.1819
   71MOL   C18140921   3.473   3.812   4.692 -0.2464  0.7595  0.0690
   71MOL   C18240922   3.542   3.839   4.822  0.6519  0.5874 -0.5059
   71MOL   C18340923   3.457   3.921   4.921  0.0442 -0.0480 -0.5352
   71MOL   O18440924   3.477   3.888   5.059 -0.0405  0.1842 -0.6163
   71MOL   C18540925   3.453   3.989   5.149  0.0571  0.0574  0.5658
   71MOL   O18640926   3.565   4.074   5.149  0.1054  0.1654  0.5080
   71MOL   C18740927   3.435   3.920   5.286  0.0691 -0.3112  0.2252
   71MOL   O18840928   3.550   3.833   5.307  0.4667  0.0070  0.3941
   71MOL   H18940929   3.357   4.143   4.652  0.3062  0.8798 -0.3987
   71MOL   H19040930   3.510   4.210   4.688  0.1471 -3.1385  0.8958
   71MOL   H19140931   3.601   4.156   4.445 -0.9482  1.6233 -0.6247
   71MOL   H19240932   3.376   4.006   4.430  0.6874 -0.8233 -1.1962
   71MOL   H19340933   3.604   3.926   4.470 -0.1434  0.0247  0.0588
   71MOL   H19440934   3.653   4.018   4.623  0.6375  0.2706 -2.0346
   71MOL   H19540935   3.537   3.744   4.636  0.1400  1.0856  0.1048
   71MOL   H19640936   3.382   3.755   4.704  0.3188  0.1484  1.5492
   71MOL   H19740937   3.645   3.876   4.823  1.1031 -0.5563 -2.2700
   71MOL   H19840938   3.547   3.742   4.873 -1.7937  0.1064 -1.0939
   71MOL   H19940939   3.477   4.026   4.903 -0.5245  0.3437  1.0151
   71MOL   H20040940   3.354   3.905   4.888  0.4535 -0.7279 -1.5053
   71MOL   H20140941   3.364   4.043   5.117 -0.3994 -1.0045  0.0342
   71MOL   H20240942   3.639   4.025   5.181 -0.3244 -0.9109 -0.1334
   71MOL   H20340943   3.437   3.984   5.373  0.2208 -2.0348  1.5186
   71MOL   H20440944   3.341   3.864   5.281  0.1846 -0.8384  3.1128
   71MOL   C20540945   3.548   3.747   5.422  0.2804  0.4315  0.0728
   71MOL   C20640946   3.564   3.827   5.552  0.3061 -0.5414 -0.3923
   71MOL   O20740947   3.569   3.739   5.671  0.3530 -0.2941  0.3324
   71MOL   C20840948   3.698   3.903   5.560  0.5641 -0.3092 -0.1189
   71MOL   O20940949   3.682   4.039   5.508 -0.1654  0.1430 -0.2004
   71MOL   C21040950   3.797   4.127   5.528  0.1954  0.0091  0.4999
   71MOL   C21140951   3.755   4.270   5.496 -0.6775 -0.1878 -0.2509
   71MOL   C21240952   3.713   4.291   5.352  0.6607  0.7149  0.1296
   71MOL   O21340953   3.639   4.414   5.344 -0.2668 -0.6764  0.3781
   71MOL   C21440954   3.666   4.466   5.215  0.3613  0.1523 -0.0842
   71MOL   O21540955   3.759   4.560   5.226 -0.1457 -0.0451 -0.0162
   71MOL   C21640956   3.541   4.542   5.161  0.7005  0.6612  0.3946
   71MOL   O21740957   3.503   4.650   5.240 -0.0671  0.1866  0.2868
   71MOL   H21840958   3.626   3.671   5.419  1.0309  1.0768  2.2532
   71MOL   H21940959   3.452   3.696   5.431 -0.3564  1.7492  1.1411
   71MOL   H22040960   3.480   3.893   5.572  1.3443  0.7586 -0.2068
   71MOL   H22140961   3.490   3.687   5.679 -0.8837  1.1556 -1.8802
   71MOL   H22240962   3.751   3.903   5.655  0.1799  0.8616  0.1046
   71MOL   H22340963   3.775   3.856   5.499  1.1065  0.5427 -0.1043
   71MOL   H22440964   3.877   4.098   5.460 -0.6321  1.2965 -1.0764
   71MOL   H22540965   3.839   4.112   5.627  2.1455 -2.5385 -0.6542
   71MOL   H22640966   3.842   4.335   5.506  1.7326 -3.5728  1.7724
   71MOL   H22740967   3.682   4.290   5.574 -0.8609 -0.9933 -0.2107
   71MOL   H22840968   3.798   4.279   5.285 -0.4441  1.3673 -1.4465
   71MOL   H22940969   3.642   4.211   5.334  1.9180 -0.1224 -1.2254
   71MOL   H23040970   3.689   4.387   5.144 -0.3582 -0.2196  0.0853
   71MOL   H23140971   3.709   4.639   5.242 -0.8938 -0.8298  1.7375
   71MOL   H23240972   3.559   4.574   5.059  1.6751  0.4249  0.4918
   71MOL   H23340973   3.457   4.473   5.171 -0.1552  1.5921 -0.2919
   71MOL   C23440974   3.383   4.704   5.186  0.5778 -0.1027 -0.2627
   71MOL   C23540975   3.338   4.818   5.284 -0.1222  0.2984  0.2268
   71MOL   O23640976   3.443   4.904   5.313 -0.3589 -0.1803  0.1465
   71MOL   C23740977   3.296   4.762   5.424 -0.0810 -0.9071 -0.1139
   71MOL   O23840978   3.163   4.768   5.448  0.0764 -0.7047 -0.3096
   71MOL   C23940979   3.084   4.661   5.391 -0.0381 -0.1440  0.0940
   71MOL   C24040980   2.940   4.681   5.443 -0.3273  0.0657 -0.2682
   71MOL   C24140981   2.849   4.562   5.408 -0.4205  0.3523  0.3484
   71MOL   O24240982   2.832   4.562   5.266  0.7774  0.4750  0.5327
   71MOL   C24340983   2.808   4.442   5.201 -0.1337 -0.2191 -0.7399
   71MOL   O24440984   2.688   4.386   5.251  0.0894  0.0276  0.1393
   71MOL   C24540985   2.929   4.337   5.206 -0.8940 -0.6239  0.2502
   71MOL   O24640986   2.958   4.295   5.071  0.1027 -0.1504 -0.3690
   71MOL   H24740987   3.405   4.748   5.089 -1.6864  4.2220  1.0630
   71MOL   H24840988   3.308   4.626   5.176 -0.1194  0.7399 -1.6943
   71MOL   H24940989   3.254   4.871   5.240 -1.5558 -1.0655  1.3045
   71MOL   H25040990   3.502   4.845   5.356  0.4731  0.2811 -0.3469
   71MOL   H25140991   3.336   4.664   5.451  0.1258 -0.8077 -0.0606
   71MOL   H25240992   3.337   4.838   5.490 -1.2790  1.2059 -1.7313
   71MOL   H25340993   3.132   4.565   5.415 -2.1555 -1.2606 -0.0202
   71MOL   H25440994   3.074   4.671   5.283 -0.1425 -0.7643  0.0418
   71MOL   H25540995   2.883   4.763   5.400 -1.2172 -2.1012 -3.3539
   71MOL   H25640996   2.935   4.691   5.552 -2.0848 -1.1145 -0.2254
   71MOL   H25740997   2.888   4.466   5.439 -0.1491  0.0279 -0.9796
   71MOL   H25840998   2.749   4.573   5.450 -0.4327  0.7596  0.2232
   71MOL   H25940999   2.792   4.466   5.096  0.8672  0.5819 -0.7225
   71MOL   H26041000   2.708   4.296   5.231 -0.6995  0.0858 -0.9785
   71MOL   H26141001   3.020   4.387   5.241  0.5497 -1.6139 -1.9362
   71MOL   H26241002   2.905   4.247   5.261 -0.0161 -1.9816 -1.5353
   71MOL   C26341003   3.069   4.193   5.077  0.0112  0.3964 -0.2723
   71MOL   C26441004   3.105   4.178   4.928 -0.2613 -0.4000  0.3622
   71MOL   O26541005   3.010   4.090   4.873  0.3450 -0.3472 -0.1249
   71MOL   C26641006   3.129   4.307   4.851  0.6152 -0.4327 -0.0591
   71MOL   O26741007   3.229   4.395   4.920  1.0657  0.6793  0.5771
   71MOL   C26841008   3.218   4.525   4.874  0.0263  0.3290  0.2988
   71MOL   C26941009   3.097   4.602   4.939  0.8063  0.3126  0.2969
   71MOL   C27041010   3.085   4.748   4.888 -0.4524  0.9885 -0.4254
   71MOL   O27141011   2.954   4.805   4.922 -0.0609 -0.0128  0.3482
   71MOL   C27241012   2.944   4.835   5.059 -0.7034 -0.4231  0.7915
   71MOL   O27341013   3.012   4.950   5.103  0.1650  0.3200 -0.6242
   71MOL   C27441014   2.799   4.851   5.096  0.0802 -0.4549  0.2432
   71MOL   O27541015   2.757   4.969   5.024 -0.1010  0.7033 -0.2266
   71MOL   H27641016   3.037   4.098   5.119 -0.0914  0.8537  0.7079
   71MOL   H27741017   3.148   4.229   5.143 -1.1098 -0.4752  1.5821
   71MOL   H27841018   3.200   4.125   4.920 -0.9352 -1.3432 -1.5664
   71MOL   H27941019   2.935   4.117   4.924  0.6670  1.6871 -0.6855
   71MOL   H28041020   3.159   4.288   4.748 -0.4376 -1.5142 -0.1715
   71MOL   H28141021   3.036   4.361   4.833  0.1235 -1.4434 -0.5253
   71MOL   H28241022   3.203   4.514   4.766  0.4999 -1.9836  0.4420
   71MOL   H28341023   3.314   4.574   4.886 -0.0423  1.3095 -2.6807
   71MOL   H28441024   3.115   4.603   5.046  0.5171 -0.8970  0.3620
   71MOL   H28541025   3.001   4.551   4.922 -0.4151  2.7379 -0.3802
   71MOL   H28641026   3.169   4.811   4.919  0.4107  0.6015 -1.8952
   71MOL   H28741027   3.083   4.759   4.780  1.1343 -0.0688 -0.5903
   71MOL   H28841028   2.982   4.748   5.112 -3.9224 -3.5610 -1.7590
   71MOL   H28941029   2.967   5.022   5.061  0.6410  1.9705  1.5682
   71MOL   H29041030   2.745   4.760   5.067 -1.1525  0.0048  1.0726
   71MOL   H29141031   2.800   4.854   5.205  0.3698 -1.2780  0.2684
   71MOL   C29241032   2.614   4.983   5.024 -0.2583  0.8787  0.1522
   71MOL   C29341033   2.579   5.053   4.898  0.0888 -0.5472 -0.1280
   71MOL   O29441034   2.639   5.184   4.891  0.5103  0.0028 -0.3931
   71MOL   C29541035   2.612   4.969   4.771 -0.1068 -0.4767  0.4097
   71MOL   O29641036   2.519   5.010   4.679 -0.4220 -0.0497  0.1537
   71MOL   C29741037   2.556   4.972   4.544 -1.0949 -0.0814 -0.5492
   71MOL   C29841038   2.432   4.975   4.450 -0.2493  0.4054  0.1940
   71MOL   C29941039   2.340   4.848   4.455  0.2027 -0.9242 -0.3863
   71MOL   O30041040   2.249   4.833   4.343 -0.1577  0.0951 -0.1527
   71MOL   C30141041   2.129   4.774   4.380  0.0304  0.1304  0.3775
   71MOL   O30241042   2.047   4.855   4.464  0.0606  0.3531 -0.2264
   71MOL   C30341043   2.054   4.734   4.258  0.5250 -0.4310  1.2690
   71MOL   O30441044   2.046   4.850   4.170 -0.2046 -0.3027 -0.2747
   71MOL   H30541045   2.555   4.891   5.023  1.8747 -0.5390 -1.5186
   71MOL   H30641046   2.576   5.037   5.110  1.0130 -2.2180  2.7323
   71MOL   H30741047   2.471   5.067   4.901  0.2693  0.7854  0.8811
   71MOL   H30841048   2.703   5.177   4.822  0.9423 -1.1878  0.1222
   71MOL   H30941049   2.712   4.984   4.731 -0.0958  0.0022  0.6182
   71MOL   H31041050   2.600   4.861   4.780  0.5947 -0.4960  1.1393
   71MOL   H31141051   2.611   4.878   4.551 -1.2834 -0.0941  1.0694
   71MOL   H31241052   2.626   5.051   4.516  0.3232 -1.1383 -0.0722
   71MOL   H31341053   2.482   4.972   4.353 -0.4405 -0.6392  0.1176
   71MOL   H31441054   2.370   5.060   4.477  2.3695  0.8713  5.5095
   71MOL   H31541055   2.389   4.753   4.478 -0.0462 -1.0232 -0.2492
   71MOL   H31641056   2.292   4.856   4.552  2.0070 -1.6648  0.5801
   71MOL   H31741057   2.150   4.674   4.418  2.7772 -0.2588 -2.0339
   71MOL   H31841058   1.984   4.902   4.412 -1.1063 -1.5525 -0.5812
   71MOL   H31941059   1.954   4.701   4.288 -0.3032  1.5453  0.7464
   71MOL   H32041060   2.119   4.653   4.224  0.9523  0.6496 -0.5253
   71MOL   C32141061   2.022   4.806   4.033  1.2341  0.0111 -0.6738
   71MOL   C32241062   2.160   4.816   3.967 -0.2049 -0.3478  0.1628
   71MOL   O32341063   2.178   4.705   3.890 -0.0336  0.7114 -0.0325
   71MOL   C32441064   2.185   4.943   3.887  0.3177 -0.5864  0.1057
   71MOL   O32541065   2.323   4.967   3.879 -0.1298 -0.2766 -0.0843
   71MOL   C32641066   2.354   5.049   3.769  0.4028 -0.3180 -0.1485
   71MOL   C32741067   2.503   5.062   3.746  0.9304  0.5252 -0.1981
   71MOL   C32841068   2.544   5.148   3.630  0.5167 -0.0539 -0.3986
   71MOL   O32941069   2.486   5.096   3.514  0.1373 -0.3142  0.0704
   71MOL   C33041070   2.493   5.176   3.404 -0.4925  0.6221 -0.2128
   71MOL   O33141071   2.621   5.201   3.356 -0.1144 -0.3855 -0.7518
   71MOL   C33241072   2.401   5.110   3.295 -0.4958 -0.0628  0.6757
   71MOL   O33341073   2.274   5.147   3.334 -0.8957 -0.2277  0.6597
   71MOL   H33441074   1.950   4.877   3.993  1.1133 -1.0600 -2.3910
   71MOL   H33541075   1.984   4.704   4.030  3.5840 -0.8516 -2.0430
   71MOL   H33641076   2.226   4.824   4.053 -2.0900  0.5980  1.5778
   71MOL   H33741077   2.250   4.722   3.831 -1.0044  3.7356 -0.4625
   71MOL   H33841078   2.135   5.029   3.934 -0.1349 -0.3621 -0.7813
   71MOL   H33941079   2.130   4.942   3.793  0.5611 -0.5035 -0.0365
   71MOL   H34041080   2.291   5.138   3.766  0.6779 -0.1396 -0.7410
   71MOL   H34141081   2.315   5.002   3.679 -0.3734 -0.7374  0.4054
   71MOL   H34241082   2.558   5.104   3.830 -0.4458  1.7672  0.1055
   71MOL   H34341083   2.542   4.963   3.725  2.7874 -0.4196  6.4898
   71MOL   H34441084   2.521   5.254   3.638  2.8556  0.3775  0.9264
   71MOL   H34541085   2.651   5.146   3.607  0.6623 -1.6301  0.3778
   71MOL   H34641086   2.448   5.272   3.429  0.7604  0.8675  1.1847
   71MOL   H34741087   2.651   5.284   3.389 -2.0129 -0.4585  1.2942
   71MOL   H34841088   2.421   5.163   3.202 -0.4375 -0.4308  0.4762
   71MOL   H34941089   2.422   5.005   3.276 -1.8388 -0.0713 -0.8323
   71MOL   C35041090   2.172   5.117   3.240 -0.0848  0.3161 -0.1056
   71MOL   C35141091   2.038   5.091   3.317  0.7388 -0.5667  0.0080
   71MOL   O35241092   1.922   5.150   3.256  0.0180  0.0739 -0.0928
   71MOL   C35341093   2.027   4.939   3.332  0.5610  0.0944 -0.4338
   71MOL   O35441094   2.044   4.865   3.219  0.5931 -0.7244  0.2368
   71MOL   C35541095   2.010   4.728   3.242 -0.0277 -1.0947  0.2151
   71MOL   C35641096   2.078   4.638   3.136  0.3760 -0.6481 -0.2850
   71MOL   C35741097   2.233   4.672   3.125  0.4085 -0.4745  0.1163
   71MOL   O35841098   2.298   4.591   3.025 -0.1041  0.0767  0.0470
   71MOL   C35941099   2.439   4.595   3.026 -0.5140  0.2048  0.5785
   71MOL   O36041100   2.490   4.503   3.125 -0.0411  0.0755 -0.5508
   71MOL   C36141101   2.482   4.557   2.885 -0.4217  0.2416 -0.1537
   71MOL   O36241102   2.503   4.665   2.788 -0.5707  0.2348  0.0487
   71MOL   H36341103   2.194   5.038   3.167 -1.5907 -1.1938  1.0417
   71MOL   H36441104   2.154   5.202   3.174 -3.2580  0.4006  0.7955
   71MOL   H36541105   2.033   5.130   3.418  0.2796  0.6876 -0.4834
   71MOL   H36641106   1.911   5.240   3.284 -2.5147 -0.4919  0.8259
   71MOL   H36741107   2.102   4.904   3.403  0.2098  1.6039  0.6959
   71MOL   H36841108   1.929   4.914   3.373  1.0295  0.7677  1.1233
   71MOL   H36941109   1.901   4.721   3.237 -0.2435  1.1025  1.4305
   71MOL   H37041110   2.050   4.709   3.341 -0.6323  0.7634  0.8498
   71MOL   H37141111   2.020   4.651   3.045  1.7598 -0.5280 -1.1528
   71MOL   H37241112   2.076   4.534   3.171  0.0559 -0.0798  1.4563
   71MOL   H37341113   2.232   4.775   3.090 -2.3648 -0.6133 -0.3409
   71MOL   H37441114   2.264   4.665   3.229 -1.7128  0.8921  0.8594
   71MOL   H37541115   2.482   4.691   3.056 -1.3697  0.6238  0.4769
   71MOL   H37641116   2.535   4.430   3.084 -1.3474  0.0079 -1.9063
   71MOL   H37741117   2.580   4.511   2.894  0.1573  1.6774  1.1179
   71MOL   H37841118   2.417   4.479   2.845 -0.0880 -1.4341  2.4315
   71MOL   C37941119   2.384   4.737   2.774 -0.5276  0.0665 -0.1274
   71MOL   C38041120   2.392   4.808   2.635  1.3819  0.5179 -0.4831
   71MOL   O38141121   2.406   4.706   2.544  0.6369 -0.9523  0.0793
   71MOL   C38241122   2.272   4.889   2.597  0.4190 -1.0518 -0.5593
   71MOL   O38341123   2.264   5.008   2.668 -0.6402 -0.7200 -0.1311
   71MOL   C38441124   2.180   5.100   2.597 -0.3412  0.2749 -0.1287
   71MOL   C38541125   2.143   5.214   2.687 -0.3359  0.1853  0.1295
   71MOL   C38641126   2.087   5.160   2.815 -0.1423 -0.0570 -0.8446
   71MOL   O38741127   1.958   5.098   2.804  0.0006 -0.2415 -0.1020
   71MOL   C38841128   1.908   5.062   2.929 -0.2609  0.0294  0.4532
   71MOL   O38941129   1.842   5.164   2.993 -0.5500 -0.0311  0.1180
   71MOL   C39041130   1.807   4.945   2.903  0.3304  0.0168  0.2454
   71MOL   O39141131   1.883   4.833   2.857  0.2759 -0.5677 -0.2409
   71MOL   H39241132   2.360   4.802   2.858  0.2053  2.4836 -1.7488
   71MOL   H39341133   2.295   4.673   2.769 -0.6528  0.2047  0.3436
   71MOL   H39441134   2.477   4.876   2.631  0.5449  1.6715  0.8175
   71MOL   H39541135   2.493   4.668   2.543 -0.2002 -2.9945  0.7261
   71MOL   H39641136   2.283   4.912   2.492  1.0548 -0.6619 -0.4075
   71MOL   H39741137   2.173   4.845   2.602 -0.6765  1.2333 -1.4408
   71MOL   H39841138   2.091   5.062   2.548 -0.4531  0.1481  0.1686
   71MOL   H39941139   2.242   5.144   2.519  0.1500  1.3664  0.8488
   71MOL   H40041140   2.065   5.276   2.642  0.4761  0.9009 -0.3040
   71MOL   H40141141   2.230   5.279   2.692  0.0138 -0.2480 -0.2806
   71MOL   H40241142   2.153   5.089   2.866 -3.1327 -1.8138  0.7548
   71MOL   H40341143   2.065   5.240   2.885  0.6764  0.5813 -1.3028
   71MOL   H40441144   1.990   5.031   2.994  0.7548  0.6945 -0.4911
   71MOL   H40541145   1.857   5.179   3.085 -1.2798  2.0895 -0.0729
   71MOL   H40641146   1.757   4.928   2.998  0.2857  1.3169  0.4589
   71MOL   H40741147   1.734   4.973   2.826  0.0680  0.5922  0.6970
   71MOL   C40841148   1.810   4.712   2.836  0.2922 -0.5780 -0.3451
   71MOL   C40941149   1.761   4.700   2.688 -0.3442 -0.3989  0.2241
   71MOL   O41041150   1.641   4.623   2.689 -0.3404  0.1674  0.3637
   71MOL   C41141151   1.863   4.629   2.600 -0.2194  0.2723 -0.5011
   71MOL   O41241152   1.900   4.506   2.667  0.1291 -0.3571 -0.0099
   71MOL   C41341153   1.992   4.429   2.587  0.4280 -0.0368  0.8119
   71MOL   C41441154   2.059   4.311   2.666 -0.1500  0.3056  0.0128
   71MOL   C41541155   2.134   4.352   2.792 -1.0091  0.6338  0.0843
   71MOL   O41641156   2.189   4.239   2.860 -0.0340 -0.4267 -0.1114
   71MOL   C41741157   2.172   4.227   3.000  0.7714  0.3679  0.0952
   71MOL   O41841158   2.245   4.115   3.046  0.0610  0.5253 -0.1649
   71MOL   C41941159   2.016   4.204   3.031  0.5925 -0.0040  0.9700
   71MOL   O42041160   1.973   4.080   2.961 -0.2941  0.6026 -0.2850
   71MOL   H42141161   1.725   4.724   2.903 -0.8130 -1.0457 -1.6307
   71MOL   H42241162   1.863   4.621   2.864  1.6500  0.0645 -0.8232
   71MOL   H42341163   1.734   4.797   2.647  1.8455 -0.5992 -1.7477
   71MOL   H42441164   1.668   4.533   2.697 -1.6850 -0.4222 -1.5028
   71MOL   H42541165   1.823   4.598   2.503 -2.1875  3.4150 -0.7577
   71MOL   H42641166   1.950   4.695   2.597  1.8726 -2.2683  1.8285
   71MOL   H42741167   1.937   4.393   2.500  0.1150  1.2248  0.4855
   71MOL   H42841168   2.073   4.495   2.558 -0.9680  1.2427 -0.2566
   71MOL   H42941169   2.135   4.265   2.602 -0.5585  0.6250 -0.7096
   71MOL   H43041170   1.981   4.236   2.680  2.8453 -2.9526 -0.0235
   71MOL   H43141171   2.216   4.423   2.776  1.3158 -2.8254 -4.4660
   71MOL   H43241172   2.055   4.396   2.853 -1.4432  0.2391 -0.1882
   71MOL   H43341173   2.220   4.312   3.049  1.4810 -2.0495  3.7587
   71MOL   H43441174   2.203   4.033   3.028 -1.1742  0.9094  0.8409
   71MOL   H43541175   2.011   4.181   3.137  0.1580  1.4231  1.2717
   71MOL   H43641176   1.946   4.285   3.011  1.0222 -0.3802 -2.2632
   71MOL   C43741177   1.878   4.003   3.036 -0.8119  1.1889 -0.6359
   71MOL   C43841178   1.854   3.888   2.938  0.3115  0.5172 -0.1316
   71MOL   O43941179   1.746   3.922   2.855  0.4616 -0.1500 -0.0066
   71MOL   C44041180   1.791   3.760   3.012  0.5360 -0.4326 -0.2951
   71MOL   O44141181   1.657   3.786   3.050  0.3139  0.2856 -0.3805
   71MOL   C44241182   1.586   3.673   3.091  0.0585  0.5186 -0.7029
   71MOL   C44341183   1.547   3.592   2.973 -0.2526 -0.0847  0.2994
   71MOL   C44441184   1.464   3.660   2.862 -0.8821  0.2572  0.2105
   71MOL   O44541185   1.462   3.801   2.880  0.5857  0.7409  0.1405
   71MOL   C44641186   1.355   3.864   2.810 -0.9025  0.3473  0.0498
   71MOL   O44741187   1.366   3.860   2.666  0.5713 -0.2370 -0.3924
   71MOL   C44841188   1.354   4.011   2.854  0.9305  0.9685  1.0391
   71MOL   O44941189   1.486   4.065   2.842  0.1342  0.1368  0.0637
   71MOL   H45041190   1.919   3.963   3.129 -0.0701  1.3007 -0.9083
   71MOL   H45141191   1.792   4.064   3.061 -0.4441  0.6884  1.9831
   71MOL   H45241192   1.938   3.856   2.876 -0.6246  1.1210 -1.7391
   71MOL   H45341193   1.669   3.901   2.906  0.3924 -1.1706 -0.5237
   71MOL   H45441194   1.785   3.685   2.933 -0.3552 -1.0411  0.3472
   71MOL   H45541195   1.859   3.721   3.088 -1.1526 -0.3512  1.2744
   71MOL   H45641196   1.491   3.707   3.131 -1.2665 -2.3061 -1.3467
   71MOL   H45741197   1.644   3.615   3.164 -1.5080 -0.1607  0.0214
   71MOL   H45841198   1.488   3.504   2.997 -1.3212  0.0619 -1.6554
   71MOL   H45941199   1.640   3.555   2.931 -0.0780  0.4054  0.2412
   71MOL   H46041200   1.498   3.631   2.762 -1.6216 -0.4881  0.1715
   71MOL   H46141201   1.364   3.618   2.862 -0.1272 -1.6259  1.5282
   71MOL   H46241202   1.262   3.819   2.845 -1.0919 -0.4510 -1.4310
   71MOL   H46341203   1.437   3.921   2.654  1.0888 -0.1926  2.4585
   71MOL   H46441204   1.279   4.075   2.808 -0.1570  0.3650  1.9388
   71MOL   H46541205   1.319   4.010   2.958 -0.6082 -1.3462  0.5282
   71MOL   C46641206   1.485   4.196   2.881 -0.2728  0.9599 -0.2286
   71MOL   C46741207   1.619   4.263   2.862 -0.0535  0.1323 -0.1941
   71MOL   O46841208   1.621   4.299   2.724  0.4321  0.6980 -0.1668
   71MOL   C46941209   1.636   4.390   2.944 -0.2588 -0.1194 -0.0901
   71MOL   O47041210   1.636   4.354   3.079 -0.1916  0.7044 -0.0623
   71MOL   C47141211   1.673   4.454   3.173  0.4886  0.4430 -0.2843
   71MOL   C47241212   1.657   4.405   3.316  0.4395 -0.1735 -0.7943
   71MOL   C47341213   1.515   4.397   3.377  0.1296 -0.6735 -0.2781
   71MOL   O47441214   1.524   4.402   3.517 -0.2343 -0.1299  0.1034
   71MOL   C47541215   1.524   4.281   3.581  0.6110 -0.2326 -0.9899
   71MOL   O47641216   1.387   4.236   3.597 -0.6195 -0.1379 -0.3415
   71MOL   C47741217   1.587   4.313   3.720 -0.9668 -0.2068 -0.3350
   71MOL   O47841218   1.729   4.349   3.698  0.1705 -0.2634 -0.5813
   71MOL   H47941219   1.474   4.192   2.990  1.8411  0.4630 -0.0118
   71MOL   H48041220   1.403   4.248   2.832 -0.6783  1.1977  0.6765
   71MOL   H48141221   1.696   4.188   2.876 -0.0801 -0.0288 -0.8883
   71MOL   H48241222   1.636   4.216   2.682  0.1942  1.0893 -1.0458
   71MOL   H48341223   1.733   4.436   2.924  0.6438 -1.8111  0.3229
   71MOL   H48441224   1.559   4.462   2.915 -3.0444 -2.7666  0.5552
   71MOL   H48541225   1.598   4.530   3.152 -1.9265 -2.3289 -2.2103
   71MOL   H48641226   1.773   4.497   3.162  1.0057 -0.1692  1.7135
   71MOL   H48741227   1.733   4.455   3.376 -0.4164  0.4138 -0.1678
   71MOL   H48841228   1.700   4.305   3.316  0.0421 -0.3682  0.8734
   71MOL   H48941229   1.447   4.470   3.333  1.9340  0.7443 -0.7429
   71MOL   H49041230   1.461   4.315   3.329  0.1094 -0.4507 -0.6352
   71MOL   H49141231   1.587   4.207   3.532 -0.8172 -0.6777 -2.1880
   71MOL   H49241232   1.339   4.307   3.637 -0.3236 -1.0053  1.6525
   71MOL   H49341233   1.535   4.404   3.749  0.3505  0.2407  0.6647
   71MOL   H49441234   1.583   4.232   3.793  2.1946 -1.1817 -1.1732
   71MOL   C49541235   1.803   4.387   3.814  0.6427  0.2185  0.0822
   71MOL   C49641236   1.947   4.418   3.785  0.0469  0.1182 -0.4618
   71MOL   O49741237   1.955   4.559   3.805 -0.1739  0.0089 -0.5060
   71MOL   C49841238   2.045   4.359   3.889 -0.0919 -0.1024  0.3725
   71MOL   O49941239   2.174   4.400   3.836  0.3065 -0.1868 -0.5495
   71MOL   C50041240   2.285   4.377   3.925  0.8103 -0.6347  0.1540
   71MOL   C50141241   2.343   4.237   3.914 -0.3107  0.2095 -0.3472
   71MOL   C50241242   2.470   4.219   3.993 -0.5709  0.0458  0.8563
   71MOL   O50341243   2.515   4.089   3.985  0.2293  0.4377  0.8281
   71MOL   C50441244   2.636   4.062   4.054 -0.3228  0.1607 -1.1523
   71MOL   O50541245   2.749   4.130   4.003  0.7048 -0.6815  0.0694
   71MOL   C50641246   2.660   3.915   4.034  0.3587  0.0159  0.1749
   71MOL   O50741247   2.586   3.845   4.134  0.4036  0.8371  0.0804
   71MOL   H50841248   1.802   4.303   3.882  0.7600  0.5030  0.4367
   71MOL   H50941249   1.746   4.464   3.866 -2.1273 -1.5350 -0.2635
   71MOL   H51041250   1.966   4.401   3.679  3.4680 -1.3786  0.3550
   71MOL   H51141251   2.044   4.571   3.832 -0.5495  2.2089 -0.1629
   71MOL   H51241252   2.021   4.390   3.990 -1.0510 -0.3033  0.2096
   71MOL   H51341253   2.036   4.251   3.877 -0.6091 -0.0929  0.7005
   71MOL   H51441254   2.258   4.396   4.029  1.7076  1.0534  0.1062
   71MOL   H51541255   2.359   4.454   3.901 -1.7655  1.9268  0.1643
   71MOL   H51641256   2.362   4.222   3.808  2.1312  1.1159 -0.0655
   71MOL   H51741257   2.264   4.169   3.947 -1.5960  1.5171 -0.6902
   71MOL   H51841258   2.545   4.281   3.944 -0.4651 -0.5080  0.3019
   71MOL   H51941259   2.464   4.257   4.095 -0.5139  0.6205  0.6444
   71MOL   H52041260   2.634   4.089   4.160  0.3990  0.4997 -1.2202
   71MOL   H52141261   2.720   4.219   3.997 -0.4849 -1.0989 -0.5992
   71MOL   H52241262   2.631   3.889   3.932  1.2258 -1.2643  0.2480
   71MOL   H52341263   2.762   3.893   4.065  1.1903  0.7311 -1.9480
   71MOL   C52441264   2.548   3.713   4.104 -0.4123 -0.0083 -0.1629
   71MOL   C52541265   2.677   3.628   4.115  0.0959 -0.1255  0.1423
   71MOL   O52641266   2.656   3.501   4.051  0.0637 -0.0788 -0.1550
   71MOL   C52741267   2.734   3.602   4.254 -0.4221 -0.1564 -0.1869
   71MOL   O52841268   2.633   3.539   4.326  0.5047  0.6073 -0.6257
   71MOL   C52941269   2.656   3.523   4.465 -0.3794 -0.1231  0.1533
   71MOL   C53041270   2.527   3.461   4.522 -0.2726  0.3106  0.4279
   71MOL   C53141271   2.407   3.551   4.549 -0.5050  0.5478 -0.4855
   71MOL   O53241272   2.317   3.474   4.631  0.1662 -0.1980  0.4479
   71MOL   C53341273   2.192   3.536   4.648 -0.7959  0.3071 -0.0782
   71MOL   O53441274   2.099   3.529   4.544 -0.2589  0.3855  0.0515
   71MOL   C53541275   2.132   3.484   4.781 -0.1649  0.0005 -0.4404
   71MOL   O53641276   2.065   3.579   4.849  0.3874  0.1995  0.2504
   71MOL   H53741277   2.501   3.706   4.007 -1.6435  0.5234  0.3883
   71MOL   H53841278   2.475   3.674   4.175 -0.9407 -0.8765 -1.1761
   71MOL   H53941279   2.760   3.665   4.055 -0.7640  1.0131 -0.3733
   71MOL   H54041280   2.627   3.444   4.121 -0.0950  0.8547  0.5479
   71MOL   H54141281   2.824   3.540   4.256  0.5737  1.2220 -1.5348
   71MOL   H54241282   2.764   3.687   4.315 -1.5305 -1.7547  2.6941
   71MOL   H54341283   2.669   3.622   4.508 -0.5217  0.3927 -0.9737
   71MOL   H54441284   2.741   3.456   4.478 -1.0800 -0.5689  2.7639
   71MOL   H54541285   2.548   3.436   4.626  1.4018 -2.2273 -0.4906
   71MOL   H54641286   2.501   3.369   4.471 -2.2188  2.6157 -2.9050
   71MOL   H54741287   2.430   3.640   4.607 -0.5821  0.5829 -0.5091
   71MOL   H54841288   2.350   3.586   4.463  1.0422 -0.0086 -1.7547
   71MOL   H54941289   2.204   3.644   4.656  1.6993 -0.0354  1.2451
   71MOL   H55041290   2.020   3.486   4.575 -1.5654  1.5976 -1.4681
   71MOL   H55141291   2.066   3.400   4.761  0.3763 -0.8472  1.2785
   71MOL   H55241292   2.215   3.460   4.847 -1.2807  0.9759  1.3861
   71MOL   C55341293   2.030   3.540   4.983 -0.9413  0.2481 -0.3364
   71MOL   C55441294   1.953   3.652   5.054 -0.4058 -0.4285  0.3048
   71MOL   O55541295   2.049   3.757   5.075  0.1624 -0.0913 -0.6337
   71MOL   C55641296   1.918   3.616   5.202  0.0001 -0.9316 -0.4647
   71MOL   O55741297   2.019   3.535   5.271 -0.1274 -0.0624  0.0324
   71MOL   C55841298   1.998   3.502   5.404 -0.4535 -0.6530  0.0546
   71MOL   C55941299   2.092   3.382   5.441  0.0907 -0.7368 -0.3825
   71MOL   C56041300   2.063   3.326   5.574 -0.8064 -1.1450 -0.4882
   71MOL   O56141301   1.932   3.270   5.578 -0.8252 -0.5473  1.0606
   71MOL   C56241302   1.914   3.175   5.680  0.2906  0.2297 -0.1111
   71MOL   O56341303   1.954   3.224   5.809 -0.4438  0.5007  0.1331
   71MOL   C56441304   1.775   3.135   5.678  0.2364 -0.9832  1.0166
   71MOL   O56541305   1.756   3.043   5.565 -0.8549  0.2555 -0.4798
   71MOL   H56641306   2.113   3.504   5.043 -2.0996 -0.7116  0.7180
   71MOL   H56741307   1.978   3.445   4.971 -0.1261 -0.4329  1.3779
   71MOL   H56841308   1.864   3.683   5.000 -1.0616 -1.7978  0.5852
   71MOL   H56941309   2.054   3.783   4.984 -0.2923  0.8898 -0.3852
   71MOL   H57041310   1.917   3.708   5.261 -0.9376 -0.2273 -1.5455
   71MOL   H57141311   1.819   3.571   5.200 -0.3337 -0.1500 -1.7678
   71MOL   H57241312   2.027   3.593   5.458  0.5484 -0.2925 -1.0672
   71MOL   H57341313   1.892   3.481   5.415 -0.8198  1.2580  0.3190
   71MOL   H57441314   2.194   3.420   5.443 -0.1643  0.0248 -1.6482
   71MOL   H57541315   2.083   3.301   5.367 -2.1480 -0.4578 -0.4567
   71MOL   H57641316   2.132   3.245   5.599 -0.7412 -0.5818  1.2229
   71MOL   H57741317   2.081   3.410   5.641 -0.7441 -0.9520 -0.7466
   71MOL   H57841318   1.977   3.090   5.656  0.4784 -0.2213  1.8952
   71MOL   H57941319   1.921   3.312   5.819  1.2399  1.0752  0.8240
   71MOL   H58041320   1.731   3.083   5.763 -1.2381 -0.9840  0.2811
   71MOL   H58141321   1.703   3.217   5.667 -0.0819 -1.4739 -0.6728
   71MOL   H58241322   1.763   3.106   5.495 -0.3874  2.0720  1.1475
   72MOL     C141323   5.294   2.592   0.146  0.1511 -0.4333 -0.0184
   72MOL     C241324   5.386   2.501   0.069 -0.0507  0.0196 -0.1983
   72MOL     O341325   5.321   2.459   7.640 -0.2418  0.4012  0.2812
   72MOL     C441326   5.524   2.569   0.038  0.0561  0.1670  1.0219
   72MOL     O541327   5.635   2.479   0.010  0.4319  0.2172  0.9315
   72MOL     C641328   5.598   2.388   7.598 -0.4874 -0.5399  0.1799
   72MOL     C741329   5.722   2.311   7.578 -0.6411 -0.1009  1.1093
   72MOL     C841330   5.705   2.189   7.478  0.1256  0.2884  0.0581
   72MOL     O941331   5.828   2.122   7.456 -0.2233 -0.0461  1.0489
   72MOL    C1041332   5.844   2.075   7.325  0.0004  0.2152  0.7729
   72MOL    O1141333   5.761   1.961   7.300  0.3051  0.2213  0.1561
   72MOL    C1241334   5.992   2.028   7.314 -0.0694  0.0386 -0.3899
   72MOL    O1341335   6.001   1.911   7.392 -0.0967  0.2431 -0.8076
   72MOL    H1441336   5.300   2.695   0.109 -0.5626 -0.8001 -1.2029
   72MOL    H1541337   5.315   2.592   0.253  2.4356 -0.2654 -0.4523
   72MOL    H1641338   5.400   2.406   0.120 -2.0151 -0.0533  0.2568
   72MOL    H1741339   5.309   2.523   7.571  1.2585 -2.1457 -2.4921
   72MOL    H1841340   5.515   2.646   7.656 -0.0241 -0.4558  0.3926
   72MOL    H1941341   5.558   2.619   0.129  1.1643 -2.2562  2.0043
   72MOL    H2041342   5.567   2.428   7.502  2.8412  0.5039 -0.5333
   72MOL    H2141343   5.519   2.315   7.620 -0.2262 -1.5201 -2.0169
   72MOL    H2241344   5.753   2.261   7.670  2.0079 -0.5728  0.0066
   72MOL    H2341345   5.809   2.368   7.545 -1.6633  0.4854 -0.6249
   72MOL    H2441346   5.643   2.108   7.517  0.8155 -0.7014 -0.8589
   72MOL    H2541347   5.657   2.220   7.385  0.7901  0.8030 -0.1180
   72MOL    H2641348   5.818   2.154   7.254  0.1809  0.6431  1.1750
   72MOL    H2741349   5.817   1.886   7.303 -0.3971 -0.2799  1.0035
   72MOL    H2841350   6.004   2.009   7.207 -0.0658 -1.0077 -0.2142
   72MOL    H2941351   6.061   2.101   7.355 -0.7677  1.4507 -1.6764
   72MOL    H3041352   5.196   2.544   0.145 -0.8525  1.5646 -0.6372
   72MOL    C3141353   6.107   1.835   7.339 -0.4170  0.4083 -0.0405
   72MOL    C3241354   6.157   1.717   7.430  0.3729  0.1340 -0.5102
   72MOL    O3341355   6.267   1.664   7.363  0.5704 -0.5265  0.1923
   72MOL    C3441356   6.055   1.602   7.449 -0.7775  0.7972  0.1022
   72MOL    O3541357   6.114   1.525   7.551  0.1767 -0.0785 -0.1292
   72MOL    C3641358   6.067   1.390   7.552  1.1790 -0.2595 -0.3500
   72MOL    C3741359   6.142   1.329   7.668  0.3707 -0.0163 -0.7270
   72MOL    C3841360   6.090   1.196   0.020  0.4211 -0.9529 -0.5965
   72MOL    O3941361   6.192   1.160   0.110  0.1365  0.3137  0.1169
   72MOL    C4041362   6.169   1.036   0.178  0.2774  0.2632  0.2810
   72MOL    O4141363   6.064   1.052   0.268 -0.3632  0.2725  0.0551
   72MOL    C4241364   6.300   1.003   0.257 -0.2586 -0.0605  0.7928
   72MOL    O4341365   6.391   0.948   0.174  0.0333  0.2280  0.5844
   72MOL    H4441366   6.069   1.786   7.249 -1.6782  0.4585  0.4555
   72MOL    H4541367   6.198   1.889   7.316  0.4047 -0.8991  0.0552
   72MOL    H4641368   6.192   1.756   7.526  1.8900  0.1554 -1.0572
   72MOL    H4741369   6.319   1.626   7.432  0.7860 -0.9894 -0.2161
   72MOL    H4841370   5.954   1.630   7.477 -1.0533 -1.7555  1.8033
   72MOL    H4941371   6.045   1.542   7.358 -1.5930 -1.8329  1.8672
   72MOL    H5041372   6.093   1.345   7.456 -1.0121  0.4070 -1.2813
   72MOL    H5141373   5.959   1.387   7.567  1.0948  3.1496  0.0215
   72MOL    H5241374   6.135   1.397   0.059  0.9082 -0.3235 -0.4386
   72MOL    H5341375   6.247   1.321   7.641  0.3574 -2.2428 -0.1686
   72MOL    H5441376   5.992   1.207   0.066  0.5001 -0.7613 -0.4732
   72MOL    H5541377   6.100   1.129   7.629  0.2351 -0.7313 -0.7936
   72MOL    H5641378   6.139   0.955   0.111  0.8532  0.2553  0.0276
   72MOL    H5741379   6.086   1.005   0.348 -0.9188  0.6806  0.4531
   72MOL    H5841380   6.338   1.095   0.302 -1.0522 -0.2353  1.8530
   72MOL    H5941381   6.285   0.940   0.344  2.2029 -2.2592 -0.3385
   72MOL    C6041382   6.502   0.893   0.238 -0.1007  0.2102  0.5270
   72MOL    C6141383   6.559   0.779   0.139  0.1221 -1.3307 -0.4623
   72MOL    O6241384   6.614   0.858   0.037 -0.0495 -0.3481 -0.0837
   72MOL    C6341385   6.453   0.686   0.073 -0.0163  0.4450  0.4724
   72MOL    O6441386   6.519   0.576   0.013  0.2868 -0.1993 -0.0116
   72MOL    C6541387   6.439   0.513   7.608  0.4592 -0.4014 -0.3773
   72MOL    C6641388   6.512   0.379   7.565  0.1248 -0.1727  0.2655
   72MOL    C6741389   6.421   0.291   7.475 -0.4454 -0.6425 -0.2564
   72MOL    O6841390   6.396   0.165   7.533  0.7541 -0.3360  0.5745
   72MOL    C6941391   6.316   0.159   7.649 -0.1311  0.4505  0.4261
   72MOL    O7041392   6.178   0.144   7.611 -0.1834 -0.4043 -0.9995
   72MOL    C7141393   6.355   0.032   0.031 -0.0172 -0.2868 -0.0894
   72MOL    O7241394   6.439   0.069   0.142 -0.7144  0.8791  0.3345
   72MOL    H7341395   6.470   0.824   0.316 -0.1496 -1.9458 -1.3077
   72MOL    H7441396   6.576   0.962   0.278 -0.3037  0.2949  0.7538
   72MOL    H7541397   6.637   0.720   0.187  0.9824  0.0234 -0.1760
   72MOL    H7641398   6.543   0.906   7.692 -0.8586 -0.7537  0.8717
   72MOL    H7741399   6.396   0.644   0.156  1.0780 -1.3897  0.3250
   72MOL    H7841400   6.394   0.750   0.007 -2.7754 -0.9930  1.4912
   72MOL    H7941401   6.436   0.575   7.519 -0.4508  0.3069  0.1413
   72MOL    H8041402   6.343   0.480   7.646 -0.6404 -0.1239 -2.8449
   72MOL    H8141403   6.557   0.329   7.651 -0.5105  0.4802  0.9887
   72MOL    H8241404   6.598   0.406   7.505  0.4309  0.4303  0.9715
   72MOL    H8341405   6.465   0.260   7.380  1.7750 -2.6397  1.3812
   72MOL    H8441406   6.332   0.349   7.452 -1.0809 -1.7042 -0.5291
   72MOL    H8541407   6.330   0.249   0.014  1.2893  0.0799  0.6576
   72MOL    H8641408   6.155   0.063   7.568 -3.2391 -1.1895  1.9093
   72MOL    H8741409   6.261   7.679   0.063 -0.2387 -0.6586 -1.2653
   72MOL    H8841410   6.399   7.649   7.663  3.8434  1.5998  0.2045
   72MOL    C8941411   6.572   0.065   0.104 -0.1563 -0.3915 -0.2659
   72MOL    C9041412   6.652   0.143   0.207 -1.1802  0.0700 -0.3023
   72MOL    O9141413   6.638   0.075   0.330 -0.3266 -0.2957  0.0728
   72MOL    C9241414   6.804   0.163   0.171 -0.0054 -0.6107 -0.1183
   72MOL    O9341415   6.816   0.247   0.057  0.0128 -0.8938  0.2696
   72MOL    C9441416   6.950   0.294   0.020  0.8745 -0.6185 -0.3688
   72MOL    C9541417   6.941   0.374   7.584 -0.3453 -0.0830 -0.3248
   72MOL    C9641418   6.875   0.511   7.608  0.4286  0.2874 -0.1308
   72MOL    O9741419   6.847   0.568   7.482  0.3185  0.0536  0.0168
   72MOL    C9841420   6.757   0.675   7.487  0.5341 -0.8522 -0.5929
   72MOL    O9941421   6.821   0.790   7.540 -0.0724  0.4776 -0.1044
   72MOL   C10041422   6.707   0.697   7.351  0.1470 -0.3112 -0.2944
   72MOL   O10141423   6.614   0.594   7.312 -0.4256 -0.3434 -0.2415
   72MOL   H10241424   6.603   0.113   0.012  0.8701 -0.9559 -0.2134
   72MOL   H10341425   6.601   7.654   0.109 -0.9512 -0.5659  1.2179
   72MOL   H10441426   6.604   0.240   0.214 -1.0746  0.1583 -0.7898
   72MOL   H10541427   6.548   0.073   0.357 -0.1869  2.5930  0.9589
   72MOL   H10641428   6.846   0.215   0.257  0.9431 -1.2850 -0.1607
   72MOL   H10741429   6.856   0.068   0.155 -0.7587 -0.5981 -3.0640
   72MOL   H10841430   6.987   0.194   7.692 -1.8335 -2.1366  1.6739
   72MOL   H10941431   6.998   0.348   0.102 -0.8070  0.8194 -0.2960
   72MOL   H11041432   6.883   0.328   7.504  0.2016 -1.0966 -0.1475
   72MOL   H11141433   7.032   0.385   7.525 -0.9355 -1.1999 -1.4668
   72MOL   H11241434   6.794   0.502   7.680  0.1898  0.1006 -0.4233
   72MOL   H11341435   6.946   0.572   7.664  0.8943 -2.1169  2.0427
   72MOL   H11441436   6.678   0.648   7.558 -1.1229 -1.1437 -2.4954
   72MOL   H11541437   6.761   0.806   7.612  0.5200  0.1279  0.4792
   72MOL   H11641438   6.654   0.792   7.348  1.5826  0.5010 -0.1856
   72MOL   H11741439   6.786   0.712   7.277  0.5640 -0.1971  0.1705
   72MOL   C11841440   6.580   0.598   7.170  1.0791 -0.3081  0.0196
   72MOL   C11941441   6.502   0.469   7.145  0.1281 -0.0370 -0.2478
   72MOL   O12041442   6.513   0.424   7.009 -0.3234  0.1291  0.1155
   72MOL   C12141443   6.347   0.481   7.169 -0.3894 -0.1905 -1.5305
   72MOL   O12241444   6.293   0.351   7.195 -0.4090 -0.1611 -0.0837
   72MOL   C12341445   6.154   0.344   7.211 -0.4519 -0.1742 -0.8358
   72MOL   C12441446   6.115   0.219   7.283 -0.3232 -0.3330 -0.2879
   72MOL   C12541447   5.969   0.185   7.246  0.9937  0.8313 -0.3012
   72MOL   O12641448   5.952   0.163   7.104  0.8794 -0.1251  0.1977
   72MOL   C12741449   5.820   0.195   7.058  0.6385  0.2952  0.1182
   72MOL   O12841450   5.718   0.116   7.124  0.6675  0.6342 -0.0758
   72MOL   C12941451   5.814   0.171   6.914 -0.6190  0.1534 -0.3773
   72MOL   O13041452   5.736   0.266   6.854  0.6431  0.2301 -0.5632
   72MOL   H13141453   6.524   0.691   7.160  0.2307 -0.6074  1.7850
   72MOL   H13241454   6.668   0.596   7.107  0.9818  1.9878 -0.2261
   72MOL   H13341455   6.548   0.387   7.199 -1.6891 -1.3315 -0.6350
   72MOL   H13441456   6.459   0.348   6.997  0.8491 -0.8908  1.1316
   72MOL   H13541457   6.319   0.535   7.260 -4.1146 -0.6446 -2.3193
   72MOL   H13641458   6.299   0.536   7.088 -1.0159 -0.2764 -1.2181
   72MOL   H13741459   6.104   0.340   7.114 -3.5285  1.2184  0.5981
   72MOL   H13841460   6.116   0.436   7.257  2.3645  1.0902 -0.9475
   72MOL   H13941461   6.127   0.238   7.390  1.7039 -0.8232 -0.4099
   72MOL   H14041462   6.185   0.139   7.260 -1.6200 -1.4162 -0.5432
   72MOL   H14141463   5.945   0.089   7.293 -2.4681  1.5102 -0.5171
   72MOL   H14241464   5.901   0.263   7.279 -0.9305 -1.0186  0.2166
   72MOL   H14341465   5.799   0.300   7.080  1.0459  0.6433 -1.1361
   72MOL   H14441466   5.646   0.107   7.064  0.0229  0.9610  0.6416
   72MOL   H14541467   5.909   0.201   6.867 -0.0494 -0.4923  0.3606
   72MOL   H14641468   5.795   0.067   6.891  1.8338 -0.4657  0.1932
   72MOL   C14741469   5.706   0.234   6.718  0.8438  0.6324 -0.4448
   72MOL   C14841470   5.603   0.350   6.686 -0.8623 -0.2021  0.2421
   72MOL   O14941471   5.480   0.299   6.731  0.0016 -0.0453 -0.0097
   72MOL   C15041472   5.591   0.388   6.536 -0.0964  0.1584  0.2328
   72MOL   O15141473   5.696   0.349   6.441  0.1546 -0.1582  0.1972
   72MOL   C15241474   5.804   0.431   6.426  0.2740 -0.3412  0.2028
   72MOL   C15341475   5.933   0.352   6.417 -0.4876  0.5578  0.5622
   72MOL   C15441476   6.055   0.435   6.376 -0.2413  0.4157 -0.7174
   72MOL   O15541477   6.156   0.340   6.345 -0.6244 -0.1978  0.3250
   72MOL   C15641478   6.283   0.401   6.338  0.6387 -0.3875  0.0087
   72MOL   O15741479   6.296   0.481   6.224 -0.0696  0.7768 -0.0615
   72MOL   C15841480   6.388   0.287   6.334  0.3184 -0.0171  0.4666
   72MOL   O15941481   6.419   0.259   6.467  0.0344  0.1657  0.8355
   72MOL   H16041482   5.656   0.140   6.694 -1.9430  2.7081 -3.1604
   72MOL   H16141483   5.788   0.253   6.649  1.6351  0.1524  0.3440
   72MOL   H16241484   5.643   0.435   6.742 -0.2526 -0.2675 -0.0967
   72MOL   H16341485   5.503   0.251   6.809  1.2842 -0.6736 -0.7531
   72MOL   H16441486   5.515   0.325   6.491 -1.1814  1.3695  0.3567
   72MOL   H16541487   5.559   0.492   6.527 -0.6576 -0.0433 -0.1108
   72MOL   H16641488   5.808   0.510   6.501 -0.1195 -1.1383  1.0726
   72MOL   H16741489   5.792   0.481   6.330  0.4669 -0.0492  0.3263
   72MOL   H16841490   5.920   0.279   6.337 -0.9933 -1.5574  2.5353
   72MOL   H16941491   5.944   0.295   6.509 -2.4537 -3.1887 -1.3957
   72MOL   H17041492   6.029   0.492   6.287  2.3814  0.5758 -1.4056
   72MOL   H17141493   6.073   0.516   6.447  0.0957 -1.3358  1.2680
   72MOL   H17241494   6.304   0.461   6.426 -2.5254 -0.1639  0.6861
   72MOL   H17341495   6.339   0.430   6.157 -0.7668 -2.0701  1.5351
   72MOL   H17441496   6.350   0.196   6.286  1.6404  0.1325 -0.8818
   72MOL   H17541497   6.479   0.307   6.279  0.4081  1.2555  1.0588
   72MOL   C17641498   6.523   0.166   6.484  0.5206  0.6931  0.3682
   72MOL   C17741499   6.535   0.137   6.634  0.2729 -0.2381  0.5928
   72MOL   O17841500   6.587   0.245   6.707 -0.1716  0.1315 -0.2866
   72MOL   C17941501   6.606   7.694   6.661  0.3458 -0.0534 -0.2598
   72MOL   O18041502   6.622   7.660   6.802 -0.0745  0.9553 -0.7055
   72MOL   C18141503   6.704   7.543   6.828  1.2601 -0.8153  0.7745
   72MOL   C18241504   6.854   7.580   6.850  0.4373 -0.3242  0.1228
   72MOL   C18341505   6.947   7.459   6.871  0.6144 -0.5175  0.5626
   72MOL   O18441506   7.068   7.523   6.901 -0.2389  0.0023  0.0053
   72MOL   C18541507   7.172   7.434   6.910 -0.0504  0.5308  0.6349
   72MOL   O18641508   7.167   7.350   7.022 -0.0479  0.0339  0.3977
   72MOL   C18741509   7.300   7.514   6.907  0.2487 -0.5719 -0.0323
   72MOL   O18841510   7.407   7.431   6.897  0.2327  0.1592 -0.5264
   72MOL   H18941511   6.620   0.200   6.449  0.4189  0.5297 -0.0694
   72MOL   H19041512   6.491   0.072   6.438  0.0836  1.2399 -0.4531
   72MOL   H19141513   6.431   0.118   6.663  0.2122  0.2681  0.7087
   72MOL   H19241514   6.594   0.218   6.797  0.5343  2.8467  0.5256
   72MOL   H19341515   6.565   7.618   6.596 -0.2344  0.7800 -0.8759
   72MOL   H19441516   6.708   0.008   6.621  0.3341 -0.3785 -0.3554
   72MOL   H19541517   6.701   7.459   6.759  0.9489  1.6596 -2.2892
   72MOL   H19641518   6.677   7.502   6.926  2.1702  0.9347  1.7925
   72MOL   H19741519   6.855   7.649   6.935  1.6003  0.1976 -0.2988
   72MOL   H19841520   6.884   7.633   6.760  0.5427  1.5507  1.2235
   72MOL   H19941521   6.924   7.398   6.959  2.4149  2.0123  2.8528
   72MOL   H20041522   6.955   7.394   6.783 -2.2803 -0.0053 -0.1479
   72MOL   H20141523   7.173   7.368   6.824 -1.7122  1.2190  0.0572
   72MOL   H20241524   7.246   7.371   7.069 -0.1217  2.3926 -0.4436
   72MOL   H20341525   7.306   7.585   6.825 -0.3656 -0.5197 -0.0347
   72MOL   H20441526   7.305   7.576   6.996 -0.8925 -0.9142  0.2911
   72MOL   C20541527   7.539   7.483   6.899 -0.7678  0.2020  0.3146
   72MOL   C20641528   7.633   7.383   6.836  0.0529 -0.2556 -0.9635
   72MOL   O20741529   7.631   7.386   6.691  0.1636  0.2187 -0.0962
   72MOL   C20841530   0.081   7.405   6.885 -0.7274 -0.3288  0.1918
   72MOL   O20941531   0.122   7.532   6.830  0.1678  0.1852  0.1454
   72MOL   C21041532   0.266   7.542   6.830 -0.5782 -0.3691  0.0477
   72MOL   C21141533   0.303   7.648   6.722 -0.1168  0.5923 -0.0201
   72MOL   C21241534   0.276   7.610   6.580 -0.1034  0.4260  0.1907
   72MOL   O21341535   0.128   7.599   6.565 -0.4618  0.4017  0.0797
   72MOL   C21441536   0.096   7.600   6.428 -0.1045 -0.5364 -1.0225
   72MOL   O21541537   0.129   0.030   6.372 -0.2937 -0.0307  0.0227
   72MOL   C21641538   7.640   7.579   6.403 -0.5837 -0.6466  0.2525
   72MOL   O21741539   7.569   0.001   6.446 -0.5755 -0.2237  0.8724
   72MOL   H21841540   7.557   7.518   7.001  0.7571  2.6119 -0.7361
   72MOL   H21941541   7.557   7.575   6.844  2.6822 -0.0417  0.9160
   72MOL   H22041542   7.604   7.286   6.876  0.2539  0.3815  0.7261
   72MOL   H22141543   7.690   7.460   6.683  0.1744  0.0307 -1.8514
   72MOL   H22241544   0.083   7.422   6.993  0.5348 -1.2049  0.3203
   72MOL   H22341545   0.148   7.323   6.860 -1.8406 -1.2855  0.3072
   72MOL   H22441546   0.307   7.444   6.808  0.0510 -0.1376  0.1711
   72MOL   H22541547   0.298   7.587   6.924 -2.5024  1.9449 -0.3448
   72MOL   H22641548   0.410   7.667   6.729  0.4746 -2.5495  0.2780
   72MOL   H22741549   0.257   0.049   6.746  0.3224  0.2381  2.3405
   72MOL   H22841550   0.310   7.686   6.511 -0.3111 -0.2779 -0.7031
   72MOL   H22941551   0.319   7.516   6.544 -0.4420  0.0300  0.8123
   72MOL   H23041552   0.167   7.530   6.385 -0.5120  1.1264 -4.5529
   72MOL   H23141553   0.049   0.080   6.373  0.2451  0.9261 -1.9062
   72MOL   H23241554   7.621   7.566   6.296 -0.9504  0.6104  0.1637
   72MOL   H23341555   7.602   7.491   6.456 -3.1650 -0.2092 -0.7766
   72MOL   C23441556   7.538   7.692   6.586 -0.4619  0.2087  0.3008
   72MOL   C23541557   7.464   0.120   6.627 -0.0466  0.0895  0.2133
   72MOL   O23641558   7.495   0.150   6.758 -0.7011  0.2572 -0.1159
   72MOL   C23741559   7.315   0.114   6.608 -0.4036 -0.0078  0.1894
   72MOL   O23841560   7.257   0.244   6.616 -0.0123 -0.4533 -0.3908
   72MOL   C23941561   7.124   0.236   6.635  0.5193 -0.5111  0.0334
   72MOL   C24041562   7.073   0.380   6.657 -0.2986  0.6197  0.4740
   72MOL   C24141563   6.922   0.381   6.677  0.5248  0.1013  0.1970
   72MOL   O24241564   6.894   0.518   6.699  0.5692  0.1861 -0.0078
   72MOL   C24341565   6.765   0.549   6.718  0.0381  0.7195  0.4707
   72MOL   O24441566   6.676   0.504   6.621  0.2341 -0.2743  0.3467
   72MOL   C24541567   6.739   0.704   6.740 -0.5468  0.1204  0.0187
   72MOL   O24641568   6.810   0.754   6.853  0.1913 -0.0513 -0.5234
   72MOL   H24741569   7.494   7.597   6.618  0.6299 -0.9819 -1.6701
   72MOL   H24841570   7.629   0.008   6.645  0.9421 -1.4857 -1.5168
   72MOL   H24941571   7.502   0.201   6.566 -1.5810  0.7949  0.1813
   72MOL   H25041572   7.458   0.233   6.784 -1.7449 -0.3039  0.2369
   72MOL   H25141573   7.289   0.084   6.507 -0.4904  0.0969  0.1814
   72MOL   H25241574   7.268   0.043   6.676 -1.9865  1.2521  0.4393
   72MOL   H25341575   7.088   0.174   6.717  2.2897  0.1916  1.3653
   72MOL   H25441576   7.078   0.191   6.546  2.1522 -3.2568  0.5219
   72MOL   H25541577   7.097   0.437   6.568 -1.1642  1.1575  0.5678
   72MOL   H25641578   7.125   0.424   6.743  0.6864  0.2224  0.0831
   72MOL   H25741579   6.877   0.339   6.587 -1.1487 -2.2670  2.0781
   72MOL   H25841580   6.889   0.327   6.765 -0.7707 -0.1724 -0.4401
   72MOL   H25941581   6.740   0.497   6.810  2.3508 -1.0576  0.1444
   72MOL   H26041582   6.625   0.429   6.647 -0.7457  0.2132 -0.1446
   72MOL   H26141583   6.767   0.751   6.646 -0.3029  1.1354  0.5897
   72MOL   H26241584   6.633   0.730   6.744 -1.0310 -1.7385 -0.3909
   72MOL   C26341585   6.943   0.788   6.829 -0.3545  0.3313  0.7655
   72MOL   C26441586   7.018   0.759   6.962 -0.0634 -0.5848 -0.3583
   72MOL   O26541587   6.987   0.868   7.047  0.0773  0.0898  0.8268
   72MOL   C26641588   6.989   0.633   7.032  0.4076 -0.3448  0.1824
   72MOL   O26741589   7.088   0.625   7.135 -0.3288 -0.3172 -0.4385
   72MOL   C26841590   7.081   0.510   7.222  0.6627 -0.4373 -0.1130
   72MOL   C26941591   7.194   0.523   7.321  0.2057 -0.6877 -0.3280
   72MOL   C27041592   7.179   0.648   7.406 -0.4012 -0.6330  0.0726
   72MOL   O27141593   7.275   0.668   7.510  0.1888  0.4890  0.1046
   72MOL   C27241594   7.253   0.777   7.590  0.0796 -0.4622 -0.7132
   72MOL   O27341595   7.132   0.775   7.666  0.1341  0.0369  1.0402
   72MOL   C27441596   7.372   0.783   7.686 -0.1548 -0.0396  0.6561
   72MOL   O27541597   7.494   0.761   7.611 -0.0185  0.1291  0.2677
   72MOL   H27641598   6.973   0.884   6.787 -0.4426 -0.8605 -2.1263
   72MOL   H27741599   6.977   0.712   6.759 -0.0510  0.0406  1.2273
   72MOL   H27841600   7.125   0.765   6.946  0.1019 -2.4898 -0.0232
   72MOL   H27941601   6.893   0.874   7.054 -0.1098 -2.1019  0.4919
   72MOL   H28041602   6.886   0.642   7.066  0.2263 -1.7566  0.0613
   72MOL   H28141603   6.996   0.549   6.962 -0.0383 -0.9651  0.8824
   72MOL   H28241604   7.087   0.415   7.169 -1.0045 -0.3945 -0.4090
   72MOL   H28341605   6.986   0.509   7.275  1.1449  1.5602  0.8201
   72MOL   H28441606   7.289   0.531   7.268 -0.7246 -0.2753 -1.9508
   72MOL   H28541607   7.198   0.433   7.383 -1.4957  0.8217  2.0545
   72MOL   H28641608   7.192   0.733   7.339  0.3689 -1.2346 -0.5472
   72MOL   H28741609   7.083   0.646   7.458  0.1601  0.1896  1.1606
   72MOL   H28841610   7.245   0.866   7.527 -0.8243 -0.0921 -0.0881
   72MOL   H28941611   7.057   0.786   7.610  1.8647 -0.3840 -1.4426
   72MOL   H29041612   7.374   0.875   0.050 -1.0710  0.3169  0.1287
   72MOL   H29141613   7.359   0.708   0.070 -1.6123 -0.1397  0.3357
   72MOL   C29241614   7.544   0.872   7.536  0.0349 -0.2670  0.6138
   72MOL   C29341615   7.658   0.843   7.436  0.1345 -0.7158  0.4037
   72MOL   O29441616   0.080   0.827   7.512  0.2173 -0.3134  0.0051
   72MOL   C29541617   7.625   0.722   7.356 -0.2372  0.1266  0.2076
   72MOL   O29641618   0.023   0.722   7.246  0.4909 -0.7303  0.4388
   72MOL   C29741619   0.013   0.607   7.163 -0.1328  1.3140 -0.1451
   72MOL   C29841620   0.084   0.628   7.029  0.5148 -0.3511 -0.1537
   72MOL   C29941621   0.021   0.746   6.947  0.1568 -0.1211  0.3112
   72MOL   O30041622   0.078   0.779   6.818  0.6366 -0.1362  0.2481
   72MOL   C30141623   0.047   0.911   6.785  0.1499 -0.8466  0.2238
   72MOL   O30241624   0.155   0.987   6.837 -0.4372 -0.4167  0.1062
   72MOL   C30341625   0.015   0.931   6.635 -0.0156 -0.0414  0.3874
   72MOL   O30441626   7.624   1.043   6.614  0.0841  0.4101  0.4502
   72MOL   H30541627   7.460   0.917   7.483  0.6649  1.3351  0.9380
   72MOL   H30641628   7.587   0.953   7.597  0.2507 -0.2317  0.4153
   72MOL   H30741629   7.672   0.927   7.368 -0.3827  0.2251  1.4313
   72MOL   H30841630   0.070   0.764   7.583  2.2118  0.9981  1.5029
   72MOL   H30941631   7.631   0.630   7.414  0.3663  0.4469  0.6497
   72MOL   H31041632   7.527   0.721   7.308 -0.3202 -2.6165  0.3582
   72MOL   H31141633   7.604   0.580   7.142  0.6856 -1.8095 -0.2888
   72MOL   H31241634   0.047   0.517   7.213  0.9112  2.0572  0.4991
   72MOL   H31341635   0.086   0.540   6.964  1.0651 -0.4206 -0.0386
   72MOL   H31441636   0.184   0.655   7.061  0.7133 -0.6680 -0.5101
   72MOL   H31541637   7.608   0.730   6.949 -0.2339  1.9969 -1.3790
   72MOL   H31641638   0.024   0.829   7.017  1.6260  1.0495 -1.0894
   72MOL   H31741639   7.663   0.946   6.852  0.2954 -2.8078  1.4715
   72MOL   H31841640   0.237   0.940   6.839  0.3483  0.9424  1.6361
   72MOL   H31941641   7.674   0.840   6.587  1.3251 -1.2780  1.6810
   72MOL   H32041642   0.113   0.958   6.596 -1.5043  2.0462 -2.0194
   72MOL   C32141643   7.608   1.070   6.473 -1.0338 -0.1216  0.0818
   72MOL   C32241644   7.527   1.196   6.451 -0.3441 -0.0414  0.2548
   72MOL   O32341645   7.619   1.293   6.490 -0.1773  0.8239 -0.3507
   72MOL   C32441646   7.502   1.215   6.295  0.6449 -0.3689  0.3631
   72MOL   O32541647   7.405   1.319   6.267  0.1405 -0.0810 -0.4928
   72MOL   C32641648   7.344   1.314   6.139  0.3314 -0.2624  0.7712
   72MOL   C32741649   7.231   1.420   6.119 -0.0698  0.6133  0.1704
   72MOL   C32841650   7.164   1.387   5.989 -0.1654 -0.5919 -0.0970
   72MOL   O32941651   7.057   1.475   5.951 -0.3640  0.2140  0.2509
   72MOL   C33041652   6.972   1.427   5.849 -0.0321 -0.3525  0.3304
   72MOL   O33141653   6.893   1.324   5.904  0.1489  0.2320 -0.3403
   72MOL   C33241654   6.877   1.544   5.804  0.0583 -0.0238 -0.2992
   72MOL   O33341655   6.922   1.605   5.678 -0.7796  0.1048 -0.3599
   72MOL   H33441656   7.558   0.982   6.432  0.1256 -1.6225  1.7805
   72MOL   H33541657   0.010   1.070   6.421 -1.1590  1.3008 -0.1549
   72MOL   H33641658   7.431   1.214   6.501 -0.8605 -1.3178 -0.2497
   72MOL   H33741659   7.645   1.272   6.578  1.3521 -1.2549 -1.2413
   72MOL   H33841660   7.456   1.124   6.256  1.5238 -0.3617 -0.6951
   72MOL   H33941661   7.597   1.223   6.242  1.3259 -2.3197  1.2526
   72MOL   H34041662   7.317   1.210   6.124  0.6530 -0.4166  1.2428
   72MOL   H34141663   7.419   1.339   6.064  0.2753  0.2956  0.8989
   72MOL   H34241664   7.156   1.421   6.198 -2.3913  2.1164 -2.0058
   72MOL   H34341665   7.277   1.519   6.118  1.3235 -0.0285 -0.8836
   72MOL   H34441666   7.230   1.382   5.902  0.8628  2.0086  0.4667
   72MOL   H34541667   7.123   1.287   5.997 -1.3770 -0.1012  0.0299
   72MOL   H34641668   7.022   1.380   5.764 -0.1167 -1.9169  1.1186
   72MOL   H34741669   6.839   1.359   5.973 -1.0290 -0.4923 -0.8693
   72MOL   H34841670   6.774   1.511   5.794 -0.1960  0.6925 -0.0547
   72MOL   H34941671   6.877   1.618   5.884  1.2874 -1.3991  0.9764
   72MOL   C35041672   7.046   1.676   5.701 -0.1979 -0.7390  0.0453
   72MOL   C35141673   7.097   1.736   5.571  0.9110 -0.6817 -0.6890
   72MOL   O35241674   7.192   1.840   5.592  0.1554  0.3586 -0.1387
   72MOL   C35341675   7.160   1.627   5.476 -0.1939 -0.4362 -0.0025
   72MOL   O35441676   7.127   1.643   5.342  0.0010  0.0304  0.3047
   72MOL   C35541677   7.157   1.525   5.268 -0.1882  0.3101  0.6811
   72MOL   C35641678   7.134   1.578   5.124  0.3997 -0.9450  0.3833
   72MOL   C35741679   7.256   1.654   5.073  0.3309  0.3800 -0.3959
   72MOL   O35841680   7.244   1.698   4.942 -0.5282  0.5745 -0.5707
   72MOL   C35941681   7.345   1.773   4.889  0.4611  0.2979  0.0989
   72MOL   O36041682   7.469   1.714   4.875  0.0636  0.5791 -0.4256
   72MOL   C36141683   7.301   1.821   4.749 -0.4427 -0.0930 -0.2505
   72MOL   O36241684   7.273   1.709   4.665 -0.0050 -0.0391  0.2155
   72MOL   H36341685   7.118   1.627   5.767 -1.1253 -1.0042  0.8702
   72MOL   H36441686   7.020   1.760   5.765  0.5277 -0.0833 -0.5093
   72MOL   H36541687   7.015   1.785   5.519 -0.1654 -1.4751  0.2502
   72MOL   H36641688   7.266   1.806   5.641  0.7431 -1.1571 -2.0230
   72MOL   H36741689   7.269   1.614   5.475 -0.0370  0.8102 -0.2638
   72MOL   H36841690   7.126   1.529   5.508 -1.9231  0.0734 -0.2734
   72MOL   H36941691   7.092   1.441   5.294 -1.1732  0.2554 -1.8178
   72MOL   H37041692   7.259   1.494   5.288  0.0266  0.7973  0.3407
   72MOL   H37141693   7.041   1.635   5.112  0.6905 -0.4963  0.2608
   72MOL   H37241694   7.118   1.496   5.055  1.4934 -1.2996  0.5425
   72MOL   H37341695   7.283   1.742   5.131 -0.9353  0.8418 -0.5062
   72MOL   H37441696   7.338   1.582   5.070 -0.4621 -0.5488 -0.0890
   72MOL   H37541697   7.360   1.858   4.956  1.1569  0.4035 -0.1915
   72MOL   H37641698   7.457   1.639   4.818 -1.9529 -0.0308  0.7646
   72MOL   H37741699   7.207   1.876   4.762 -1.8707 -2.6166  0.3277
   72MOL   H37841700   7.383   1.879   4.707  0.6227  0.5364  2.6226
   72MOL   C37941701   7.274   1.753   4.526 -0.0829  0.1855 -0.2563
   72MOL   C38041702   7.184   1.673   4.439  0.1544 -0.3964  0.2885
   72MOL   O38141703   7.050   1.724   4.462  0.2132 -0.0209 -0.0660
   72MOL   C38241704   7.219   1.670   4.283  0.0228 -0.1329 -0.0060
   72MOL   O38341705   7.191   1.535   4.238 -0.0780 -0.1197 -0.1843
   72MOL   C38441706   7.121   1.532   4.110  0.0610 -0.7847 -0.7311
   72MOL   C38541707   6.982   1.593   4.103  0.1286  0.4186  0.0792
   72MOL   C38641708   6.955   1.648   3.963  0.2967  0.7893  0.8103
   72MOL   O38741709   6.946   1.538   3.869 -0.3140 -0.2865 -0.6336
   72MOL   C38841710   6.891   1.568   3.750  0.3029 -0.3367 -0.0326
   72MOL   O38941711   6.981   1.638   3.662 -0.0465  0.1584  0.3879
   72MOL   C39041712   6.861   1.435   3.688 -0.1738 -0.4710  0.8268
   72MOL   O39141713   6.983   1.365   3.673 -0.0489 -0.0961 -0.4004
   72MOL   H39241714   7.374   1.730   4.490  0.2212  2.2345 -0.7929
   72MOL   H39341715   7.257   1.856   4.495  1.1044 -0.2394 -2.3848
   72MOL   H39441716   7.191   1.571   4.476  0.9811 -2.4174 -4.9928
   72MOL   H39541717   7.044   1.769   4.544  0.1289 -0.3159  0.0900
   72MOL   H39641718   7.165   1.749   4.231  1.9206  0.7652 -0.6601
   72MOL   H39741719   7.327   1.687   4.275 -0.2436  0.9434 -1.4933
   72MOL   H39841720   7.122   1.430   4.073 -0.9725 -0.2417 -2.3129
   72MOL   H39941721   7.188   1.575   4.036 -1.4102 -1.0853 -2.2464
   72MOL   H40041722   6.964   1.674   4.173  0.5455  1.2187 -0.7369
   72MOL   H40141723   6.905   1.523   4.137  2.5291 -2.6240 -0.4675
   72MOL   H40241724   6.857   1.694   3.979  0.1690  0.3416  1.3249
   72MOL   H40341725   7.033   1.716   3.929  0.7408 -1.0440 -1.9526
   72MOL   H40441726   6.796   1.620   3.761  1.6365  2.2876 -0.6337
   72MOL   H40541727   7.051   1.577   3.643 -1.3861 -1.5431  0.8413
   72MOL   H40641728   6.790   1.382   3.753  1.4623 -0.3590  2.7521
   72MOL   H40741729   6.823   1.450   3.587  3.2310 -1.7281 -0.7010
   72MOL   C40841730   6.987   1.246   3.593 -0.1188 -0.1423 -0.6485
   72MOL   C40941731   7.138   1.207   3.580  0.2376 -0.0727 -0.1311
   72MOL   O41041732   7.127   1.088   3.500  0.6332  0.7042 -0.3404
   72MOL   C41141733   7.209   1.184   3.716  0.2525  0.1779 -0.6173
   72MOL   O41241734   7.352   1.218   3.702  0.3516 -0.3803 -0.1696
   72MOL   C41341735   7.419   1.234   3.829 -0.6388 -0.1586 -0.3094
   72MOL   C41441736   7.370   1.362   3.892 -0.5979  0.0411 -0.2197
   72MOL   C41541737   7.449   1.396   4.021  0.3894  0.0101  0.0750
   72MOL   O41641738   7.408   1.315   4.130 -0.1769 -0.3530 -0.4669
   72MOL   C41741739   7.455   1.360   4.255  0.2044 -0.4447 -0.0614
   72MOL   O41841740   7.600   1.352   4.269 -0.1811  0.1893 -0.3732
   72MOL   C41941741   7.387   1.275   4.364 -0.8146 -0.3046 -0.1228
   72MOL   O42041742   7.379   1.348   4.488  0.4962  0.3921  0.4891
   72MOL   H42141743   6.950   1.258   3.491  0.7825 -1.1139 -1.0889
   72MOL   H42241744   6.922   1.172   3.639 -0.3671  0.3695 -0.1706
   72MOL   H42341745   7.199   1.270   3.516  1.1204 -1.4179 -0.6541
   72MOL   H42441746   7.093   1.100   3.413  0.9807  0.4496 -0.5149
   72MOL   H42541747   7.156   1.231   3.799  1.0416  0.3558 -0.2080
   72MOL   H42641748   7.200   1.077   3.735  2.6472 -0.0573 -0.6135
   72MOL   H42741749   7.397   1.148   3.892  0.3746  0.3012  0.6846
   72MOL   H42841750   7.526   1.247   3.811 -0.8165  2.8422  0.5401
   72MOL   H42941751   7.267   1.357   3.926  0.5903 -1.4009  3.3780
   72MOL   H43041752   7.377   1.440   3.816  0.2735 -0.1856 -0.3729
   72MOL   H43141753   7.556   1.399   3.998  0.2155 -1.4136 -0.9384
   72MOL   H43241754   7.415   1.495   4.051 -1.8045 -0.6424 -0.1768
   72MOL   H43341755   7.432   1.466   4.263  2.2549 -0.1448  2.7681
   72MOL   H43441756   7.639   1.379   4.351 -0.1012 -0.4270 -0.2106
   72MOL   H43541757   7.282   1.269   4.337 -1.4309  0.0733  2.0226
   72MOL   H43641758   7.420   1.172   4.378  2.1947  0.1885 -3.0481
   72MOL   C43741759   7.358   1.273   4.600 -0.1320 -0.6285 -0.2727
   72MOL   C43841760   7.332   1.376   4.707  0.3893 -0.0059  0.0528
   72MOL   O43941761   7.446   1.460   4.724  0.5018 -0.2641 -0.3573
   72MOL   C44041762   7.274   1.318   4.831  0.2003  0.4927 -0.4932
   72MOL   O44141763   7.135   1.310   4.817  0.1021  0.2178 -0.3769
   72MOL   C44241764   7.074   1.200   4.878 -0.6056  0.0390 -0.4568
   72MOL   C44341765   7.090   1.203   5.031 -0.6440 -0.0502  0.6239
   72MOL   C44441766   6.999   1.105   5.106 -0.0397 -0.2831 -0.0675
   72MOL   O44541767   7.039   0.970   5.091 -0.1703  0.4302 -1.1989
   72MOL   C44641768   6.971   0.875   5.163 -0.0646 -0.0320 -0.1420
   72MOL   O44741769   6.997   0.897   5.299 -1.1651 -0.3121 -0.3000
   72MOL   C44841770   7.019   0.735   5.124 -0.3380  0.0503  0.5966
   72MOL   O44941771   6.951   0.704   4.998  0.1784 -0.1472  0.2261
   72MOL   H45041772   7.280   1.197   4.586 -1.0165  0.4473 -1.2765
   72MOL   H45141773   7.441   1.209   4.630  0.4253 -0.2141 -0.9350
   72MOL   H45241774   7.256   1.450   4.684  0.4890 -0.0971 -0.5610
   72MOL   H45341775   7.479   1.466   4.636  0.9432  2.9469 -0.0273
   72MOL   H45441776   7.314   1.217   4.833  2.1776  1.2661  0.1697
   72MOL   H45541777   7.296   1.373   4.923 -1.0052  1.2867 -0.6661
   72MOL   H45641778   7.119   1.114   4.829  0.2677  0.6101 -0.6507
   72MOL   H45741779   6.967   1.197   4.857 -1.2338  3.5665  1.7735
   72MOL   H45841780   7.064   1.297   5.080 -0.1846 -0.1085  0.9868
   72MOL   H45941781   7.194   1.173   5.047 -0.1508  0.2784 -1.7384
   72MOL   H46041782   6.989   1.119   5.214  0.2819 -0.2994 -0.0370
   72MOL   H46141783   6.899   1.127   5.069 -0.3893 -0.2393  0.8785
   72MOL   H46241784   6.864   0.885   5.148 -0.3053  0.3863  1.7110
   72MOL   H46341785   7.089   0.890   5.317 -1.1036  1.5076  0.2398
   72MOL   H46441786   7.127   0.723   5.121 -0.4484 -1.0752  0.6297
   72MOL   H46541787   6.997   0.663   5.203 -1.1742  1.0294  1.2679
   72MOL   C46641788   6.968   0.566   4.974  0.1958 -0.3966 -0.0814
   72MOL   C46741789   6.923   0.542   4.823 -1.0136 -0.5023 -0.8517
   72MOL   O46841790   6.938   0.414   4.769 -0.0503  0.4209  0.0794
   72MOL   C46941791   6.776   0.566   4.800  0.0155  0.8473 -0.0237
   72MOL   O47041792   6.745   0.547   4.664 -0.1012  0.1450  0.5743
   72MOL   C47141793   6.606   0.558   4.633  0.4193  0.2488 -0.3125
   72MOL   C47241794   6.588   0.564   4.482 -0.6292  0.1107  0.3689
   72MOL   C47341795   6.626   0.438   4.402 -1.4739  0.4629 -0.0603
   72MOL   O47441796   6.606   0.465   4.266 -0.0427  0.0292 -0.2396
   72MOL   C47541797   6.651   0.358   4.178  0.6125 -0.2875 -0.9543
   72MOL   O47641798   6.778   0.390   4.124 -0.0381  0.3125  0.0304
   72MOL   C47741799   6.543   0.355   4.066 -0.9462 -0.1779 -0.4166
   72MOL   O47841800   6.414   0.350   4.129  0.7167 -0.8923 -0.0685
   72MOL   H47941801   6.900   0.514   5.041 -0.3522  2.7064  1.8858
   72MOL   H48041802   7.070   0.528   4.988 -0.4629 -1.1781  3.1067
   72MOL   H48141803   6.984   0.613   4.769  0.0045  0.4571  1.4896
   72MOL   H48241804   6.878   0.428   4.697  0.3291 -0.0998 -0.3415
   72MOL   H48341805   6.719   0.495   4.860  0.2974  1.6056  1.1379
   72MOL   H48441806   6.746   0.668   4.824 -1.3536  0.4589 -0.0357
   72MOL   H48541807   6.551   0.633   4.689 -2.0374 -0.1755 -2.0047
   72MOL   H48641808   6.545   0.473   4.665  1.0500  0.0494  0.3557
   72MOL   H48741809   6.645   0.648   4.442  0.7950 -1.6166 -1.3503
   72MOL   H48841810   6.488   0.589   4.447 -1.0471 -0.5364  1.1015
   72MOL   H48941811   6.732   0.419   4.420 -1.6278 -0.9441 -0.5270
   72MOL   H49041812   6.571   0.345   4.419 -0.4311 -0.0453  0.5604
   72MOL   H49141813   6.654   0.261   4.228 -0.1604  0.5734  0.8097
   72MOL   H49241814   6.828   0.420   4.198  1.8378 -1.2241 -0.5671
   72MOL   H49341815   6.551   0.455   4.024 -0.1797  0.4913  1.2315
   72MOL   H49441816   6.560   0.267   4.004  2.5258  0.8237 -1.0081
   72MOL   C49541817   6.305   0.417   4.062 -0.2567 -0.6177 -0.0812
   72MOL   C49641818   6.185   0.426   4.153 -0.2579  0.4186 -0.0256
   72MOL   O49741819   6.225   0.511   4.258  0.4218 -0.2884  0.6280
   72MOL   C49841820   6.057   0.474   4.083 -0.8489 -0.7712  1.5987
   72MOL   O49941821   5.950   0.440   4.168  0.9929 -0.8104  0.0751
   72MOL   C50041822   5.824   0.494   4.137  0.0609 -0.1710 -0.1165
   72MOL   C50141823   5.724   0.423   4.223  0.1725 -0.6343 -0.0856
   72MOL   C50241824   5.738   0.455   4.371  0.7193 -0.2302  0.1246
   72MOL   O50341825   5.652   0.385   4.458 -0.0350  0.7981  0.5908
   72MOL   C50441826   5.518   0.402   4.427  0.6018  0.3224 -0.1803
   72MOL   O50541827   5.475   0.533   4.451  0.6365  0.1944 -0.1821
   72MOL   C50641828   5.439   0.307   4.526  0.2765 -0.2368 -0.5814
   72MOL   O50741829   5.307   0.303   4.477 -0.0452  0.4019  0.0750
   72MOL   H50841830   6.272   0.365   3.972 -2.3780  3.4648 -1.7540
   72MOL   H50941831   6.327   0.516   4.022 -0.8354  0.6780  2.6809
   72MOL   H51041832   6.170   0.322   4.185 -3.5152  0.6501 -0.6192
   72MOL   H51141833   6.306   0.472   4.288  1.4506  1.7163  0.5446
   72MOL   H51241834   6.059   0.579   4.056  2.6908 -1.2853 -0.3867
   72MOL   H51341835   6.046   0.425   3.986 -0.4889 -1.4438  1.8969
   72MOL   H51441836   5.790   0.471   4.037  1.7206  1.0216 -0.9792
   72MOL   H51541837   5.825   0.603   4.136  3.2720 -0.1644 -1.4090
   72MOL   H51641838   5.728   0.317   4.199  0.5879 -0.4509 -0.8445
   72MOL   H51741839   5.632   0.460   4.178  0.6031  0.8623  0.2456
   72MOL   H51841840   5.844   0.440   4.393  1.5198  2.6858 -1.5411
   72MOL   H51941841   5.727   0.560   4.398  0.3931 -0.2667  0.1379
   72MOL   H52041842   5.495   0.365   4.327  0.1410 -1.0515  0.4290
   72MOL   H52141843   5.392   0.529   4.495  1.4676 -0.5159  1.3470
   72MOL   H52241844   5.473   0.204   4.517  0.6620 -0.1618 -0.0224
   72MOL   H52341845   5.448   0.338   4.631 -0.1464 -2.5057  0.1558
   72MOL   C52441846   5.240   0.181   4.513 -0.4270 -0.4522  0.6258
   72MOL   C52541847   5.085   0.212   4.496  0.8261  0.9069  0.5121
   72MOL   O52641848   5.036   0.264   4.617 -0.0302 -0.4141 -0.6499
   72MOL   C52741849   5.007   0.075   4.489  0.3416 -0.6292 -0.3577
   72MOL   O52841850   4.870   0.092   4.461  0.3222  0.1060 -0.2421
   72MOL   C52941851   4.791   7.667   4.485 -0.6447 -0.0411 -0.4168
   72MOL   C53041852   4.780   7.591   4.350 -0.0084 -0.6745 -1.0992
   72MOL   C53141853   4.700   7.463   4.371  0.2118 -0.3587 -0.6348
   72MOL   O53241854   4.755   7.363   4.454  0.4564 -0.1254 -0.0239
   72MOL   C53341855   4.679   7.239   4.455  0.0206  0.7257 -0.5824
   72MOL   O53441856   4.677   7.183   4.324  0.0440 -0.7863  0.2702
   72MOL   C53541857   4.752   7.140   4.556  0.7853 -0.5098 -0.3141
   72MOL   O53641858   4.709   7.166   4.691  0.2991 -0.0411 -0.7916
   72MOL   H53741859   5.259   0.155   4.617  0.7686 -0.3059  0.4407
   72MOL   H53841860   5.268   0.101   4.445  1.5020  0.4980  0.2890
   72MOL   H53941861   5.059   0.278   4.414 -0.4810 -1.3066 -0.9102
   72MOL   H54041862   4.943   0.248   4.621  0.1885 -1.1833  2.5576
   72MOL   H54141863   5.058   0.018   4.410  0.6740  0.5259 -0.9833
   72MOL   H54241864   5.023   0.017   4.580  1.4699 -0.6626 -0.5679
   72MOL   H54341865   4.690   0.007   4.507 -0.5098  1.8568 -2.5075
   72MOL   H54441866   4.840   7.599   4.554  0.8989  0.5521 -0.9053
   72MOL   H54541867   4.874   7.556   4.308  1.0305  0.7965 -0.0431
   72MOL   H54641868   4.743   7.649   4.266 -0.5441 -0.7677 -0.9309
   72MOL   H54741869   4.608   7.499   4.419  1.0044  0.7409  0.1014
   72MOL   H54841870   4.679   7.419   4.274 -0.7523 -0.8388 -0.2223
   72MOL   H54941871   4.578   7.259   4.488 -0.2372 -2.5173  0.7174
   72MOL   H55041872   4.751   7.124   4.314  1.0098 -0.3986  4.0577
   72MOL   H55141873   4.724   7.038   4.531 -3.5964  0.2087  1.0516
   72MOL   H55241874   4.857   7.162   4.538  0.7196  0.3973  0.3882
   72MOL   C55341875   4.724   7.299   4.741  0.3893 -0.8786 -0.3837
   72MOL   C55441876   4.735   7.305   4.891 -0.3533  0.0151 -0.7186
   72MOL   O55541877   4.607   7.282   4.945  0.0039 -0.0790  0.4384
   72MOL   C55641878   4.797   7.427   4.956 -0.2374 -0.0390 -0.1387
   72MOL   O55741879   4.797   7.539   4.870 -0.2229 -0.3035 -0.1159
   72MOL   C55841880   4.835   7.655   4.935  0.6587 -0.3996  0.4077
   72MOL   C55941881   4.838   0.073   4.840 -0.6507  0.8733 -0.5669
   72MOL   C56041882   4.701   0.122   4.796  0.5230 -0.1032 -0.4726
   72MOL   O56141883   4.711   0.215   4.687 -0.2609  0.0175  0.2609
   72MOL   C56241884   4.581   0.251   4.635  0.0771  0.3982  0.2879
   72MOL   O56341885   4.492   0.316   4.725  0.5189  0.5453 -0.3012
   72MOL   C56441886   4.593   0.330   4.508 -0.4927  0.4277 -0.7592
   72MOL   O56541887   4.658   0.452   4.530  0.2341 -0.0863 -0.0196
   72MOL   H56641888   4.644   7.356   4.694  0.1913 -0.2295  0.7303
   72MOL   H56741889   4.818   7.343   4.706  0.1923 -0.5588 -0.5029
   72MOL   H56841890   4.795   7.223   4.929 -1.4712 -0.6049 -0.2420
   72MOL   H56941891   4.571   7.202   4.908  1.4157  0.0263 -1.2519
   72MOL   H57041892   4.733   7.441   5.043  0.1705 -2.4535  0.6140
   72MOL   H57141893   4.901   7.409   4.983 -0.6902  0.2265  1.8801
   72MOL   H57241894   4.771   7.681   5.020 -0.9377  0.5986 -1.0796
   72MOL   H57341895   4.934   7.644   4.980  1.1528 -2.7944 -1.2015
   72MOL   H57441896   4.892   0.040   4.751 -0.7706  2.4060 -1.2373
   72MOL   H57541897   4.904   0.154   4.871  2.0213 -1.2966 -0.3877
   72MOL   H57641898   4.635   0.039   4.770  1.5858 -0.9763 -0.4495
   72MOL   H57741899   4.660   0.179   4.879 -0.6868 -0.8301 -0.5568
   72MOL   H57841900   4.530   0.160   4.604 -2.0622  1.7078 -0.0929
   72MOL   H57941901   4.524   0.403   4.738  0.7557  0.2714  1.0391
   72MOL   H58041902   4.647   0.268   4.437 -0.4681 -0.9778  0.4551
   72MOL   H58141903   4.494   0.343   4.465 -0.7049 -0.2804 -0.5052
   72MOL   H58241904   4.731   0.428   4.585 -0.4402 -2.8435 -0.2547
   73MOL     C141905   6.060   1.841   2.524 -0.2704  0.6245 -0.0040
   73MOL     C241906   6.004   1.729   2.621 -0.0483 -0.7180 -0.7536
   73MOL     O341907   6.097   1.623   2.643 -0.4573  0.0328 -0.0451
   73MOL     C441908   5.965   1.775   2.767  0.2295  0.1085 -0.5196
   73MOL     O541909   6.079   1.800   2.846 -0.4798  0.6652  0.2554
   73MOL     C641910   6.028   1.825   2.979  0.1275  0.5808 -0.3865
   73MOL     C741911   6.134   1.892   3.068 -0.7549 -0.3518 -0.4923
   73MOL     C841912   6.069   1.918   3.207  0.2688 -0.6001 -0.0829
   73MOL     O941913   6.139   2.001   3.293  0.1975  0.3805 -0.5125
   73MOL    C1041914   6.090   1.997   3.419  0.1756  0.1919  0.0577
   73MOL    O1141915   5.958   2.050   3.423  0.1029 -0.4933  0.4227
   73MOL    C1241916   6.188   2.056   3.521  0.2878 -0.1966 -0.2384
   73MOL    O1341917   6.218   2.181   3.481 -0.3980 -0.2547 -0.6353
   73MOL    H1441918   5.995   1.926   2.504 -2.6054 -1.4816 -1.7217
   73MOL    H1541919   6.077   1.784   2.432  0.7593 -1.3813  1.3882
   73MOL    H1641920   5.909   1.695   2.580 -0.1954 -0.7970 -0.3443
   73MOL    H1741921   6.140   1.650   2.722 -0.7578  0.7101 -0.1022
   73MOL    H1841922   5.906   1.866   2.748  0.6624  0.1111 -1.9239
   73MOL    H1941923   5.912   1.689   2.806  0.6210 -0.4057 -1.1222
   73MOL    H2041924   5.999   1.730   3.023 -0.6217  0.3139 -1.4493
   73MOL    H2141925   5.939   1.887   2.976 -2.3744 -2.9159 -1.3291
   73MOL    H2241926   6.160   1.989   3.026 -0.4153 -1.0857 -2.0111
   73MOL    H2341927   6.227   1.836   3.081  0.8397  2.2391 -0.3167
   73MOL    H2441928   5.975   1.969   3.187  0.8375  0.9980  1.2050
   73MOL    H2541929   6.042   1.823   3.253 -0.7786  0.2906  1.1786
   73MOL    H2641930   6.078   1.896   3.460  0.6141  0.1410  0.0649
   73MOL    H2741931   5.970   2.143   3.432 -0.2192 -0.4737  0.6279
   73MOL    H2841932   6.140   2.050   3.618  0.5486  1.4565  0.0137
   73MOL    H2941933   6.281   2.001   3.510  1.0056  1.4730 -3.2443
   73MOL    H3041934   6.153   1.883   2.564  0.2943 -1.2568  0.6967
   73MOL    C3141935   6.273   2.269   3.582 -0.2911  0.0583  0.2389
   73MOL    C3241936   6.340   2.391   3.517  0.0191 -0.2464  0.1394
   73MOL    O3341937   6.426   2.344   3.411  0.0282  0.5254  0.4446
   73MOL    C3441938   6.419   2.471   3.623 -0.0914  0.9209  0.3082
   73MOL    O3541939   6.508   2.398   3.704 -0.9685  0.1201 -0.0632
   73MOL    C3641940   6.562   2.472   3.815  0.1051  0.0353  0.2003
   73MOL    C3741941   6.628   2.381   3.921  0.1296  0.4811  0.3286
   73MOL    C3841942   6.655   2.450   4.051 -0.5485 -0.2440  0.5010
   73MOL    O3941943   6.732   2.371   4.141  0.5643 -0.5775  0.1733
   73MOL    C4041944   6.769   2.430   4.267 -0.2436 -0.4610 -0.4163
   73MOL    O4141945   6.863   2.532   4.259  0.0116  0.3395 -0.0922
   73MOL    C4241946   6.835   2.316   4.354  0.7782  0.1991  0.2931
   73MOL    O4341947   6.948   2.266   4.282 -0.2745 -0.5237 -0.4554
   73MOL    H4441948   6.186   2.307   3.636  0.2578  0.4496  0.8566
   73MOL    H4541949   6.344   2.219   3.648  1.4545  1.2521 -0.6945
   73MOL    H4641950   6.267   2.462   3.477  0.4366  0.9418  1.4867
   73MOL    H4741951   6.379   2.268   3.381  1.9963 -0.1322 -1.1041
   73MOL    H4841952   6.481   2.534   3.559 -2.1613  2.9082  0.1857
   73MOL    H4941953   6.342   2.519   3.684 -1.4002 -0.3414 -0.3121
   73MOL    H5041954   6.486   2.531   3.867  1.7245  2.4486 -0.1166
   73MOL    H5141955   6.634   2.546   3.779  0.8661 -0.2725  1.0678
   73MOL    H5241956   6.722   2.354   3.874 -0.3257 -0.4421 -0.0600
   73MOL    H5341957   6.570   2.291   3.943  0.4020 -0.0082 -0.9374
   73MOL    H5441958   6.699   2.549   4.034  0.4710 -0.8359 -0.3502
   73MOL    H5541959   6.557   2.466   4.096  0.5861  2.2265  2.1866
   73MOL    H5641960   6.680   2.471   4.316  1.8224 -0.3904  3.5301
   73MOL    H5741961   6.938   2.485   4.227 -0.6256 -1.3767  0.8079
   73MOL    H5841962   6.859   2.351   4.455 -1.1195  1.8172  0.2204
   73MOL    H5941963   6.767   2.231   4.362  0.6467  0.6115  4.5708
   73MOL    C6041964   7.024   2.172   4.354  0.0867  0.3910 -0.0530
   73MOL    C6141965   7.135   2.115   4.262 -0.2402  0.0479 -0.0320
   73MOL    O6241966   7.229   2.220   4.243  0.2055 -0.2419  0.9232
   73MOL    C6341967   7.080   2.050   4.133  0.6802 -0.4187  0.0016
   73MOL    O6441968   7.155   1.937   4.079  0.2528 -0.3017  0.1090
   73MOL    C6541969   7.243   1.980   3.980  0.0975 -0.2995  0.6442
   73MOL    C6641970   7.284   1.864   3.886 -0.3492  0.1806  0.5758
   73MOL    C6741971   7.382   1.912   3.782 -0.6314 -0.1277  0.1718
   73MOL    O6841972   7.323   2.027   3.713 -0.0665 -0.3496 -0.0601
   73MOL    C6941973   7.408   2.088   3.619 -0.1667 -0.2639 -0.0483
   73MOL    O7041974   7.417   2.006   3.502 -0.0344 -0.7582 -0.0659
   73MOL    C7141975   7.349   2.221   3.576  0.2133 -0.0374 -0.0895
   73MOL    O7241976   7.392   2.336   3.649  0.4629  0.1872 -0.0253
   73MOL    H7341977   6.971   2.086   4.393  2.4171 -0.9549  0.2568
   73MOL    H7441978   7.061   2.224   4.443  0.8316  1.9439 -1.2352
   73MOL    H7541979   7.194   2.045   4.322 -0.0622  0.5319  0.3660
   73MOL    H7641980   7.175   2.297   4.230 -1.2289 -1.4936 -0.8442
   73MOL    H7741981   6.990   1.992   4.152 -0.4955  0.6795 -2.0998
   73MOL    H7841982   7.054   2.124   4.058 -0.2474  2.8923  3.4378
   73MOL    H7941983   7.337   2.022   4.018  1.2866 -1.8939 -0.4719
   73MOL    H8041984   7.204   2.060   3.917  1.6188  0.0052  0.0554
   73MOL    H8141985   7.193   1.827   3.838  0.6412 -1.8282  0.1737
   73MOL    H8241986   7.323   1.779   3.941  1.3594  1.8407  1.9796
   73MOL    H8341987   7.407   1.844   3.701 -0.0106  2.8718 -2.2286
   73MOL    H8441988   7.473   1.939   3.835 -1.2836  1.1392  0.6716
   73MOL    H8541989   7.506   2.098   3.666  0.2186  0.1216 -0.9209
   73MOL    H8641990   7.332   2.016   3.462 -0.1369 -1.0414  0.0775
   73MOL    H8741991   7.372   2.241   3.471  3.1225  0.0181  0.5263
   73MOL    H8841992   7.241   2.202   3.577  0.3795 -0.9144  1.0359
   73MOL    C8941993   7.376   2.458   3.581 -0.0097  0.3248  0.0457
   73MOL    C9041994   7.435   2.577   3.663 -0.0905  0.1138  0.6478
   73MOL    O9141995   7.572   2.579   3.657 -0.4005  0.4044  0.0555
   73MOL    C9241996   7.398   2.707   3.593  0.3550 -0.3926 -0.5750
   73MOL    O9341997   7.456   2.714   3.464  0.6890 -0.5358  0.2796
   73MOL    C9441998   7.413   2.815   3.375 -0.0169 -0.0641 -0.6193
   73MOL    C9541999   7.519   2.850   3.269  0.1881  0.2264  0.1520
   73MOL    C9642000   7.460   2.907   3.141 -0.6158  0.4022 -0.4115
   73MOL    O9742001   7.563   2.904   3.039 -0.3593  0.0912 -0.2479
   73MOL    C9842002   7.568   3.020   2.966  0.1949 -0.7308  0.1039
   73MOL    O9942003   7.637   3.124   3.046 -0.1574  0.0950  0.1739
   73MOL   C10042004   7.647   2.999   2.834 -0.2213 -0.0460  0.7412
   73MOL   O10142005   7.571   2.926   2.736 -0.0075  0.1105  0.6208
   73MOL   H10242006   7.271   2.471   3.557  0.1338  2.5858  0.4770
   73MOL   H10342007   7.423   2.457   3.483 -2.7898  2.1141 -1.3774
   73MOL   H10442008   7.399   2.571   3.765 -1.4210  0.5788  0.2203
   73MOL   H10542009   7.587   2.605   3.568 -2.8311 -0.4374 -0.6550
   73MOL   H10642010   7.289   2.714   3.586  0.2737 -1.4495 -0.4331
   73MOL   H10742011   7.432   2.797   3.644 -4.1592  0.3950  1.2683
   73MOL   H10842012   7.389   2.910   3.424 -0.0510 -0.1228 -0.5247
   73MOL   H10942013   7.321   2.771   3.337  0.0520  0.2162 -1.1285
   73MOL   H11042014   7.581   2.761   3.251  0.6107  0.4637  0.4450
   73MOL   H11142015   7.580   2.924   3.320 -1.3909  1.9496 -0.4180
   73MOL   H11242016   7.385   2.840   3.099  1.0792 -2.1193  0.4522
   73MOL   H11342017   7.398   2.995   3.161 -0.9631 -0.6592  3.6325
   73MOL   H11442018   7.467   3.055   2.948  1.2951  1.7413 -1.5825
   73MOL   H11542019   7.666   3.182   2.978  2.0740  0.0577  1.0291
   73MOL   H11642020   7.665   3.097   2.789  0.6410 -0.0462  1.0811
   73MOL   H11742021   0.045   2.960   2.876 -0.6176 -1.7395  0.0737
   73MOL   C11842022   7.590   2.780   2.745 -0.4172 -0.6585 -0.9151
   73MOL   C11942023   7.508   2.701   2.633 -0.2337 -1.0794 -0.0294
   73MOL   O12042024   7.376   2.709   2.656  0.0975  0.5973  0.3627
   73MOL   C12142025   7.534   2.545   2.644 -0.4586 -0.0828 -0.6609
   73MOL   O12242026   7.504   2.475   2.521  0.0324  0.5974  0.7257
   73MOL   C12342027   7.603   2.506   2.420  0.1570 -0.1534 -0.1766
   73MOL   C12442028   7.559   2.461   2.281  0.4681 -0.0558 -0.0567
   73MOL   C12542029   7.663   2.482   2.167 -0.8351 -0.5368 -0.2866
   73MOL   O12642030   0.002   2.621   2.151 -0.0820 -0.4472 -0.2814
   73MOL   C12742031   0.098   2.645   2.041  0.3461 -0.0186 -0.3247
   73MOL   O12842032   0.211   2.554   2.052  0.0620  0.6280  0.3051
   73MOL   C12942033   0.155   2.790   2.058  0.2675  0.0450  0.4087
   73MOL   O13042034   0.224   2.809   2.185 -0.0158  0.3940  0.1250
   73MOL   H13142035   0.003   2.762   2.738 -0.1939  1.4851 -3.4272
   73MOL   H13242036   7.566   2.731   2.840  1.2631  1.2227  0.5366
   73MOL   H13342037   7.538   2.748   2.540 -0.1724 -1.7138 -0.3350
   73MOL   H13442038   7.334   2.642   2.604  0.9100  1.0803 -0.9385
   73MOL   H13542039   7.638   2.529   2.671 -0.5818 -0.2439 -0.2901
   73MOL   H13642040   7.477   2.506   2.728 -2.2065  1.8587 -0.9197
   73MOL   H13742041   0.003   2.454   2.438  0.5386 -0.0120 -1.6917
   73MOL   H13842042   7.629   2.611   2.409  0.8561 -0.5539 -2.6156
   73MOL   H13942043   7.471   2.522   2.261  0.6601  0.3506  0.3065
   73MOL   H14042044   7.519   2.361   2.296 -0.8499  0.6108  0.9075
   73MOL   H14142045   0.047   2.410   2.192 -1.1943 -0.9389 -0.3067
   73MOL   H14242046   7.622   2.453   2.070  0.6653 -0.3180 -0.9968
   73MOL   H14342047   0.039   2.628   1.951 -0.1450  1.1161 -0.2231
   73MOL   H14442048   0.279   2.592   2.105  0.5472 -2.4735  2.0378
   73MOL   H14542049   0.229   2.803   1.978  0.3580 -0.8293  0.3431
   73MOL   H14642050   0.076   2.863   2.044 -0.0129  0.0888  2.0863
   73MOL   C14742051   0.330   2.912   2.166  0.6574  0.0344 -0.3238
   73MOL   C14842052   0.402   2.941   2.297 -0.0673 -0.2446 -0.4750
   73MOL   O14942053   0.472   2.826   2.336 -0.2006 -0.0894  0.1041
   73MOL   C15042054   0.301   2.975   2.414 -0.1263  0.3372  0.1028
   73MOL   O15142055   0.385   3.011   2.523  0.0279  0.1193 -0.3005
   73MOL   C15242056   0.292   3.040   2.630 -0.5136  0.2186 -0.5249
   73MOL   C15342057   0.372   3.078   2.755 -0.4491 -0.0104 -0.3637
   73MOL   C15442058   0.295   3.135   2.867  0.1709 -0.3124 -0.1039
   73MOL   O15542059   0.264   3.270   2.825 -0.0824 -0.1372  0.1296
   73MOL   C15642060   0.182   3.337   2.915  0.6909  0.0714  0.2666
   73MOL   O15742061   0.045   3.307   2.891 -0.0891 -0.2160  0.0377
   73MOL   C15842062   0.196   3.488   2.890 -0.2100  0.2591 -0.0157
   73MOL   O15942063   0.329   3.520   2.864  0.2704  0.2186  0.1217
   73MOL   H16042064   0.291   3.006   2.128 -1.5947 -0.8025 -0.1434
   73MOL   H16142065   0.404   2.865   2.101  0.2183 -1.6862  0.3975
   73MOL   H16242066   0.473   3.024   2.289 -1.6041  0.9019 -2.5974
   73MOL   H16342067   0.486   2.844   2.428  1.9793  0.9970 -0.3994
   73MOL   H16442068   0.232   3.052   2.379  0.0885  1.0163  1.1445
   73MOL   H16542069   0.246   2.884   2.438 -0.6152  0.6503  0.1760
   73MOL   H16642070   0.230   2.951   2.639  1.3725 -1.1227 -0.3174
   73MOL   H16742071   0.229   3.121   2.594 -0.6529 -0.4111 -1.7335
   73MOL   H16842072   0.451   3.146   2.722  0.8151 -0.9437  0.7300
   73MOL   H16942073   0.428   2.992   2.793 -1.0908 -0.4008 -0.2977
   73MOL   H17042074   0.205   3.080   2.896  0.0216  0.8768  1.7287
   73MOL   H17142075   0.355   3.139   2.958 -0.5496 -0.4853  0.3896
   73MOL   H17242076   0.202   3.315   3.020 -1.8219  1.4516  1.0788
   73MOL   H17342077   7.693   3.382   2.925 -0.8886  0.2059 -1.9108
   73MOL   H17442078   0.143   3.503   2.796  2.2174 -1.2331 -1.6617
   73MOL   H17542079   0.160   3.545   2.976 -0.6647 -0.9505  0.6053
   73MOL   C17642080   0.350   3.658   2.829  0.1580 -0.3420  0.0817
   73MOL   C17742081   0.486   3.667   2.760 -0.9062  0.0863  0.9187
   73MOL   O17842082   0.583   3.648   2.860  0.1258 -0.2998 -0.3517
   73MOL   C17942083   0.499   3.795   2.674 -0.0606  0.2598 -0.3250
   73MOL   O18042084   0.410   3.783   2.563  0.1925 -0.2838  0.2604
   73MOL   C18142085   0.422   3.897   2.478  0.2470 -0.1322 -0.6430
   73MOL   C18242086   0.332   3.863   2.359 -0.0724  0.0686 -0.4550
   73MOL   C18342087   0.327   3.961   2.237  0.0151 -0.3135  0.0665
   73MOL   O18442088   0.455   3.961   2.171  0.0523 -0.6388 -0.2724
   73MOL   C18542089   0.470   4.068   2.077  0.3334  1.0079  0.4787
   73MOL   O18642090   0.464   4.193   2.132  0.1345  0.1779 -0.1136
   73MOL   C18742091   0.363   4.048   1.958  0.4417 -0.1292  0.3132
   73MOL   O18842092   0.404   4.104   1.833 -0.4051 -0.3695  0.0663
   73MOL   H18942093   0.340   3.725   2.914 -1.6751  0.6353 -0.8826
   73MOL   H19042094   0.277   3.689   2.754 -0.7153 -0.5237  0.8633
   73MOL   H19142095   0.479   3.585   2.687  0.2845 -0.0149  0.9151
   73MOL   H19242096   0.555   3.567   2.900 -0.5687  0.1645  0.1065
   73MOL   H19342097   0.481   3.876   2.744  2.1749 -0.2857  0.9443
   73MOL   H19442098   0.605   3.801   2.645 -0.4795 -0.9800 -2.2424
   73MOL   H19542099   0.527   3.919   2.458 -0.2223  1.4116 -1.4693
   73MOL   H19642100   0.389   3.993   2.519  1.2741 -1.0811  2.6302
   73MOL   H19742101   0.228   3.856   2.390 -0.0585 -1.0685 -0.6433
   73MOL   H19842102   0.342   3.761   2.322 -2.5774 -0.3446 -0.1051
   73MOL   H19942103   0.245   3.935   2.170 -0.7688 -0.0289  0.9091
   73MOL   H20042104   0.297   4.053   2.287 -1.0509 -0.0714 -1.0098
   73MOL   H20142105   0.572   4.065   2.039  0.1743  0.2089  0.0966
   73MOL   H20242106   0.373   4.219   2.134  0.0168  0.1071 -2.9767
   73MOL   H20342107   0.344   3.942   1.941  0.3752  0.0547 -0.7718
   73MOL   H20442108   0.265   4.088   1.985  0.4316 -0.5973  0.9857
   73MOL   C20542109   0.402   4.250   1.832  0.0081  0.2382  0.4566
   73MOL   C20642110   0.263   4.299   1.779 -0.4810 -0.0131  0.6199
   73MOL   O20742111   0.162   4.297   1.877  0.4799 -0.3036 -0.3783
   73MOL   C20842112   0.263   4.450   1.741  0.3874  0.6183  0.1477
   73MOL   O20942113   0.282   4.529   1.859 -0.5404 -0.2843 -0.5596
   73MOL   C21042114   0.342   4.653   1.827  0.0395 -0.9298 -0.2720
   73MOL   C21142115   0.341   4.728   1.968  0.1380  0.4198  0.3271
   73MOL   C21242116   0.404   4.861   1.962  0.8124  0.6467 -0.0331
   73MOL   O21342117   0.544   4.839   1.951  0.0661 -0.7867 -0.0423
   73MOL   C21442118   0.633   4.950   1.955 -0.3158  0.4374 -0.5484
   73MOL   O21542119   0.653   5.000   1.826  0.1809 -0.3925 -0.4091
   73MOL   C21642120   0.764   4.916   2.028  0.2847 -0.2906  0.3845
   73MOL   O21742121   0.749   4.912   2.175  0.0477  0.0467  0.0318
   73MOL   H21842122   0.472   4.289   1.758 -0.4879 -0.5722 -0.4510
   73MOL   H21942123   0.425   4.304   1.924  3.2711  0.3525 -0.3604
   73MOL   H22042124   0.230   4.233   1.698 -0.4231  0.8275 -0.0870
   73MOL   H22142125   0.084   4.339   1.845 -0.1151 -0.2820  1.0919
   73MOL   H22242126   0.345   4.471   1.672  0.8433 -0.4701  0.3415
   73MOL   H22342127   0.173   4.482   1.689 -0.8661 -2.4922  0.2684
   73MOL   H22442128   0.310   4.704   1.737 -0.4985  0.6081  0.7787
   73MOL   H22542129   0.442   4.625   1.793  0.8036  2.2055 -0.7058
   73MOL   H22642130   0.386   4.661   2.041  0.8198  0.3578 -0.1442
   73MOL   H22742131   0.235   4.730   1.994  0.2078 -1.2923  0.8178
   73MOL   H22842132   0.366   4.926   1.883 -0.3761  1.3281  1.0880
   73MOL   H22942133   0.394   4.924   2.050 -1.9006  0.5028 -0.2185
   73MOL   H23042134   0.585   5.035   2.004  1.8510  1.2071  0.3248
   73MOL   H23142135   0.688   4.929   1.774  1.0579  0.4068 -0.9135
   73MOL   H23242136   0.808   4.825   1.986 -0.9693  0.2841 -2.2266
   73MOL   H23342137   0.838   4.991   2.001  1.7302 -1.5513  0.7594
   73MOL   C23442138   0.744   4.779   2.224  0.0247 -0.3200 -0.2248
   73MOL   C23542139   0.701   4.785   2.375  0.2273 -0.2776 -0.1523
   73MOL   O23642140   0.739   4.909   2.427  0.5026  0.0373  0.0981
   73MOL   C23742141   0.743   4.666   2.456  1.0366  0.6935 -0.3960
   73MOL   O23842142   0.690   4.550   2.401  0.3221 -0.3496 -0.0939
   73MOL   C23942143   0.772   4.441   2.429  0.4227  0.3769  0.1192
   73MOL   C24042144   0.689   4.319   2.392 -0.0043  0.1995 -0.1521
   73MOL   C24142145   0.770   4.189   2.386  0.1258 -0.4262 -0.0408
   73MOL   O24242146   0.847   4.160   2.502 -0.5973 -0.4200 -0.2870
   73MOL   C24342147   0.987   4.154   2.490 -0.4946 -0.6106 -0.5177
   73MOL   O24442148   1.037   4.044   2.423 -0.3003  0.4184 -0.2943
   73MOL   C24542149   1.055   4.161   2.633  0.4488  0.3005  0.0879
   73MOL   O24642150   1.042   4.035   2.699 -0.1317 -0.3823  0.3843
   73MOL   H24742151   0.680   4.709   2.170 -0.2396 -0.7632  0.6493
   73MOL   H24842152   0.840   4.728   2.210  0.5027  0.4317  0.2834
   73MOL   H24942153   0.592   4.785   2.366  0.2695 -2.8792 -1.0495
   73MOL   H25042154   0.762   4.955   2.349  0.1092 -2.0876 -1.3277
   73MOL   H25142155   0.849   4.673   2.481  0.7310  1.2937  0.7826
   73MOL   H25242156   0.702   4.675   2.557  1.1447 -0.6519 -0.2210
   73MOL   H25342157   0.799   4.433   2.535  0.0484  0.1313  0.1971
   73MOL   H25442158   0.863   4.438   2.369 -0.5496  1.8588 -1.4532
   73MOL   H25542159   0.636   4.340   2.299 -1.5144  0.1836  0.6818
   73MOL   H25642160   0.607   4.300   2.461  1.1354 -2.5699  0.4895
   73MOL   H25742161   0.708   4.100   2.372 -0.0786 -0.5118  1.3335
   73MOL   H25842162   0.837   4.190   2.300  3.2780 -3.7097  2.1695
   73MOL   H25942163   1.005   4.244   2.432  2.0088 -0.9727 -0.3319
   73MOL   H26042164   1.069   3.990   2.494 -0.4134  1.2749  0.4097
   73MOL   H26142165   1.163   4.169   2.623  0.4657 -0.2636 -0.2064
   73MOL   H26242166   1.025   4.237   2.706  0.8435 -0.4023  0.9874
   73MOL   C26342167   0.909   3.994   2.728  0.0695  0.5481  0.1310
   73MOL   C26442168   0.906   3.874   2.828 -0.2594 -0.1460  0.3806
   73MOL   O26542169   0.769   3.860   2.870 -0.4471 -0.2956  0.1177
   73MOL   C26642170   0.967   3.745   2.770  0.8918 -0.3770  0.1287
   73MOL   O26742171   0.973   3.633   2.865  0.2751 -0.1733  0.1024
   73MOL   C26842172   1.010   3.510   2.809  0.0858 -0.0978 -0.3436
   73MOL   C26942173   0.890   3.422   2.761 -0.1618 -0.1959  0.6464
   73MOL   C27042174   0.936   3.298   2.679 -0.0288  0.1738 -0.7707
   73MOL   O27142175   0.816   3.223   2.637 -0.1679 -1.1558  0.5551
   73MOL   C27242176   0.828   3.091   2.603  0.3522  0.9086  0.1831
   73MOL   O27342177   0.863   3.008   2.710  0.1753  0.2882 -0.0399
   73MOL   C27442178   0.689   3.048   2.547  0.3043 -0.3057  0.5952
   73MOL   O27542179   0.702   2.998   2.417  0.4230 -0.0793 -0.1588
   73MOL   H27642180   0.855   3.972   2.636  1.1617  1.4825 -0.7443
   73MOL   H27742181   0.843   4.070   2.771 -1.1776  0.3545 -1.4095
   73MOL   H27842182   0.963   3.902   2.917 -1.4469  1.9656  0.5148
   73MOL   H27942183   0.732   3.782   2.833  1.8954 -0.7749 -1.2986
   73MOL   H28042184   0.907   3.708   2.687 -0.8212 -0.2588  1.2972
   73MOL   H28142185   1.061   3.774   2.722  0.0191  0.3676 -1.1630
   73MOL   H28242186   1.061   3.452   2.886 -0.6738  2.3476  2.0860
   73MOL   H28342187   1.069   3.539   2.722  0.0606 -1.2113 -0.7364
   73MOL   H28442188   0.823   3.477   2.696 -1.1486 -4.1929 -1.8743
   73MOL   H28542189   0.833   3.396   2.851 -3.0955  1.6141 -0.6260
   73MOL   H28642190   0.982   3.316   2.581  2.1253  1.6752  0.4699
   73MOL   H28742191   1.013   3.234   2.722 -1.2399 -0.4191  0.5333
   73MOL   H28842192   0.907   3.077   2.529 -0.2976  1.1327 -0.5578
   73MOL   H28942193   0.792   2.957   2.744 -1.0100  1.0055 -1.3698
   73MOL   H29042194   0.638   2.983   2.619  0.4334  1.8974  2.7330
   73MOL   H29142195   0.626   3.136   2.534 -1.8405 -1.8116  0.4669
   73MOL   C29242196   0.738   3.086   2.315 -0.2267 -0.1190  0.4290
   73MOL   C29342197   0.795   3.014   2.187  0.3677  0.3276 -0.2682
   73MOL   O29442198   0.845   3.096   2.080 -0.2135  0.3248 -0.7845
   73MOL   C29542199   0.916   2.929   2.214 -0.3899 -0.2115 -0.5995
   73MOL   O29642200   0.926   2.831   2.106 -0.2288  0.0827  0.2013
   73MOL   C29742201   1.020   2.721   2.122  0.8689 -0.4233 -0.8428
   73MOL   C29842202   0.993   2.634   2.248 -0.2557 -0.1351  0.4583
   73MOL   C29942203   1.080   2.512   2.255 -0.9622  0.2268 -0.3240
   73MOL   O30042204   1.030   2.417   2.160  0.0322 -0.6713  0.3808
   73MOL   C30142205   1.124   2.313   2.124  0.1924 -0.5865  0.1398
   73MOL   O30242206   1.148   2.232   2.228 -0.6137  0.2992  0.3953
   73MOL   C30342207   1.070   2.230   2.002  0.0364  0.1958  0.0646
   73MOL   O30442208   1.036   2.318   1.901 -0.1017  0.3436  0.4744
   73MOL   H30542209   0.648   3.138   2.281 -0.6950  0.0805  1.9432
   73MOL   H30642210   0.814   3.156   2.349  0.4597 -0.3918 -0.5432
   73MOL   H30742211   0.718   2.940   2.165  0.1873  0.3400  0.2993
   73MOL   H30842212   0.872   3.038   2.010 -0.6318  0.0917 -0.7525
   73MOL   H30942213   1.001   2.996   2.221 -0.4215 -0.2059 -0.2292
   73MOL   H31042214   0.900   2.871   2.306 -1.5208  1.6696  0.4200
   73MOL   H31142215   1.122   2.759   2.124  0.6142  0.2496  1.5480
   73MOL   H31242216   1.021   2.661   2.032  0.5160 -1.5519 -0.1099
   73MOL   H31342217   0.889   2.614   2.270  0.0656 -0.5581  1.6210
   73MOL   H31442218   1.033   2.690   2.333 -0.0231  0.0714  0.2138
   73MOL   H31542219   1.186   2.527   2.237 -1.0851  0.5957 -0.7468
   73MOL   H31642220   1.068   2.481   2.359  1.2418 -0.5034 -0.2782
   73MOL   H31742221   1.223   2.347   2.097  0.4568 -0.6754  0.9748
   73MOL   H31842222   1.216   2.263   2.287 -0.3631  0.1485  0.1887
   73MOL   H31942223   0.986   2.171   2.038  0.2910 -0.6125 -0.6508
   73MOL   H32042224   1.141   2.165   1.950  0.4549  1.1367 -0.5486
   73MOL   C32142225   0.896   2.352   1.892 -0.3266 -0.1706  0.0288
   73MOL   C32242226   0.871   2.410   1.753  0.3264 -0.3834 -0.7751
   73MOL   O32342227   0.858   2.314   1.660 -0.3269 -0.1449  0.4135
   73MOL   C32442228   0.768   2.528   1.743  0.0535  0.7249  0.3542
   73MOL   O32542229   0.818   2.648   1.811 -0.3391  1.2140 -0.3964
   73MOL   C32642230   0.867   2.746   1.727  0.1957  0.6370 -0.6568
   73MOL   C32742231   0.863   2.880   1.791  0.1576 -0.3598 -0.1098
   73MOL   C32842232   0.865   3.002   1.695  0.4359 -0.2354  0.9841
   73MOL   O32942233   0.850   3.116   1.768 -0.2211 -0.0390  0.0332
   73MOL   C33042234   0.883   3.229   1.689 -0.7560  0.0044  0.0117
   73MOL   O33142235   0.787   3.258   1.593  0.3860  0.2845 -0.3744
   73MOL   C33242236   0.906   3.357   1.776 -0.4749  0.5602 -0.7535
   73MOL   O33342237   1.006   3.440   1.715 -0.7875  0.0464  0.2981
   73MOL   H33442238   0.876   2.419   1.975 -0.1805  2.1761 -1.7521
   73MOL   H33542239   0.832   2.264   1.892 -0.9280  0.2656  1.4851
   73MOL   H33642240   0.961   2.465   1.728 -0.2360 -0.4034 -2.9493
   73MOL   H33742241   0.786   2.260   1.688  0.1858 -1.3961 -0.6457
   73MOL   H33842242   0.670   2.493   1.773  0.8116 -2.4058 -0.6526
   73MOL   H33942243   0.748   2.552   1.638 -1.8244  1.6381  0.9027
   73MOL   H34042244   0.808   2.756   1.636 -1.2971 -0.9039  0.1146
   73MOL   H34142245   0.971   2.725   1.702  0.2788 -0.3107  0.4200
   73MOL   H34242246   0.775   2.882   1.855  1.8541 -0.7212  2.2812
   73MOL   H34342247   0.947   2.889   1.860 -1.0418  2.1427  1.1039
   73MOL   H34442248   0.960   2.992   1.642  0.4825  0.1380  0.9923
   73MOL   H34542249   0.784   2.990   1.623  0.1824  1.2021  1.0082
   73MOL   H34642250   0.977   3.201   1.641  0.5499 -1.9888  3.5880
   73MOL   H34742251   0.709   3.286   1.638 -1.0151 -3.4407 -0.3733
   73MOL   H34842252   0.814   3.413   1.798 -0.3653  0.9083 -1.1693
   73MOL   H34942253   0.942   3.314   1.870 -0.8189  2.0938  0.0971
   73MOL   C35042254   1.042   3.546   1.801  0.3905 -0.4464 -0.0755
   73MOL   C35142255   1.141   3.628   1.736 -0.0019 -0.6502  0.8815
   73MOL   O35242256   1.163   3.743   1.812 -0.2451 -0.2612 -0.2200
   73MOL   C35342257   1.279   3.565   1.700  0.9085 -0.3798  0.1325
   73MOL   O35442258   1.343   3.662   1.617 -0.5626 -0.0685 -0.0251
   73MOL   C35542259   1.480   3.630   1.615  0.5078 -0.1314  0.1595
   73MOL   C35642260   1.529   3.692   1.491  0.6279 -0.2542  0.1236
   73MOL   C35742261   1.488   3.622   1.363 -0.7024 -0.7447 -0.5457
   73MOL   O35842262   1.499   3.712   1.257  0.3866 -0.1483 -0.0215
   73MOL   C35942263   1.432   3.680   1.138  0.2232  0.5319 -0.0987
   73MOL   O36042264   1.297   3.717   1.139 -0.2375  0.0640 -0.7053
   73MOL   C36142265   1.493   3.758   1.025  0.5621 -0.1950 -0.2994
   73MOL   O36242266   1.450   3.891   1.034  0.3940  0.3106  0.1708
   73MOL   H36342267   1.077   3.509   1.898  1.2493 -0.5848 -0.4385
   73MOL   H36442268   0.953   3.607   1.818  1.0033  0.0164  1.6189
   73MOL   H36542269   1.103   3.674   1.645  0.6419 -0.8576  0.5051
   73MOL   H36642270   1.222   3.803   1.769 -0.9679  1.5224  1.2025
   73MOL   H36742271   1.336   3.551   1.791  0.4369 -2.6684  0.1140
   73MOL   H36842272   1.277   3.461   1.667 -0.3526 -0.2203 -0.3130
   73MOL   H36942273   1.504   3.523   1.616  1.7458  0.1417  0.6375
   73MOL   H37042274   1.527   3.659   1.709 -0.2406  1.6184  0.0058
   73MOL   H37142275   1.635   3.696   1.516  0.5897  0.5109  0.1755
   73MOL   H37242276   1.504   3.798   1.502  0.5717 -0.1355 -1.1188
   73MOL   H37342277   1.548   3.534   1.341  0.3262 -0.2430  0.2416
   73MOL   H37442278   1.387   3.580   1.352 -0.8604 -0.2113 -1.1521
   73MOL   H37542279   1.438   3.573   1.117  2.2728  0.9440 -1.8473
   73MOL   H37642280   1.288   3.792   1.082 -0.2953 -1.0495 -2.2023
   73MOL   H37742281   1.601   3.747   1.038  0.6643  1.6357  0.5439
   73MOL   H37842282   1.449   3.715   0.935  0.7982  0.0677 -0.5429
   73MOL   C37942283   1.517   3.982   0.949 -0.2184 -0.2039  0.3213
   73MOL   C38042284   1.501   4.135   0.977  0.0148 -0.5465  0.7905
   73MOL   O38142285   1.554   4.194   1.091  0.1987 -0.8260 -0.6121
   73MOL   C38242286   1.545   4.225   0.851  0.3946  0.2697  0.4544
   73MOL   O38342287   1.468   4.191   0.730  0.0977 -0.0110  0.2679
   73MOL   C38442288   1.521   4.256   0.616  0.1458 -0.1361  0.5687
   73MOL   C38542289   1.440   4.222   0.491  0.0621 -0.3033 -0.1822
   73MOL   C38642290   1.481   4.303   0.370 -0.4026  0.3642 -0.3158
   73MOL   O38742291   1.616   4.272   0.338  0.1103  0.4924 -0.2581
   73MOL   C38842292   1.659   4.369   0.246  0.7458  0.0139  0.4772
   73MOL   O38942293   1.677   4.496   0.313  0.0240 -0.0779  0.7145
   73MOL   C39042294   1.790   4.308   0.188  0.4792 -0.2108  0.4480
   73MOL   O39142295   1.752   4.220   0.075  0.3695 -0.0335 -0.0523
   73MOL   H39242296   1.502   3.956   0.844  1.4766  2.0050 -0.5181
   73MOL   H39342297   1.622   3.958   0.967 -0.7723 -3.3790 -0.4589
   73MOL   H39442298   1.397   4.164   0.971  0.5346  1.4181  0.8591
   73MOL   H39542299   1.502   4.160   1.162 -1.1771  1.5175 -0.4292
   73MOL   H39642300   1.518   4.330   0.862 -1.3557  0.1876 -2.4495
   73MOL   H39742301   1.652   4.226   0.830 -0.0206 -2.1415 -2.1033
   73MOL   H39842302   1.626   4.228   0.608  0.4900  1.8803 -2.3906
   73MOL   H39942303   1.509   4.364   0.626  2.0685  0.0335  1.1390
   73MOL   H40042304   1.333   4.235   0.510  0.0804  0.3370 -0.5320
   73MOL   H40142305   1.448   4.114   0.479 -2.1682 -0.4759 -0.3549
   73MOL   H40242306   1.423   4.264   0.286  0.7314  2.5783 -2.2199
   73MOL   H40342307   1.458   4.409   0.382 -1.2808  0.0782  0.5812
   73MOL   H40442308   1.582   4.380   0.169 -0.0615 -0.5452  1.1884
   73MOL   H40542309   1.762   4.497   0.354  0.3450  1.0521  0.0109
   73MOL   H40642310   1.849   4.393   0.154 -0.1933  0.8769  1.9364
   73MOL   H40742311   1.855   4.261   0.262 -2.4396  1.1587  4.0252
   73MOL   C40842312   1.697   4.100   0.115 -0.6438  0.3532  0.3303
   73MOL   C40942313   1.713   4.002   7.689 -0.4761 -0.6746 -0.0098
   73MOL   O41042314   1.624   3.893   0.011  0.0629  0.6217 -0.4936
   73MOL   C41142315   1.851   3.956   7.662 -0.0539  0.1737  0.7320
   73MOL   O41242316   1.896   3.881   0.073 -0.6025 -0.3236  0.2154
   73MOL   C41342317   2.027   3.826   0.057 -0.3062 -0.0316  0.8526
   73MOL   C41442318   2.056   3.739   0.177  0.1989 -0.2051 -0.4940
   73MOL   C41542319   1.960   3.622   0.204  0.5726  0.4993 -0.0330
   73MOL   O41642320   2.022   3.531   0.296  0.0918  0.2914  0.7587
   73MOL   C41742321   1.938   3.417   0.331 -0.0523  0.0179 -0.4932
   73MOL   O41842322   1.835   3.461   0.417 -0.0101  0.3645  0.5378
   73MOL   C41942323   2.025   3.310   0.402  0.2252 -0.4526 -0.1214
   73MOL   O42042324   2.077   3.356   0.527  0.1041  0.2841  0.4156
   73MOL   H42142325   1.594   4.134   0.129 -0.7782 -0.8830  2.4612
   73MOL   H42242326   1.738   4.065   0.209 -0.1710 -2.4186 -0.8822
   73MOL   H42342327   1.686   4.053   7.597  0.0279 -1.5646 -0.6587
   73MOL   H42442328   1.643   3.855   0.096 -3.3074 -2.2108 -0.8762
   73MOL   H42542329   1.862   3.895   7.572  3.1794 -2.0691  2.5364
   73MOL   H42642330   1.913   4.043   7.641  0.5388 -0.6877 -1.2232
   73MOL   H42742331   2.025   3.768   7.659  1.9161 -0.9149  1.3327
   73MOL   H42842332   2.105   3.903   0.055  1.1272 -1.4801 -0.0685
   73MOL   H42942333   2.069   3.803   0.265  1.7544 -0.5363 -0.4754
   73MOL   H43042334   2.152   3.691   0.160  0.0072 -0.5778 -0.5266
   73MOL   H43142335   1.866   3.655   0.246  1.1048  0.3546  1.2946
   73MOL   H43242336   1.934   3.565   0.114  2.3367 -1.5239  0.6858
   73MOL   H43342337   1.899   3.377   0.237  1.2474 -1.0238 -0.6144
   73MOL   H43442338   1.884   3.487   0.493 -0.2683 -0.8723  1.1403
   73MOL   H43542339   1.959   3.224   0.413  2.2807 -2.0861 -0.2714
   73MOL   H43642340   2.102   3.270   0.336 -0.1587  0.4305 -1.1190
   73MOL   C43742341   2.159   3.251   0.581 -0.3060  0.1535 -0.0276
   73MOL   C43842342   2.212   3.309   0.711  0.0572 -0.0510 -0.2519
   73MOL   O43942343   2.332   3.252   0.763 -0.1831 -0.1432  0.4931
   73MOL   C44042344   2.115   3.307   0.831  0.3787 -0.3589  0.5968
   73MOL   O44142345   2.171   3.406   0.922  0.2596  0.0664 -0.4171
   73MOL   C44242346   2.089   3.415   1.038 -0.0214  0.4711  0.2901
   73MOL   C44342347   2.155   3.511   1.135  0.3141  0.2661  0.2028
   73MOL   C44442348   2.142   3.661   1.099 -1.1495  0.6236 -0.2296
   73MOL   O44542349   2.221   3.730   1.195  0.3045 -0.1372  0.3472
   73MOL   C44642350   2.228   3.867   1.170 -0.8327 -0.2148  1.3579
   73MOL   O44742351   2.339   3.903   1.090 -0.2102  0.3214  0.4003
   73MOL   C44842352   2.242   3.935   1.306 -0.0851 -0.0298  0.0019
   73MOL   O44942353   2.373   3.906   1.364  0.2822 -0.4017  0.1238
   73MOL   H45042354   2.094   3.163   0.589 -0.4441  0.2411 -0.1693
   73MOL   H45142355   2.247   3.225   0.522  0.0187 -0.6524  0.7958
   73MOL   H45242356   2.228   3.417   0.707  0.0138  0.0698  1.9962
   73MOL   H45342357   2.333   3.263   0.857 -0.2692 -0.0833  0.4877
   73MOL   H45442358   2.015   3.340   0.804  0.5206 -0.1468  0.3284
   73MOL   H45542359   2.126   3.209   0.877  1.0638 -0.6031 -0.0667
   73MOL   H45642360   2.102   3.317   1.085 -1.3500 -0.7100 -1.7136
   73MOL   H45742361   1.982   3.414   1.021 -0.1140 -1.1284  0.9002
   73MOL   H45842362   2.258   3.478   1.153  0.5107  0.8773  0.2260
   73MOL   H45942363   2.116   3.498   1.236 -0.0586 -0.0594  0.0148
   73MOL   H46042364   2.183   3.679   0.999 -1.1369 -3.2010 -0.9636
   73MOL   H46142365   2.043   3.706   1.091 -0.0665  3.2647  0.6835
   73MOL   H46242366   2.133   3.903   1.131 -1.0042 -0.2461  1.7512
   73MOL   H46342367   2.421   3.878   1.131 -0.6193 -1.1977  0.3246
   73MOL   H46442368   2.222   4.041   1.291 -1.3482 -0.1161  1.0367
   73MOL   H46542369   2.164   3.904   1.376 -0.6830 -0.1195 -0.7022
   73MOL   C46642370   2.373   3.791   1.443 -0.3974  0.1467  0.1522
   73MOL   C46742371   2.486   3.792   1.546 -0.2676  0.6119 -0.1270
   73MOL   O46842372   2.603   3.786   1.465  0.2270  0.0804  0.1326
   73MOL   C46942373   2.469   3.922   1.626 -0.3951 -0.6805  1.1172
   73MOL   O47042374   2.516   3.906   1.754 -0.3301 -0.1981 -0.6484
   73MOL   C47142375   2.432   3.845   1.848 -0.3246 -0.5282  0.1827
   73MOL   C47242376   2.464   3.888   1.995  0.8237 -0.1769 -0.1588
   73MOL   C47342377   2.383   3.815   2.105 -0.5632 -0.2560  0.2296
   73MOL   O47442378   2.244   3.836   2.087  0.6314 -0.4066  0.1433
   73MOL   C47542379   2.165   3.728   2.067 -0.8868  0.1850 -0.5677
   73MOL   O47642380   2.196   3.656   1.950 -0.0362  0.5972 -0.1962
   73MOL   C47742381   2.019   3.774   2.075  0.1205 -0.4375  0.3450
   73MOL   O47842382   2.001   3.858   1.968 -0.2688  0.2793 -0.6642
   73MOL   H47942383   2.401   3.709   1.376  0.0104 -0.6055  1.2088
   73MOL   H48042384   2.275   3.777   1.489 -0.9349  1.1261 -0.6715
   73MOL   H48142385   2.478   3.703   1.608  1.4120  1.2757  1.0536
   73MOL   H48242386   2.593   3.858   1.404  1.4892  0.2074  0.0631
   73MOL   H48342387   2.525   3.995   1.568 -0.0410 -0.7329  1.3897
   73MOL   H48442388   2.365   3.953   1.631  0.3557  2.1483 -0.2672
   73MOL   H48542389   2.423   3.739   1.822 -2.0063 -0.3063 -0.2422
   73MOL   H48642390   2.325   3.865   1.836 -0.0378  0.3235 -0.9736
   73MOL   H48742391   2.446   3.995   2.000  1.1642  0.0176 -2.3405
   73MOL   H48842392   2.571   3.869   2.010  0.0486 -3.9995  1.0296
   73MOL   H48942393   2.415   3.711   2.117  2.0254  0.2859 -1.5446
   73MOL   H49042394   2.416   3.845   2.204 -0.2111 -2.0819  0.6808
   73MOL   H49142395   2.183   3.657   2.148 -2.8993  0.0993 -0.1612
   73MOL   H49242396   2.145   3.696   1.881 -4.1439 -1.0552  1.6662
   73MOL   H49342397   1.951   3.689   2.080 -0.3501 -0.1324 -0.6798
   73MOL   H49442398   2.005   3.831   2.167  1.9264 -0.0657  0.4134
   73MOL   C49542399   1.860   3.879   1.954 -0.2201  0.3118  0.0925
   73MOL   C49642400   1.846   3.993   1.855 -0.2880  0.1372 -0.4805
   73MOL   O49742401   1.837   3.955   1.720 -0.0369 -0.0105  0.1718
   73MOL   C49842402   1.738   4.097   1.886  0.6576  0.0546  0.3642
   73MOL   O49942403   1.616   4.029   1.894  0.4155  0.0664 -0.1548
   73MOL   C50042404   1.517   4.054   1.794 -0.1963  0.4787  0.1079
   73MOL   C50142405   1.381   3.975   1.811 -0.1209 -0.0042  0.9456
   73MOL   C50242406   1.273   4.026   1.711  0.5636  0.0094 -0.1187
   73MOL   O50342407   1.332   4.016   1.579 -0.4765 -0.2278 -0.0896
   73MOL   C50442408   1.252   4.004   1.464  0.1766 -0.2522 -0.5038
   73MOL   O50542409   1.190   3.875   1.466 -0.5016 -0.6816 -0.3895
   73MOL   C50642410   1.337   4.025   1.339  0.3197  0.5043  0.1171
   73MOL   O50742411   1.388   4.159   1.336 -0.2910  0.4955  0.2229
   73MOL   H50842412   1.819   3.931   2.041 -0.9310 -1.9164  1.1155
   73MOL   H50942413   1.792   3.800   1.921 -0.1352  0.3139 -0.0903
   73MOL   H51042414   1.934   4.057   1.851 -0.4005  0.1794 -3.5665
   73MOL   H51142415   1.770   3.888   1.717  0.4598 -0.5009 -0.2587
   73MOL   H51242416   1.751   4.139   1.986 -1.2775  1.6757 -0.0418
   73MOL   H51342417   1.735   4.178   1.813 -1.2990 -1.0286 -0.7894
   73MOL   H51442418   1.570   4.022   1.705  0.6978 -2.8704  1.7411
   73MOL   H51542419   1.498   4.161   1.789 -2.1264  0.2077  0.9712
   73MOL   H51642420   1.344   3.983   1.914 -0.6442  0.8887  0.6880
   73MOL   H51742421   1.406   3.870   1.795 -0.6055  0.2001 -1.2506
   73MOL   H51842422   1.184   3.964   1.709  0.8926 -0.4318 -1.7396
   73MOL   H51942423   1.243   4.129   1.731  2.4186  0.2578  1.4182
   73MOL   H52042424   1.167   4.072   1.466 -0.2872 -0.8432  0.2139
   73MOL   H52142425   1.266   3.819   1.475 -1.5120 -1.8296  1.0936
   73MOL   H52242426   1.420   3.954   1.340 -0.9941 -1.0241  0.8957
   73MOL   H52342427   1.279   4.002   1.250 -1.3432  1.2128  1.0002
   73MOL   C52442428   1.305   4.264   1.291  0.4748 -0.6050  0.2319
   73MOL   C52542429   1.385   4.397   1.314 -0.0264  0.3168 -0.3092
   73MOL   O52642430   1.328   4.478   1.418  0.0398  0.4482 -0.2424
   73MOL   C52742431   1.390   4.491   1.186 -0.5336 -1.0080  0.6564
   73MOL   O52842432   1.277   4.492   1.109  0.0337 -0.6014 -0.1656
   73MOL   C52942433   1.313   4.551   0.984  0.3654  0.5960  0.9051
   73MOL   C53042434   1.189   4.563   0.888 -0.3602  0.4793  0.4964
   73MOL   C53142435   1.209   4.612   0.748 -0.7155 -0.1847  0.1605
   73MOL   O53242436   1.096   4.642   0.677 -0.0494  0.6492 -0.2109
   73MOL   C53342437   1.106   4.664   0.541 -0.2548  0.1670 -0.2470
   73MOL   O53442438   1.158   4.556   0.475  0.1260  0.2119  0.3679
   73MOL   C53542439   0.972   4.705   0.490  0.4323  0.4725  0.3675
   73MOL   O53642440   0.939   4.839   0.518  0.2949 -0.2794  0.1957
   73MOL   H53742441   1.209   4.269   1.343  1.5507  1.3221  2.0905
   73MOL   H53842442   1.289   4.250   1.184 -0.3896  3.0431 -0.1658
   73MOL   H53942443   1.490   4.375   1.337  0.0552 -1.8885 -2.5708
   73MOL   H54042444   1.242   4.504   1.387 -0.0016 -0.6131 -1.0245
   73MOL   H54142445   1.392   4.596   1.218  2.0265 -0.7307 -0.2828
   73MOL   H54242446   1.478   4.468   1.127  1.3709  2.5881  1.9355
   73MOL   H54342447   1.384   4.486   0.933 -0.0678 -1.3102  2.6876
   73MOL   H54442448   1.352   4.651   1.004  1.6265  0.2447  0.2268
   73MOL   H54542449   1.123   4.630   0.943 -2.4876 -1.8958  0.9697
   73MOL   H54642450   1.131   4.472   0.873  0.1912  0.3618 -0.9732
   73MOL   H54742451   1.277   4.697   0.758 -1.3450  0.4003 -0.5168
   73MOL   H54842452   1.267   4.531   0.704  1.2173  0.1110  2.0305
   73MOL   H54942453   1.181   4.742   0.532 -1.5529  1.2707 -1.8187
   73MOL   H55042454   1.166   4.585   0.385  2.2952 -2.2058 -0.2916
   73MOL   H55142455   0.975   4.705   0.381  0.9599 -0.7550  0.3701
   73MOL   H55242456   0.901   4.628   0.522 -0.5769  1.1576 -0.2158
   73MOL   C55342457   0.910   4.876   0.650  0.2517  0.1709 -0.0729
   73MOL   C55442458   0.912   5.029   0.665  0.0334  0.5008  0.0339
   73MOL   O55542459   1.043   5.081   0.671  0.5090 -0.2573 -0.0744
   73MOL   C55642460   0.851   5.055   0.807  0.2518  0.3998  0.9209
   73MOL   O55742461   0.929   4.981   0.903  0.1654  0.4477  0.4252
   73MOL   C55842462   0.888   4.999   1.038  0.6536 -0.1417 -0.6629
   73MOL   C55942463   0.982   4.922   1.136 -0.2137  0.1728 -0.2118
   73MOL   C56042464   1.095   5.007   1.198 -0.1136 -0.0039  0.6699
   73MOL   O56142465   1.132   4.955   1.326 -0.0451 -0.2192  0.0373
   73MOL   C56242466   1.260   4.897   1.326 -0.8274 -0.0380  0.6138
   73MOL   O56342467   1.361   4.992   1.292 -0.4763  0.0247 -0.0026
   73MOL   C56442468   1.302   4.827   1.449 -0.1148  0.6146  0.1670
   73MOL   O56542469   1.359   4.917   1.554  0.0662  0.4087  0.2142
   73MOL   H56642470   0.975   4.830   0.724  0.1965 -0.2480 -0.2802
   73MOL   H56742471   0.809   4.837   0.663  0.1828  0.7687  1.1947
   73MOL   H56842472   0.845   5.072   0.591 -0.3831  0.7717  0.5614
   73MOL   H56942473   1.080   5.036   0.745 -2.1822 -0.4754  1.1783
   73MOL   H57042474   0.844   5.163   0.822 -0.4582  0.6924 -1.3535
   73MOL   H57142475   0.749   5.020   0.827  1.0012 -1.7675  1.1183
   73MOL   H57242476   0.885   5.106   1.061  0.0812 -0.3487  0.2489
   73MOL   H57342477   0.785   4.962   1.040  0.9137 -0.8471 -0.0371
   73MOL   H57442478   1.029   4.832   1.097 -0.8045 -1.0405  1.8383
   73MOL   H57542479   0.920   4.888   1.219 -1.6415  3.1185 -0.0186
   73MOL   H57642480   1.176   5.008   1.125 -1.0281  0.5951 -0.3335
   73MOL   H57742481   1.062   5.110   1.206 -0.9030 -0.3488  2.0674
   73MOL   H57842482   1.269   4.829   1.241  3.0228  0.9334  0.1444
   73MOL   H57942483   1.404   5.009   1.375 -2.0475  1.7125  0.5320
   73MOL   H58042484   1.216   4.776   1.494  0.4540  0.7751  1.4397
   73MOL   H58142485   1.369   4.745   1.421 -0.2247  0.1235  1.3050
   73MOL   H58242486   1.285   4.949   1.603  1.9198  1.8073  2.1668
   74MOL     C142487   2.354   2.050   3.139 -0.1864 -0.1114 -0.2389
   74MOL     C242488   2.217   2.081   3.197  0.5896 -0.3473  0.5065
   74MOL     O342489   2.169   2.205   3.165 -0.0746  0.0433 -0.7686
   74MOL     C442490   2.111   1.983   3.137  0.5572  0.2735  0.3734
   74MOL     O542491   2.118   1.862   3.209  0.0444  0.0013  0.2316
   74MOL     C642492   2.036   1.756   3.169 -0.2000 -0.2181  0.7623
   74MOL     C742493   2.003   1.648   3.274  0.5022  0.4192 -0.3812
   74MOL     C842494   2.128   1.562   3.310  0.7377  0.2792  0.0413
   74MOL     O942495   2.096   1.471   3.410  0.4191 -0.4346 -0.4529
   74MOL    C1042496   2.205   1.384   3.436  0.7048 -0.8241  0.8422
   74MOL    O1142497   2.210   1.276   3.356 -0.1272  0.1708 -0.2209
   74MOL    C1242498   2.189   1.333   3.583  0.1232  0.3890 -0.3149
   74MOL    O1342499   2.211   1.456   3.658 -0.5240  0.0857  0.1752
   74MOL    H1442500   2.355   2.063   3.031 -0.5575  1.7969 -0.0373
   74MOL    H1542501   2.382   1.947   3.159 -0.0327  0.3225  1.9268
   74MOL    H1642502   2.222   2.074   3.305  3.1413 -0.8426  0.3796
   74MOL    H1742503   2.097   2.224   3.224  0.2140 -1.8515  0.2409
   74MOL    H1842504   2.013   2.029   3.151 -0.2308 -0.5832 -2.0371
   74MOL    H1942505   2.126   1.976   3.029  1.1099 -0.8461  0.5103
   74MOL    H2042506   2.079   1.713   3.078 -0.9494  1.1130 -0.2414
   74MOL    H2142507   1.939   1.792   3.135  0.8425  0.3498 -1.7119
   74MOL    H2242508   1.932   1.576   3.233 -0.7852  0.5854  1.4565
   74MOL    H2342509   1.960   1.687   3.367  0.9822  1.3049 -0.5229
   74MOL    H2442510   2.144   1.516   3.213 -1.1156 -1.7851  0.6702
   74MOL    H2542511   2.219   1.620   3.328  0.6549  1.1003 -2.0709
   74MOL    H2642512   2.298   1.438   3.456  2.1529 -2.9334  0.0989
   74MOL    H2742513   2.252   1.308   3.277 -3.4225  2.2120 -1.2136
   74MOL    H2842514   2.088   1.292   3.583  0.3313 -0.1285 -0.5724
   74MOL    H2942515   2.260   1.256   3.614  0.6686  1.5874  1.4691
   74MOL    H3042516   2.439   2.102   3.185  0.8285 -2.6045  0.8039
   74MOL    C3142517   2.143   1.452   3.782 -0.2712  0.6730 -0.1430
   74MOL    C3242518   2.136   1.597   3.838  0.0416  0.4877  0.0033
   74MOL    O3342519   2.073   1.600   3.957 -0.6735 -0.4425 -0.7132
   74MOL    C3442520   2.072   1.694   3.742 -1.1386 -0.6259  0.5179
   74MOL    O3542521   2.159   1.800   3.716 -0.1368 -0.2173  0.8040
   74MOL    C3642522   2.250   1.777   3.605 -0.2775  0.3648  0.3402
   74MOL    C3742523   2.301   1.911   3.562  0.6095  0.0552 -0.0994
   74MOL    C3842524   2.402   1.898   3.442  0.7857 -0.3089  0.0912
   74MOL    O3942525   2.527   1.854   3.488  0.1317  0.0027  0.1192
   74MOL    C4042526   2.630   1.823   3.402  0.1220 -0.0621  0.1311
   74MOL    O4142527   2.599   1.707   3.333 -0.1123  0.7676 -0.4080
   74MOL    C4242528   2.756   1.804   3.478 -0.1846 -0.2227 -0.3825
   74MOL    O4342529   2.872   1.782   3.388  0.5993  0.0177  0.3240
   74MOL    H4442530   2.044   1.408   3.769 -0.1326  0.1837  0.4597
   74MOL    H4542531   2.184   1.396   3.866 -1.4573  0.6583  0.4441
   74MOL    H4642532   2.241   1.619   3.853  0.2121 -0.7459  0.6749
   74MOL    H4742533   1.982   1.580   3.939 -0.7216 -1.5594  0.6332
   74MOL    H4842534   2.040   1.660   3.643 -0.1684  0.0564 -0.0331
   74MOL    H4942535   1.984   1.735   3.792 -0.9015 -0.6101  0.9225
   74MOL    H5042536   2.202   1.729   3.520  2.6915 -1.1277 -0.5818
   74MOL    H5142537   2.331   1.720   3.651 -0.6237  0.1194  0.6442
   74MOL    H5242538   2.342   1.969   3.644 -0.1528  0.5048 -0.0276
   74MOL    H5342539   2.222   1.975   3.522  2.1080  2.6343  0.9098
   74MOL    H5442540   2.366   1.831   3.364  1.3295 -2.8766  1.9766
   74MOL    H5542541   2.402   1.995   3.394 -1.1015 -1.0215 -1.3934
   74MOL    H5642542   2.636   1.907   3.332 -0.5360 -0.6345 -0.6161
   74MOL    H5742543   2.620   1.636   3.392 -0.9732  1.9805  1.3944
   74MOL    H5842544   2.777   1.886   3.547  1.3189 -1.3203  0.4834
   74MOL    H5942545   2.743   1.723   3.549 -1.8602  1.1510  0.9350
   74MOL    C6042546   2.920   1.905   3.341 -1.1771 -0.3293  0.2168
   74MOL    C6142547   3.049   1.884   3.256 -0.3638  0.1531 -0.2083
   74MOL    O6242548   3.158   1.901   3.346  0.5006 -0.2671  0.1003
   74MOL    C6342549   3.057   1.974   3.133  0.1587 -0.4209  0.0582
   74MOL    O6442550   3.143   1.936   3.036 -1.0299 -0.1231 -0.1304
   74MOL    C6542551   3.272   1.990   3.042  0.5591  0.3433  0.3418
   74MOL    C6642552   3.286   2.109   2.951 -0.0215 -0.1671  0.2965
   74MOL    C6742553   3.263   2.067   2.806  0.7984 -0.4639 -0.0743
   74MOL    O6842554   3.380   1.999   2.769 -0.2772  0.4580 -0.3320
   74MOL    C6942555   3.367   1.948   2.645 -0.5587  0.5257  0.0563
   74MOL    O7042556   3.385   2.044   2.544 -0.3874  0.1364 -0.6501
   74MOL    C7142557   3.486   1.850   2.632 -0.2287  0.3992  0.2974
   74MOL    O7242558   3.470   1.726   2.701  0.1762 -0.2837  0.1854
   74MOL    H7342559   2.941   1.979   3.418  0.4868  3.6813 -3.8158
   74MOL    H7442560   2.839   1.942   3.278  0.5044  1.1060 -1.1659
   74MOL    H7542561   3.053   1.780   3.223  0.8639  0.9964 -2.8301
   74MOL    H7642562   3.137   1.855   3.426 -1.6574  2.0234  0.8838
   74MOL    H7742563   2.960   1.984   3.084  0.9362  0.5352 -1.3448
   74MOL    H7842564   3.086   2.076   3.160  0.8176 -0.7973  0.7605
   74MOL    H7942565   3.343   1.910   3.022  1.2827  1.0504  0.0491
   74MOL    H8042566   3.300   2.006   3.146 -1.1207 -0.9535  1.0203
   74MOL    H8142567   3.387   2.146   2.966 -0.5769  1.3291  0.4281
   74MOL    H8242568   3.213   2.186   2.976  1.3591  1.1411  0.3759
   74MOL    H8342569   3.241   2.151   2.741 -1.0680 -3.1928 -3.1476
   74MOL    H8442570   3.172   2.005   2.803  0.4671 -0.0889  1.7492
   74MOL    H8542571   3.273   1.894   2.639  0.4284 -1.6856  3.1274
   74MOL    H8642572   3.469   2.087   2.551 -0.0639 -0.7963  1.3779
   74MOL    H8742573   3.487   1.827   2.525  2.4883  1.2329  0.1072
   74MOL    H8842574   3.577   1.910   2.640 -0.0908 -0.1173  2.6556
   74MOL    C8942575   3.540   1.721   2.828 -0.2881 -0.6341 -0.3662
   74MOL    C9042576   3.481   1.604   2.912  0.9739 -0.2104 -0.5477
   74MOL    O9142577   3.567   1.576   3.020  0.4913 -0.0945 -0.1426
   74MOL    C9242578   3.342   1.623   2.955  0.7031 -0.3504  0.1807
   74MOL    O9342579   3.280   1.504   2.998 -0.1778  0.6545  0.0764
   74MOL    C9442580   3.142   1.539   3.029  0.6010 -0.0654 -0.0518
   74MOL    C9542581   3.072   1.419   3.099  0.0245  0.0060  0.2814
   74MOL    C9642582   3.119   1.365   3.236  0.5655  0.3669  0.0791
   74MOL    O9742583   3.024   1.267   3.277  0.4818  0.1647  0.0922
   74MOL    C9842584   3.076   1.169   3.370  0.7728 -0.5492  0.2107
   74MOL    O9942585   3.143   1.232   3.479  0.1623 -0.8118 -0.4334
   74MOL   C10042586   2.959   1.089   3.423  0.1589 -0.1547 -0.4495
   74MOL   O10142587   2.991   0.951   3.442  0.1814 -0.4931  0.0129
   74MOL   H10242588   3.532   1.818   2.877  0.9982  0.2053 -1.7693
   74MOL   H10342589   3.646   1.706   2.808 -0.1017 -0.0832  0.1957
   74MOL   H10442590   3.487   1.510   2.857  0.6801  0.2068 -1.3017
   74MOL   H10542591   3.520   1.515   3.075 -1.0839  0.6623 -0.6096
   74MOL   H10642592   3.340   1.704   3.028  0.0367 -1.0929  1.0027
   74MOL   H10742593   3.279   1.653   2.871  2.5396  0.5771 -0.9111
   74MOL   H10842594   3.086   1.563   2.939  0.8900  0.3429 -0.1214
   74MOL   H10942595   3.135   1.626   3.094 -2.1059  0.2154 -0.6628
   74MOL   H11042596   3.043   1.337   3.033 -1.3142 -0.5465  1.5321
   74MOL   H11142597   2.973   1.461   3.120  0.0472  0.0626  0.2761
   74MOL   H11242598   3.220   1.328   3.218  0.5199 -1.0615  2.5591
   74MOL   H11342599   3.113   1.444   3.311 -0.7644  0.9442 -0.6134
   74MOL   H11442600   3.144   1.110   3.309 -1.3315 -2.3839 -0.4077
   74MOL   H11542601   3.115   1.194   3.561  1.5558  1.9209  1.4237
   74MOL   H11642602   2.922   1.141   3.511  0.0310  2.5398 -2.0365
   74MOL   H11742603   2.875   1.096   3.353 -0.7300  3.1323  0.8409
   74MOL   C11842604   2.888   0.892   3.525 -0.0024 -0.5924 -0.1693
   74MOL   C11942605   2.752   0.873   3.454  0.8855 -0.0685  0.0874
   74MOL   O12042606   2.659   0.981   3.481 -0.0433  0.5451  0.1232
   74MOL   C12142607   2.681   0.739   3.490 -0.3365 -0.4956  0.2260
   74MOL   O12242608   2.682   0.721   3.628  0.5319 -0.1465  0.1141
   74MOL   C12342609   2.611   0.611   3.678 -0.3133 -0.1625  0.0190
   74MOL   C12442610   2.452   0.630   3.664  0.2251  0.4267 -1.0934
   74MOL   C12542611   2.394   0.752   3.737 -0.2954 -0.5389 -0.4365
   74MOL   O12642612   2.261   0.772   3.694  0.8870 -0.0596 -0.1235
   74MOL   C12742613   2.241   0.846   3.584  0.4549 -0.5419 -0.0307
   74MOL   O12842614   2.210   0.977   3.625  0.0938 -0.5197  0.3100
   74MOL   C12942615   2.110   0.789   3.509 -0.5155 -0.0818 -0.4166
   74MOL   O13042616   2.124   0.828   3.374  0.0712 -0.3429  0.3038
   74MOL   H13142617   2.932   0.793   3.537 -0.1516 -0.7796 -1.1149
   74MOL   H13242618   2.878   0.943   3.621 -2.0006 -0.1271 -0.5989
   74MOL   H13342619   2.770   0.868   3.347 -0.8561  0.9509 -0.2748
   74MOL   H13442620   2.624   0.962   3.566  1.4165 -0.0956  0.5873
   74MOL   H13542621   2.577   0.726   3.459 -0.4745  1.9271 -0.4170
   74MOL   H13642622   2.731   0.655   3.442  0.1280  0.6061 -1.2691
   74MOL   H13742623   2.647   0.607   3.781 -1.4073  0.7606  0.4403
   74MOL   H13842624   2.653   0.517   3.640  2.9740  0.2579  2.4049
   74MOL   H13942625   2.403   0.538   3.695  0.6580  1.1520  1.8682
   74MOL   H14042626   2.422   0.633   3.559 -3.6602  0.0572 -0.0361
   74MOL   H14142627   2.384   0.732   3.844 -1.0676 -0.1575 -0.4299
   74MOL   H14242628   2.450   0.844   3.726  0.3723 -0.6711  1.5504
   74MOL   H14342629   2.328   0.844   3.519  0.3650 -0.5277 -0.1508
   74MOL   H14442630   2.126   0.969   3.668 -0.5528  2.6886 -0.2008
   74MOL   H14542631   2.109   0.680   3.507  1.1468 -0.1090 -0.7936
   74MOL   H14642632   2.017   0.829   3.548 -1.1088  1.0331 -2.9158
   74MOL   C14742633   1.996   0.838   3.305  0.1923 -0.3358 -0.6784
   74MOL   C14842634   1.984   0.975   3.237 -0.1010  0.4030 -0.4490
   74MOL   O14942635   1.951   1.075   3.331  0.7000  0.3270 -0.3624
   74MOL   C15042636   1.876   0.969   3.129 -0.1629  0.4278 -1.0014
   74MOL   O15142637   1.927   0.947   2.998 -0.0990  0.1808  0.2233
   74MOL   C15242638   1.836   0.961   2.892  0.5902 -0.4765  0.0267
   74MOL   C15342639   1.913   0.939   2.768 -0.0412  0.2325 -0.1828
   74MOL   C15442640   1.820   0.912   2.652 -0.2078  0.7453  0.2059
   74MOL   O15542641   1.757   0.779   2.675  0.2978 -0.1057 -0.0877
   74MOL   C15642642   1.670   0.738   2.580 -0.0615 -0.9288 -0.0949
   74MOL   O15742643   1.538   0.785   2.616 -0.9013  0.1336  0.4315
   74MOL   C15842644   1.657   0.590   2.578  0.6221  0.0380  0.1490
   74MOL   O15942645   1.785   0.536   2.542  0.0695  0.5063 -0.5247
   74MOL   H16042646   1.907   0.805   3.358 -1.5285  0.7069 -2.7882
   74MOL   H16142647   1.995   0.767   3.222  0.5666 -0.2344 -0.7709
   74MOL   H16242648   2.083   1.004   3.200 -0.9151  1.6697 -1.6709
   74MOL   H16342649   2.031   1.125   3.334  1.1390 -0.4111  0.5978
   74MOL   H16442650   1.802   0.890   3.144 -0.7637  0.6475 -2.6600
   74MOL   H16542651   1.827   1.065   3.134 -1.0938 -0.1469  1.0328
   74MOL   H16642652   1.801   1.064   2.886 -0.1456 -0.7297 -0.0507
   74MOL   H16742653   1.750   0.896   2.907  1.5488 -1.2855  2.3243
   74MOL   H16842654   1.974   0.849   2.768  0.0397  0.2454 -2.4859
   74MOL   H16942655   1.991   1.010   2.744  0.0542 -0.8733 -3.5052
   74MOL   H17042656   1.752   0.996   2.652 -0.8852  0.2222 -1.3680
   74MOL   H17142657   1.872   0.918   2.556 -2.6503  1.8101 -1.1002
   74MOL   H17242658   1.697   0.778   2.483 -0.8663  1.2838  0.5545
   74MOL   H17342659   1.477   0.731   2.568  0.2934  0.6910 -1.8071
   74MOL   H17442660   1.631   0.555   2.678 -0.9610  2.2783  0.5449
   74MOL   H17542661   1.573   0.549   2.521 -1.0700  0.3904  2.3107
   74MOL   C17642662   1.789   0.402   2.518  0.2782  0.0699  0.3962
   74MOL   C17742663   1.925   0.361   2.477  0.5468  0.1286  0.5538
   74MOL   O17842664   1.954   0.427   2.356 -0.7121 -0.3248  0.4867
   74MOL   C17942665   1.943   0.206   2.467  0.2781 -0.3437  0.0657
   74MOL   O18042666   1.925   0.151   2.598 -0.0327 -0.0197 -0.3617
   74MOL   C18142667   1.892   0.012   2.592  0.5434  0.6953  0.5028
   74MOL   C18242668   1.740   0.004   2.637 -0.8453  0.2039 -0.3207
   74MOL   C18342669   1.712   0.034   2.784  0.0482  0.2031  0.5256
   74MOL   O18442670   1.601   7.671   2.844  0.2211 -0.2104 -0.4606
   74MOL   C18542671   1.567   0.033   2.966 -0.1147 -0.5247 -0.3361
   74MOL   O18642672   1.646   7.678   3.069  0.6511 -0.0742  0.5887
   74MOL   C18742673   1.427   7.680   3.000  0.7916 -0.0372 -0.1962
   74MOL   O18842674   1.326   0.034   2.915 -0.4675 -0.0615 -0.2275
   74MOL   H18942675   1.713   0.379   2.444  1.7749 -0.4968 -0.9757
   74MOL   H19042676   1.765   0.360   2.616 -1.2371 -0.8644 -0.3585
   74MOL   H19142677   1.987   0.390   2.562  1.6110 -2.4516  0.7349
   74MOL   H19242678   1.887   0.416   2.290 -0.3034  0.8275 -0.1332
   74MOL   H19342679   1.872   0.151   2.406 -1.2004 -0.1846  1.5916
   74MOL   H19442680   2.045   0.175   2.447 -0.1376 -1.9483  0.4102
   74MOL   H19542681   1.950   7.652   2.666  1.2929  1.9938  0.8828
   74MOL   H19642682   1.908   7.661   2.495 -1.0201  1.9540 -0.3674
   74MOL   H19742683   1.703   7.598   2.620 -1.0581  0.1306  0.5673
   74MOL   H19842684   1.683   0.070   2.571  2.3015  1.6718 -1.7009
   74MOL   H19942685   1.804   7.689   2.829 -1.0283 -3.6391 -0.4495
   74MOL   H20042686   1.709   0.142   2.794  0.6744  0.4656 -1.8420
   74MOL   H20142687   1.572   0.142   2.970  0.2877 -0.4174 -3.0942
   74MOL   H20242688   1.661   7.586   3.053  1.6861  0.0406  0.8600
   74MOL   H20342689   1.427   7.571   3.002 -0.5179 -0.0207  0.9000
   74MOL   H20442690   1.385   0.012   3.097 -0.0654 -2.8531  0.2299
   74MOL   C20542691   1.195   0.015   2.970  0.1930 -0.6959  0.1437
   74MOL   C20642692   1.100   7.691   2.850  0.0433  0.3443 -0.2809
   74MOL   O20742693   1.119   7.563   2.796  0.2799  0.2673 -0.0296
   74MOL   C20842694   0.950   0.016   2.887 -0.1943  0.1900 -0.1304
   74MOL   O20942695   0.921   0.147   2.949 -0.1410 -0.3508  0.4652
   74MOL   C21042696   0.826   0.136   3.056 -0.1374  0.3011 -0.0124
   74MOL   C21142697   0.903   0.119   3.189 -0.4495  0.0118  0.0081
   74MOL   C21242698   1.000   0.232   3.221 -0.3687  0.8695 -0.1143
   74MOL   O21342699   1.087   0.185   3.330  0.1390 -0.0030  0.3169
   74MOL   C21442700   1.189   0.286   3.347 -0.4578  0.4895  0.1978
   74MOL   O21542701   1.288   0.279   3.247  0.3058  0.0003  0.1877
   74MOL   C21642702   1.260   0.251   3.487 -0.4268  0.1513  0.7601
   74MOL   O21742703   1.198   0.342   3.578 -0.1081 -0.1101 -0.1334
   74MOL   H21842704   1.169   0.105   3.026  0.7386  1.0459 -2.3354
   74MOL   H21942705   1.191   7.621   3.034 -1.9236 -0.9544 -0.3090
   74MOL   H22042706   1.124   0.066   2.770 -0.6362  1.9395  0.8738
   74MOL   H22142707   1.212   7.550   2.784  0.0280 -2.0252  0.2665
   74MOL   H22242708   0.882   0.002   2.803 -0.7477  0.9421  0.1892
   74MOL   H22342709   0.907   7.634   2.951  0.7083  1.8768  2.5465
   74MOL   H22442710   0.756   0.056   3.033 -1.0928  1.8538 -2.8430
   74MOL   H22542711   0.763   0.225   3.064  0.7083  0.9506 -0.5397
   74MOL   H22642712   0.954   0.028   3.160 -0.3757  0.9677 -3.0857
   74MOL   H22742713   0.835   0.099   3.272  2.1256 -2.3956  1.6158
   74MOL   H22842714   1.058   0.256   3.131  1.2369  0.0347  0.6615
   74MOL   H22942715   0.948   0.322   3.252 -0.4860  1.2838 -1.4525
   74MOL   H23042716   1.148   0.387   3.347 -0.5824  0.4648  1.9443
   74MOL   H23142717   1.334   0.197   3.250  0.2361 -0.1017 -1.2344
   74MOL   H23242718   1.244   0.146   3.510  1.2606 -0.3306 -0.2024
   74MOL   H23342719   1.367   0.269   3.477 -0.1872 -0.2554  2.4060
   74MOL   C23442720   1.245   0.324   3.711  0.3086 -0.1503  0.6877
   74MOL   C23542721   1.363   0.413   3.755 -0.1221  0.4601 -0.3925
   74MOL   O23642722   1.478   0.330   3.750 -0.3375  0.1473 -0.3555
   74MOL   C23742723   1.355   0.457   3.900 -0.4663 -0.3518 -0.8381
   74MOL   O23842724   1.479   0.527   3.926  0.1141 -0.1798  0.0840
   74MOL   C23942725   1.486   0.599   4.052 -0.0188 -0.2544 -0.1890
   74MOL   C24042726   1.619   0.679   4.078 -0.3503  0.4457 -0.0323
   74MOL   C24142727   1.736   0.586   4.117 -0.3895  0.0085 -0.2857
   74MOL   O24242728   1.850   0.661   4.183 -0.1772  0.3537  0.0846
   74MOL   C24342729   1.917   0.587   4.275 -0.5763  0.5656 -0.2506
   74MOL   O24442730   1.859   0.577   4.399  0.0672  0.0892  0.7668
   74MOL   C24542731   2.057   0.652   4.312  0.2245 -0.1817  0.6075
   74MOL   O24642732   2.032   0.774   4.380  0.0591 -0.2846 -0.5523
   74MOL   H24742733   1.162   0.354   3.775 -0.3386 -0.3759 -0.0444
   74MOL   H24842734   1.259   0.219   3.735  0.9221  0.1163  1.5545
   74MOL   H24942735   1.371   0.505   3.698 -1.2362  1.3209  0.8177
   74MOL   H25042736   1.537   0.355   3.819 -2.6076 -1.4219  2.2410
   74MOL   H25142737   1.276   0.531   3.910  0.0550  0.2241 -0.9374
   74MOL   H25242738   1.338   0.382   3.977  0.3114 -1.9440 -2.1911
   74MOL   H25342739   1.456   0.532   4.133 -2.3282  0.9744  0.0156
   74MOL   H25442740   1.416   0.683   4.042  0.8481  0.3824 -0.9027
   74MOL   H25542741   1.602   0.749   4.159 -0.6539  2.5134 -1.8473
   74MOL   H25642742   1.646   0.736   3.989 -0.2164  1.0884  0.4175
   74MOL   H25742743   1.701   0.505   4.181 -0.0642  0.0310 -0.0752
   74MOL   H25842744   1.758   0.540   4.021  0.7784 -1.0511  0.4788
   74MOL   H25942745   1.944   0.493   4.228 -1.0292  0.2202  0.1801
   74MOL   H26042746   1.875   0.491   4.433 -3.1404 -1.1257 -0.5756
   74MOL   H26142747   2.112   0.580   4.371  0.1845 -0.3934  0.3860
   74MOL   H26242748   2.112   0.672   4.220 -0.3643 -0.3163  0.2204
   74MOL   C26342749   1.968   0.884   4.309  0.8974 -0.5628  0.0894
   74MOL   C26442750   1.838   0.937   4.375 -0.4130 -0.7041 -0.6989
   74MOL   O26542751   1.740   0.840   4.340 -0.1834  0.3255 -0.7760
   74MOL   C26642752   1.845   0.957   4.526 -0.6506  0.2551  0.5105
   74MOL   O26742753   1.750   1.051   4.554  0.3387  0.7468 -0.1262
   74MOL   C26842754   1.750   1.076   4.693 -0.3213 -0.4893  0.2839
   74MOL   C26942755   1.627   1.170   4.719  0.3632  0.0951 -0.1511
   74MOL   C27042756   1.602   1.196   4.865  0.8568 -0.4567  0.2438
   74MOL   O27142757   1.478   1.275   4.871 -0.0767  0.4953  0.1130
   74MOL   C27242758   1.430   1.305   5.000 -0.2662  0.1550  0.0051
   74MOL   O27342759   1.529   1.372   5.078 -0.0593 -0.0858  0.0949
   74MOL   C27442760   1.304   1.398   5.002  0.1575  0.4413  0.4612
   74MOL   O27542761   1.330   1.523   4.952  0.1361  0.2986  0.2483
   74MOL   H27642762   1.963   0.880   4.200  2.7285  2.6228 -0.1817
   74MOL   H27742763   2.038   0.967   4.322 -1.2310  1.0274  1.6787
   74MOL   H27842764   1.812   1.023   4.313 -3.6563 -2.1990 -1.5593
   74MOL   H27942765   1.778   0.755   4.348 -1.0077 -0.0369 -0.6208
   74MOL   H28042766   1.838   0.866   4.586 -0.3570 -0.0823  0.0372
   74MOL   H28142767   1.942   1.001   4.552 -0.9407  0.3178  1.5353
   74MOL   H28242768   1.845   1.121   4.718 -0.4903 -0.7209  1.3681
   74MOL   H28342769   1.739   0.982   4.747  1.7310 -0.1580  1.2910
   74MOL   H28442770   1.537   1.119   4.684  0.4505  0.0255 -0.2739
   74MOL   H28542771   1.636   1.261   4.661  1.6887 -0.5071 -0.8992
   74MOL   H28642772   1.601   1.104   4.923 -0.4830 -0.8448 -0.3639
   74MOL   H28742773   1.687   1.252   4.904 -0.2628  1.7492 -0.3505
   74MOL   H28842774   1.414   1.210   5.051  1.0552 -0.0118  0.1182
   74MOL   H28942775   1.525   1.465   5.064 -0.7766 -0.1543 -0.1711
   74MOL   H29042776   1.212   1.348   4.972  0.7577  0.4380 -1.3944
   74MOL   H29142777   1.284   1.413   5.108  0.0222  1.5648  0.2778
   74MOL   C29242778   1.343   1.537   4.810 -0.3330 -0.0218 -0.4875
   74MOL   C29342779   1.457   1.633   4.772 -0.3440 -0.2811 -0.4668
   74MOL   O29442780   1.583   1.586   4.823  0.2868  0.5295  0.2249
   74MOL   C29542781   1.477   1.644   4.622 -0.2304 -0.2741  0.4853
   74MOL   O29642782   1.506   1.524   4.563 -0.4594 -0.0380 -0.0264
   74MOL   C29742783   1.478   1.518   4.420 -0.5370  0.3647 -0.7182
   74MOL   C29842784   1.502   1.366   4.369  0.0232 -0.3873 -0.5067
   74MOL   C29942785   1.378   1.284   4.405 -0.0490  0.2080 -0.2955
   74MOL   O30042786   1.391   1.142   4.378  0.4846  0.4101 -0.6071
   74MOL   C30142787   1.435   1.097   4.249  0.3503  0.0917 -0.4573
   74MOL   O30242788   1.568   1.093   4.225  0.3113 -0.1586 -0.1359
   74MOL   C30342789   1.385   0.955   4.234  0.4344  0.0711 -0.7405
   74MOL   O30442790   1.243   0.933   4.270 -0.2562  0.0867 -0.0417
   74MOL   H30542791   1.360   1.440   4.764  1.1050 -1.3716  2.7315
   74MOL   H30642792   1.244   1.575   4.786 -0.5909 -0.8542 -0.7336
   74MOL   H30742793   1.437   1.733   4.809  1.3537  1.0119 -2.8878
   74MOL   H30842794   1.603   1.509   4.772 -0.2661  1.9554 -2.2365
   74MOL   H30942795   1.389   1.686   4.572  1.5384  1.5253 -1.2194
   74MOL   H31042796   1.556   1.718   4.613  0.2001 -0.5767  1.6308
   74MOL   H31142797   1.547   1.593   4.380  0.7260 -0.1722  0.4247
   74MOL   H31242798   1.376   1.547   4.393 -0.5523  0.6689 -0.3324
   74MOL   H31342799   1.595   1.322   4.404 -0.9343 -0.3036  2.2641
   74MOL   H31442800   1.500   1.368   4.260 -1.8036  0.4248 -0.4854
   74MOL   H31542801   1.360   1.294   4.512  0.8010  1.2378 -0.2502
   74MOL   H31642802   1.291   1.307   4.344 -1.0271 -0.3724  0.8439
   74MOL   H31742803   1.388   1.165   4.179 -0.1288  0.7478  0.4833
   74MOL   H31842804   1.605   1.022   4.276 -0.6886 -0.4152  0.2463
   74MOL   H31942805   1.457   0.891   4.284 -0.6002  0.4577  1.2912
   74MOL   H32042806   1.384   0.942   4.126 -1.9289 -0.3603 -0.6866
   74MOL   C32142807   1.203   0.814   4.325 -0.3777 -0.0795  0.2746
   74MOL   C32242808   1.053   0.794   4.345 -0.6721 -0.6726 -0.2785
   74MOL   O32342809   0.993   0.775   4.219 -0.2628  0.1314  0.2273
   74MOL   C32442810   1.037   0.653   4.413  0.4944  0.0836  0.0763
   74MOL   O32542811   0.905   0.628   4.456 -0.0584  0.3519  0.2774
   74MOL   C32642812   0.880   0.497   4.488  0.4243  0.0261  0.0463
   74MOL   C32742813   0.728   0.464   4.499  0.2312 -0.6170 -0.3041
   74MOL   C32842814   0.639   0.536   4.603  0.3490 -0.1197 -0.2904
   74MOL   O32942815   0.700   0.526   4.735  0.1018 -0.4620  0.8775
   74MOL   C33042816   0.621   0.516   4.847  0.1970 -0.4155 -0.6359
   74MOL   O33142817   0.560   0.390   4.876 -0.2426 -0.0147 -0.1884
   74MOL   C33242818   0.710   0.551   4.967 -0.5327  0.1355 -0.2101
   74MOL   O33342819   0.804   0.450   5.009 -0.0472  0.2814  0.6165
   74MOL   H33442820   1.251   0.806   4.422 -0.7589 -1.4978  0.3571
   74MOL   H33542821   1.240   0.731   4.265 -0.2804 -0.5496  0.9829
   74MOL   H33642822   0.993   0.868   4.397 -1.1239 -0.7743 -0.6487
   74MOL   H33742823   1.030   0.829   4.151 -4.1378  0.8117 -1.4913
   74MOL   H33842824   1.107   0.643   4.496  1.4148  0.0560 -0.7036
   74MOL   H33942825   1.064   0.573   4.344 -0.2206 -1.7384  1.8294
   74MOL   H34042826   0.907   0.473   4.591  0.2437  2.9555  0.8212
   74MOL   H34142827   0.920   0.433   4.410 -1.4179  0.6406 -1.4370
   74MOL   H34242828   0.670   0.465   4.407 -0.8584 -0.8158  0.3711
   74MOL   H34342829   0.729   0.356   4.513 -0.2770 -0.7256 -1.0503
   74MOL   H34442830   0.630   0.644   4.590  0.7880 -0.3880 -3.3599
   74MOL   H34542831   0.537   0.498   4.605 -0.5935  2.2489 -1.4552
   74MOL   H34642832   0.538   0.586   4.855 -0.4042 -1.1882  0.0424
   74MOL   H34742833   0.627   0.350   4.929 -0.8346 -0.9765 -0.1665
   74MOL   H34842834   0.780   0.629   4.936 -0.9613  0.8530  0.5858
   74MOL   H34942835   0.648   0.589   5.048 -0.0151 -2.3384  1.4129
   74MOL   C35042836   0.908   0.430   4.912 -0.2015 -0.0645 -0.6434
   74MOL   C35142837   1.026   0.350   4.974  0.0449  0.2304 -0.4836
   74MOL   O35242838   0.996   0.207   4.976  0.4374  0.4744  0.3508
   74MOL   C35342839   1.149   0.360   4.871  0.3508 -0.9325 -0.3592
   74MOL   O35442840   1.263   0.298   4.926  0.1379  0.1347  0.0546
   74MOL   C35542841   1.375   0.314   4.846 -0.4923 -0.5590 -0.2851
   74MOL   C35642842   1.489   0.233   4.903 -0.8518 -0.2255  0.3901
   74MOL   C35742843   1.629   0.216   4.828 -0.0409 -0.1753  0.2129
   74MOL   O35842844   1.699   0.331   4.779 -0.1770  0.2640 -0.0157
   74MOL   C35942845   1.729   0.423   4.879  0.3620 -0.7585 -0.2441
   74MOL   O36042846   1.835   0.381   4.957  0.1461 -0.2254  0.5984
   74MOL   C36142847   1.771   0.560   4.814 -0.2131 -0.4948  0.1888
   74MOL   O36242848   1.661   0.646   4.774 -0.0398 -0.1566 -0.2073
   74MOL   H36342849   0.941   0.524   4.869  0.0622  0.6962  1.1693
   74MOL   H36442850   0.873   0.372   4.826 -0.8046 -0.7643  0.0627
   74MOL   H36542851   1.064   0.387   5.068 -0.1465  2.2241 -1.1679
   74MOL   H36642852   1.049   0.174   5.047  1.4495 -1.2210 -1.1387
   74MOL   H36742853   1.115   0.315   4.777  1.9051  0.3566 -1.5646
   74MOL   H36842854   1.171   0.464   4.849  0.3902 -0.8019  0.2840
   74MOL   H36942855   1.410   0.416   4.832 -0.1551 -0.8064 -1.3738
   74MOL   H37042856   1.354   0.267   4.749 -0.9409  0.7409 -0.8251
   74MOL   H37142857   1.456   0.129   4.912 -0.6139 -0.4260 -1.0206
   74MOL   H37242858   1.517   0.264   5.004 -1.0314  0.3792  0.2543
   74MOL   H37342859   1.693   0.152   4.889 -0.1549  0.6325  1.2050
   74MOL   H37442860   1.607   0.164   4.735  3.0411 -1.1343 -0.0321
   74MOL   H37542861   1.651   0.437   4.954  0.8598 -0.1299  0.1729
   74MOL   H37642862   1.914   0.420   4.924 -0.3384 -1.8217 -2.6757
   74MOL   H37742863   1.825   0.614   4.892 -0.8137  0.7441 -0.2481
   74MOL   H37842864   1.855   0.548   4.745 -0.4189  1.5250 -0.4480
   74MOL   C37942865   1.604   0.610   4.653 -1.0809 -0.0352  0.2433
   74MOL   C38042866   1.509   0.718   4.595 -0.4487  0.6986  0.3176
   74MOL   O38142867   1.494   0.698   4.456 -0.2044 -0.1001 -0.1225
   74MOL   C38242868   1.376   0.715   4.676  0.7173  0.1273  0.2768
   74MOL   O38342869   1.286   0.826   4.658 -0.3555  0.3528 -0.0818
   74MOL   C38442870   1.338   0.962   4.671  0.0451 -0.3863 -0.0666
   74MOL   C38542871   1.211   1.048   4.678  0.5648 -0.1797  0.0304
   74MOL   C38642872   1.119   1.026   4.804  0.1580  0.0727  0.4373
   74MOL   O38742873   0.998   1.101   4.796 -0.7590 -0.6690  0.0520
   74MOL   C38842874   0.922   1.099   4.915 -0.3459  0.2970 -0.4271
   74MOL   O38942875   0.950   1.209   5.008  0.2094  0.1570  0.4633
   74MOL   C39042876   0.772   1.089   4.887 -0.2161 -0.0017 -0.3343
   74MOL   O39142877   0.715   0.974   4.942 -0.0953 -0.1984  0.1598
   74MOL   H39242878   1.543   0.520   4.664 -0.1092 -0.5066  1.9234
   74MOL   H39342879   1.683   0.579   4.584 -2.7714 -2.5431 -0.6403
   74MOL   H39442880   1.553   0.817   4.603  0.8505  0.2317 -0.8026
   74MOL   H39542881   1.576   0.711   4.410 -0.7786 -1.4727 -1.5863
   74MOL   H39642882   1.317   0.627   4.653  1.1811 -0.1767  0.2368
   74MOL   H39742883   1.398   0.699   4.782 -1.1074  0.3026  0.7042
   74MOL   H39842884   1.395   0.987   4.581  0.5428  1.4993  0.7573
   74MOL   H39942885   1.397   0.973   4.762  1.4501 -0.6976 -0.9115
   74MOL   H40042886   1.158   1.023   4.587  1.0645  1.3030 -0.6822
   74MOL   H40142887   1.238   1.153   4.665  0.2217 -0.0676  0.2275
   74MOL   H40242888   1.092   0.921   4.814  0.0914  0.1135  0.7011
   74MOL   H40342889   1.177   1.054   4.893  0.3506 -0.9881  0.6498
   74MOL   H40442890   0.937   1.009   4.975  0.2398  0.3676 -0.4650
   74MOL   H40542891   0.917   1.286   4.965 -1.2182 -1.2454 -1.0246
   74MOL   H40642892   0.721   1.175   4.930 -3.1266 -1.6318 -0.3527
   74MOL   H40742893   0.747   1.096   4.781  2.4834  0.2998 -0.9898
   74MOL   C40842894   0.574   0.962   4.910 -0.4020  0.0707 -0.1962
   74MOL   C40942895   0.545   0.894   4.776 -0.0910  0.2279 -0.7892
   74MOL   O41042896   0.548   0.987   4.673 -0.5874 -0.5531  0.2740
   74MOL   C41142897   0.401   0.835   4.781  0.4407  0.1127 -0.4511
   74MOL   O41242898   0.388   0.766   4.651  0.0686 -0.0031 -0.4255
   74MOL   C41342899   0.272   0.689   4.651 -0.4354 -0.7224  0.1120
   74MOL   C41442900   0.234   0.670   4.502 -0.3121  0.1152 -0.2033
   74MOL   C41542901   0.089   0.625   4.478  0.4945  0.5267  0.6964
   74MOL   O41642902   0.073   0.534   4.368 -0.1886 -0.3849  0.1287
   74MOL   C41742903   7.639   0.494   4.326  0.6400  1.0537 -0.2628
   74MOL   O41842904   7.577   0.412   4.425  0.0009  0.5611 -0.0202
   74MOL   C41942905   7.644   0.423   4.185 -0.1278 -0.0586  0.0773
   74MOL   O42042906   0.006   0.295   4.200 -0.2601 -0.1485 -0.6575
   74MOL   H42142907   0.525   1.058   4.922 -0.8215 -0.3506  1.6933
   74MOL   H42242908   0.537   0.896   4.990 -0.9374  0.8996  0.2480
   74MOL   H42342909   0.617   0.815   4.759 -0.9205 -1.6446  3.6674
   74MOL   H42442910   0.555   0.927   4.601  1.2765 -3.1567  2.5019
   74MOL   H42542911   0.385   0.769   4.867  2.7263 -0.1057 -0.1659
   74MOL   H42642912   0.331   0.918   4.790  0.5335  0.0358  1.0940
   74MOL   H42742913   0.287   0.601   4.713  1.9123 -0.4028  0.0223
   74MOL   H42842914   0.194   0.747   4.699 -1.0921 -1.1846 -0.3837
   74MOL   H42942915   0.305   0.606   4.449  0.5620  0.0526  1.0200
   74MOL   H43042916   0.260   0.765   4.455  1.3329 -0.2657 -0.1055
   74MOL   H43142917   0.061   0.561   4.562 -1.8128  1.3717  0.6147
   74MOL   H43242918   0.018   0.707   4.473 -1.2074 -1.0122 -1.2416
   74MOL   H43342919   7.577   0.582   4.312  1.8381  1.6654 -1.8291
   74MOL   H43442920   7.622   0.330   4.419  0.8839  1.0355  0.0774
   74MOL   H43542921   7.544   0.420   4.141  1.2536 -0.1267 -3.2168
   74MOL   H43642922   0.008   0.480   4.114  0.4184  0.8027  1.1982
   74MOL   C43742923   0.138   0.279   4.150 -0.2420 -0.1923  1.2364
   74MOL   C43842924   0.135   0.241   3.998 -0.3307  0.0305 -0.1372
   74MOL   O43942925   0.103   0.106   3.997 -0.1399  0.0803 -0.6302
   74MOL   C44042926   0.279   0.246   3.933 -0.5592  0.0044 -0.5615
   74MOL   O44142927   0.381   0.198   4.019  0.0488  0.7019  0.2015
   74MOL   C44242928   0.509   0.199   3.949  0.6281  0.0172  0.5628
   74MOL   C44342929   0.571   0.336   3.974 -0.4544 -0.5821 -0.7752
   74MOL   C44442930   0.719   0.319   4.010 -0.5506  0.1105  0.1392
   74MOL   O44542931   0.782   0.440   3.986 -0.0191 -0.8175  0.2711
   74MOL   C44642932   0.907   0.438   4.029 -0.5654  0.5694 -0.0608
   74MOL   O44742933   0.918   0.443   4.169  0.0857  0.9082 -0.4878
   74MOL   C44842934   0.977   0.562   3.973 -0.0015 -0.1521 -0.4988
   74MOL   O44942935   1.009   0.547   3.832 -0.1018  0.4025 -0.1354
   74MOL   H45042936   0.212   0.357   4.171  1.5836 -1.3506 -0.7366
   74MOL   H45142937   0.188   0.199   4.204  2.6017 -0.5491 -1.7610
   74MOL   H45242938   0.053   0.279   3.936 -0.7053 -1.0105 -0.2975
   74MOL   H45342939   0.186   0.065   4.014 -0.3077  0.5418  1.5674
   74MOL   H45442940   0.281   0.191   3.839 -3.6662 -0.9056 -0.1676
   74MOL   H45542941   0.299   0.351   3.911 -2.5120  1.0125  2.1384
   74MOL   H45642942   0.502   0.164   3.846 -1.4544  0.5819  0.4874
   74MOL   H45742943   0.559   0.119   4.003  1.1462  0.5009  0.8087
   74MOL   H45842944   0.529   0.373   4.068  1.8748  1.0511 -0.3446
   74MOL   H45942945   0.558   0.401   3.888  1.6110 -0.1883 -0.8167
   74MOL   H46042946   0.721   0.281   4.112 -3.5576 -0.7596 -0.0617
   74MOL   H46142947   0.765   0.239   3.952 -1.1982  0.1061 -0.3864
   74MOL   H46242948   0.960   0.349   3.995 -0.8306 -0.3082  1.7471
   74MOL   H46342949   0.871   0.514   4.211 -0.6776 -0.8060  1.7097
   74MOL   H46442950   0.916   0.651   3.987 -2.0413 -1.4491 -0.9437
   74MOL   H46542951   1.070   0.586   4.024 -0.3920  2.7631 -1.0620
   74MOL   C46642952   0.908   0.596   3.742 -0.0869 -0.6670 -0.1788
   74MOL   C46742953   0.958   0.576   3.592 -0.1166 -0.5943 -0.6861
   74MOL   O46842954   0.855   0.600   3.495 -0.2319  0.1499  0.1420
   74MOL   C46942955   1.073   0.671   3.559  0.4903  0.3365  0.5451
   74MOL   O47042956   1.116   0.631   3.423 -0.2509 -0.3954  0.3337
   74MOL   C47142957   1.237   0.698   3.391  0.7618 -0.2403  0.8155
   74MOL   C47242958   1.261   0.686   3.242  0.0552  0.7441  0.1902
   74MOL   C47342959   1.392   0.756   3.205  0.2568  0.7922 -0.4030
   74MOL   O47442960   1.393   0.881   3.266  0.7332 -0.5853 -0.1393
   74MOL   C47542961   1.509   0.954   3.254  0.2190 -0.7352 -0.1780
   74MOL   O47642962   1.620   0.913   3.337 -0.3355  0.0592  0.7084
   74MOL   C47742963   1.471   1.101   3.286  0.1867  0.0532  0.1719
   74MOL   O47842964   1.512   1.191   3.186 -0.3364 -0.0889  0.1280
   74MOL   H47942965   0.870   0.694   3.771 -2.2260 -1.9706  1.5621
   74MOL   H48042966   0.826   0.527   3.759  0.5797 -1.4023  0.1009
   74MOL   H48142967   0.993   0.473   3.580  1.3836  0.0003 -1.4767
   74MOL   H48242968   0.902   0.620   3.415  2.9306 -1.3687  1.5251
   74MOL   H48342969   1.051   0.778   3.567 -1.1361  0.0257  0.3101
   74MOL   H48442970   1.151   0.643   3.630  1.7594  0.7206 -0.6549
   74MOL   H48542971   1.322   0.671   3.453  2.8340 -0.1794 -1.9215
   74MOL   H48642972   1.219   0.803   3.416  0.4239  0.0467 -0.5669
   74MOL   H48742973   1.175   0.734   3.195  0.7745  0.7484 -1.1382
   74MOL   H48842974   1.262   0.585   3.200 -1.4252  1.0266 -0.5836
   74MOL   H48942975   1.478   0.706   3.250 -0.4875 -3.3011 -3.2657
   74MOL   H49042976   1.417   0.760   3.098  2.0645  2.4675  0.0519
   74MOL   H49142977   1.538   0.965   3.149  0.0853  2.1975  0.0291
   74MOL   H49242978   1.649   0.991   3.383 -0.3870  1.1023 -0.9686
   74MOL   H49342979   1.362   1.107   3.291  0.2309  0.4003  0.7791
   74MOL   H49442980   1.502   1.114   3.390  0.9188  2.1898 -0.2829
   74MOL   C49542981   1.492   1.328   3.214  0.3422  0.2964 -0.3904
   74MOL   C49642982   1.567   1.399   3.106 -0.1401  0.5092 -0.2040
   74MOL   O49742983   1.558   1.529   3.143 -0.0521 -0.7468 -0.3857
   74MOL   C49842984   1.715   1.357   3.116 -0.5378  0.2620  0.2896
   74MOL   O49942985   1.787   1.400   3.006 -0.4222  0.1103 -0.3317
   74MOL   C50042986   1.925   1.352   3.004  0.4092  0.6666 -0.1887
   74MOL   C50142987   1.981   1.383   2.860  0.1829  0.3081 -0.3594
   74MOL   C50242988   2.134   1.377   2.873 -0.4417 -1.4347 -0.7917
   74MOL   O50342989   2.187   1.481   2.957 -0.6521  0.5377 -0.4765
   74MOL   C50442990   2.326   1.491   2.942  0.0156 -0.0884 -0.2608
   74MOL   O50542991   2.389   1.384   3.013 -0.5627  0.2392 -0.0916
   74MOL   C50642992   2.372   1.625   3.009  0.1612  0.2069 -0.2091
   74MOL   O50742993   2.510   1.646   2.978  0.3766 -0.7015  0.0283
   74MOL   H50842994   1.537   1.358   3.309  2.5116  0.5625 -1.4752
   74MOL   H50942995   1.385   1.343   3.198 -0.1421 -1.6664  0.7339
   74MOL   H51042996   1.524   1.376   3.009 -0.9338 -2.6042  0.8019
   74MOL   H51142997   1.617   1.575   3.084 -1.0760 -0.6017 -1.3102
   74MOL   H51242998   1.752   1.407   3.205 -1.1180  0.1254  0.6072
   74MOL   H51342999   1.723   1.249   3.130 -1.5708  0.2336  0.6747
   74MOL   H51443000   1.940   1.246   3.021 -0.8077  0.4778 -0.1990
   74MOL   H51543001   1.985   1.399   3.082  2.2521  0.6402 -1.5791
   74MOL   H51643002   1.938   1.480   2.835 -4.4480 -1.7145 -0.6266
   74MOL   H51743003   1.943   1.314   2.784  0.1572  1.2625 -1.2206
   74MOL   H51843004   2.168   1.277   2.902 -2.2062 -2.1438 -1.1533
   74MOL   H51943005   2.164   1.390   2.769 -2.1508  1.0660 -1.0028
   74MOL   H52043006   2.354   1.478   2.837 -1.8364 -1.5283 -0.6170
   74MOL   H52143007   2.440   1.427   3.080 -0.4290 -0.1511  0.0605
   74MOL   H52243008   2.305   1.704   2.978  0.3053  0.2938 -0.3049
   74MOL   H52343009   2.355   1.614   3.116  0.4631  0.4364 -0.1360
   74MOL   C52443010   2.548   1.784   2.979  0.0805 -0.3504 -0.1622
   74MOL   C52543011   2.690   1.810   2.926  0.0561 -0.0367 -0.5476
   74MOL   O52643012   2.779   1.768   3.024 -0.3801  0.1142 -0.0090
   74MOL   C52743013   2.710   1.950   2.884  0.1039 -0.3555  0.3680
   74MOL   O52843014   2.687   2.041   2.995  0.1543 -0.5560  0.3784
   74MOL   C52943015   2.680   2.174   2.953  0.0639  0.5801  0.1730
   74MOL   C53043016   2.669   2.261   3.085 -0.7592 -0.0091  0.5166
   74MOL   C53143017   2.682   2.408   3.063 -0.1861 -0.2805 -0.5526
   74MOL   O53243018   2.694   2.477   3.182 -0.3357  1.1190 -0.9052
   74MOL   C53343019   2.746   2.606   3.171  0.0235  0.2163 -0.4965
   74MOL   O53443020   2.644   2.698   3.190  0.6612  0.1801  0.7278
   74MOL   C53543021   2.858   2.631   3.269  0.1868  0.7276 -0.2060
   74MOL   O53643022   2.976   2.556   3.238  0.6856 -0.4618  0.1279
   74MOL   H53743023   2.538   1.798   3.087  0.2632 -2.0696  0.0966
   74MOL   H53843024   2.474   1.843   2.924  1.0797  0.5522 -0.5605
   74MOL   H53943025   2.705   1.756   2.833  1.1959 -0.1336 -0.3139
   74MOL   H54043026   2.735   1.751   3.106 -0.6180 -0.5143 -0.2677
   74MOL   H54143027   2.810   1.960   2.842 -0.0937  0.2742  0.0492
   74MOL   H54243028   2.641   1.978   2.804 -0.4263  0.6748  1.1837
   74MOL   H54343029   2.606   2.192   2.875 -0.5007  1.4643  0.9055
   74MOL   H54443030   2.776   2.184   2.904  0.4205 -0.6946  0.5875
   74MOL   H54543031   2.734   2.217   3.160  1.0938  1.5240 -0.1354
   74MOL   H54643032   2.570   2.249   3.130 -1.1330  1.1963  0.0458
   74MOL   H54743033   2.757   2.442   2.991 -1.6499  0.2977 -1.8290
   74MOL   H54843034   2.585   2.439   3.025 -0.3903 -1.1285 -0.7476
   74MOL   H54943035   2.792   2.626   3.074 -1.2120  0.8172 -0.9572
   74MOL   H55043036   2.634   2.743   3.107 -0.1292  1.9425  1.7387
   74MOL   H55143037   2.868   2.739   3.264  0.4689  0.7520  0.7597
   74MOL   H55243038   2.810   2.608   3.364 -0.6374  1.9646 -0.3147
   74MOL   C55343039   3.043   2.505   3.351  0.3945 -0.6851  0.2514
   74MOL   C55443040   3.058   2.356   3.333  1.0005 -0.2483 -0.2553
   74MOL   O55543041   2.922   2.313   3.328  0.3010  0.1573 -0.7308
   74MOL   C55643042   3.134   2.284   3.440  0.1811  0.1379 -0.1404
   74MOL   O55743043   3.275   2.307   3.412 -0.6174  0.6142  0.2947
   74MOL   C55843044   3.345   2.224   3.310  0.1633  0.0267  0.0380
   74MOL   C55943045   3.495   2.264   3.310  0.3830  0.6611  0.6308
   74MOL   C56043046   3.512   2.401   3.247  0.2050 -0.0025  0.6961
   74MOL   O56143047   3.655   2.423   3.230  0.5295  0.4271  0.3993
   74MOL   C56243048   3.693   2.554   3.191  0.5424  0.6256 -0.2137
   74MOL   O56343049   3.697   2.642   3.300 -0.0388 -0.1946 -0.1296
   74MOL   C56443050   3.833   2.545   3.140 -0.1468 -0.0139 -1.3011
   74MOL   O56543051   3.839   2.481   3.014 -0.3432  0.1264 -0.2963
   74MOL   H56643052   2.985   2.527   3.441 -0.9035  1.9837 -1.1847
   74MOL   H56743053   3.138   2.559   3.361 -0.1965  0.6202 -1.0806
   74MOL   H56843054   3.103   2.339   3.235  0.3615  1.1289 -0.8087
   74MOL   H56943055   2.883   2.377   3.270 -0.8128  0.5965  0.4776
   74MOL   H57043056   3.105   2.336   3.531 -1.1502 -1.7054  0.5329
   74MOL   H57143057   3.108   2.178   3.445 -1.6469  0.3952 -2.8495
   74MOL   H57243058   3.348   2.122   3.347 -4.3336 -1.0775 -2.2717
   74MOL   H57343059   3.308   2.226   3.208 -0.4798 -0.9446  0.2438
   74MOL   H57443060   3.559   2.206   3.244  0.7282  2.1792 -0.3852
   74MOL   H57543061   3.542   2.264   3.408 -0.1669  3.3221  0.9397
   74MOL   H57643062   3.460   2.396   3.151  0.5651 -2.0012  0.5989
   74MOL   H57743063   3.456   2.476   3.305 -1.0984  0.7704 -1.4761
   74MOL   H57843064   3.633   2.598   3.111 -0.4196 -1.7161 -0.8071
   74MOL   H57943065   3.722   2.728   3.269 -2.3408  0.0968 -1.2889
   74MOL   H58043066   3.888   2.639   3.144 -0.0155 -0.1294 -0.1221
   74MOL   H58143067   3.889   2.474   3.202 -0.1056  1.9461  0.9801
   74MOL   H58243068   3.853   2.388   3.027  0.4081  0.1414 -0.9878
   75MOL     C143069   2.014   4.311   4.257 -0.6900 -0.8915  0.3022
   75MOL     C243070   1.961   4.244   4.382 -0.0100 -0.6313 -0.3980
   75MOL     O343071   2.063   4.168   4.447  0.0780  0.0042  0.1199
   75MOL     C443072   1.911   4.341   4.493 -0.0548 -0.3305 -0.1364
   75MOL     O543073   2.023   4.416   4.539  0.1244  0.0467  0.0854
   75MOL     C643074   1.986   4.490   4.649 -0.0163  0.4477  0.2171
   75MOL     C743075   2.102   4.574   4.691  0.1486 -0.1688 -0.5805
   75MOL     C843076   2.241   4.512   4.705 -0.0746  0.4844  0.0312
   75MOL     O943077   2.309   4.535   4.576 -0.2439  0.3266  1.1747
   75MOL    C1043078   2.341   4.416   4.505 -0.3755 -0.0270  0.4547
   75MOL    O1143079   2.462   4.363   4.552 -0.2543  0.0798 -0.0761
   75MOL    C1243080   2.354   4.447   4.355 -0.0840  0.1033  0.1496
   75MOL    O1343081   2.478   4.518   4.327 -0.0069 -0.3470 -0.1009
   75MOL    H1443082   1.950   4.304   4.170 -0.9226 -1.8195  0.5497
   75MOL    H1543083   2.109   4.264   4.233  0.7015  1.8225  0.2486
   75MOL    H1643084   1.878   4.185   4.342  1.0995 -1.2173 -1.9321
   75MOL    H1743085   2.080   4.212   4.529  0.6535  0.7924 -0.4172
   75MOL    H1843086   1.829   4.403   4.456 -0.6147 -0.8464  0.2341
   75MOL    H1943087   1.877   4.282   4.578 -0.6887  1.8135  1.1134
   75MOL    H2043088   1.962   4.435   4.741  0.2361 -1.3384 -0.7548
   75MOL    H2143089   1.894   4.544   4.625 -0.8008 -0.1358  1.7753
   75MOL    H2243090   2.086   4.613   4.791  1.2404 -0.2596 -0.3610
   75MOL    H2343091   2.116   4.674   4.651 -0.5458  0.6706  1.2450
   75MOL    H2443092   2.297   4.566   4.781  0.1165  0.4890 -0.1116
   75MOL    H2543093   2.239   4.406   4.728  0.6524  0.6252  0.7457
   75MOL    H2643094   2.268   4.337   4.524 -1.2207  0.1243 -1.9860
   75MOL    H2743095   2.522   4.401   4.489 -0.5546 -1.3954 -1.2790
   75MOL    H2843096   2.342   4.349   4.309 -2.0768  0.2882  0.2405
   75MOL    H2943097   2.264   4.502   4.325 -0.6656 -1.1861 -0.4990
   75MOL    H3043098   2.031   4.416   4.283  2.3264 -0.6701 -2.2352
   75MOL    C3143099   2.485   4.557   4.190  0.2691  0.3563  0.0162
   75MOL    C3243100   2.597   4.656   4.153  0.1138 -0.0819 -0.2419
   75MOL    O3343101   2.563   4.776   4.211  0.2806 -0.0994 -0.1891
   75MOL    C3443102   2.618   4.661   4.002  0.3882  0.4905  0.7003
   75MOL    O3543103   2.655   4.542   3.950  0.7468  0.5090  0.1370
   75MOL    C3643104   2.642   4.531   3.806  0.2046  0.5633 -0.7563
   75MOL    C3743105   2.766   4.444   3.774 -0.1195 -0.1042 -0.7534
   75MOL    C3843106   2.747   4.370   3.644  1.2959 -0.0546 -0.0786
   75MOL    O3943107   2.640   4.282   3.661 -0.4232 -0.2115  0.1792
   75MOL    C4043108   2.625   4.190   3.556  0.2081  0.1693  0.2840
   75MOL    O4143109   2.591   4.262   3.430 -0.0439  0.1298 -0.3640
   75MOL    C4243110   2.513   4.093   3.607  0.4064  0.1227  0.0474
   75MOL    O4343111   2.518   3.968   3.536  0.3281  0.1946 -0.3036
   75MOL    H4443112   2.486   4.468   4.126 -2.2514 -1.3996  2.2959
   75MOL    H4543113   2.392   4.605   4.160 -0.0573  0.9355  1.8889
   75MOL    H4643114   2.693   4.623   4.194  0.3176  2.6907  1.6266
   75MOL    H4743115   2.470   4.782   4.199 -0.0601 -2.0920  1.1960
   75MOL    H4843116   2.522   4.696   3.964  0.1972  0.0901  0.8193
   75MOL    H4943117   2.697   4.735   3.988  0.6284 -0.0625 -0.9827
   75MOL    H5043118   2.647   4.632   3.767  1.5931  1.6953  2.2192
   75MOL    H5143119   2.552   4.484   3.765  0.0104  1.0274 -0.8584
   75MOL    H5243120   2.780   4.366   3.849  1.1575 -0.6972 -1.5936
   75MOL    H5343121   2.853   4.510   3.774 -1.6967  2.0484  0.9192
   75MOL    H5443122   2.738   4.437   3.559 -0.3611 -3.2877 -2.5835
   75MOL    H5543123   2.845   4.325   3.623  0.2879 -1.5606 -1.7440
   75MOL    H5643124   2.721   4.140   3.541 -0.0855 -0.7705  1.4799
   75MOL    H5743125   2.504   4.295   3.442 -0.9576 -2.1827 -0.2271
   75MOL    H5843126   2.533   4.068   3.711  0.9905  4.5925  1.0698
   75MOL    H5943127   2.421   4.149   3.590  0.5600 -0.7060 -3.9275
   75MOL    C6043128   2.493   3.978   3.396  0.2685  0.1636  0.8434
   75MOL    C6143129   2.470   3.841   3.336  0.1259 -0.4034  0.1204
   75MOL    O6243130   2.358   3.799   3.409  0.1170  0.6433  0.2351
   75MOL    C6343131   2.583   3.742   3.362  0.1497  0.0537 -0.2068
   75MOL    O6443132   2.586   3.636   3.268 -0.6462 -0.1730 -0.0609
   75MOL    C6543133   2.710   3.569   3.287 -0.3369  0.5331 -0.0675
   75MOL    C6643134   2.708   3.417   3.283  0.4120  0.0423  0.4464
   75MOL    C6743135   2.835   3.348   3.325  0.4933  0.1192  0.0507
   75MOL    O6843136   2.816   3.208   3.316 -0.3256 -0.2672 -0.3349
   75MOL    C6943137   2.920   3.132   3.362 -0.3235 -0.0200 -0.5305
   75MOL    O7043138   2.957   3.167   3.495 -0.2852 -0.5669 -0.3047
   75MOL    C7143139   2.894   2.986   3.343 -0.5371 -0.2511  0.3262
   75MOL    O7243140   2.815   2.931   3.447 -0.1217  0.3188 -0.0672
   75MOL    H7343141   2.575   4.022   3.340  0.0524 -0.8376 -0.2681
   75MOL    H7443142   2.409   4.048   3.392  1.2030  1.3614  1.5568
   75MOL    H7543143   2.432   3.853   3.235  0.9088 -0.3318 -0.1693
   75MOL    H7643144   2.377   3.788   3.501  2.8957  0.2993 -0.3424
   75MOL    H7743145   2.671   3.804   3.340 -1.0234  1.3945 -1.2377
   75MOL    H7843146   2.598   3.699   3.461  1.8930 -0.2737 -0.5889
   75MOL    H7943147   2.771   3.597   3.372  0.2044 -1.4575  0.2177
   75MOL    H8043148   2.776   3.597   3.205 -2.2564 -0.4401 -2.0002
   75MOL    H8143149   2.662   3.384   3.190  1.4874  0.0663 -0.1009
   75MOL    H8243150   2.639   3.378   3.358  0.9178 -2.0968 -0.1642
   75MOL    H8343151   2.879   3.385   3.418  0.2557  0.3943  0.0527
   75MOL    H8443152   2.908   3.374   3.248 -0.0129 -4.0126 -1.9639
   75MOL    H8543153   3.007   3.152   3.300  0.0869  1.7016  0.5663
   75MOL    H8643154   2.890   3.138   3.556  1.2958  1.4679  2.5167
   75MOL    H8743155   2.854   2.965   3.244  0.8306 -2.9197  0.2959
   75MOL    H8843156   2.993   2.941   3.356 -0.6097  0.5004  3.8275
   75MOL    C8943157   2.670   2.946   3.440  0.3211 -0.9535  0.0578
   75MOL    C9043158   2.583   2.878   3.543 -0.7458 -0.4810  0.3154
   75MOL    O9143159   2.593   2.945   3.668 -0.7847 -0.6834 -0.5509
   75MOL    C9243160   2.438   2.875   3.500  0.0689 -0.6150  0.5584
   75MOL    O9343161   2.368   2.787   3.576  0.1552  0.1600 -0.0857
   75MOL    C9443162   2.233   2.768   3.542  1.3812  0.3896 -0.2952
   75MOL    C9543163   2.134   2.825   3.644  0.2635  0.5982  0.3630
   75MOL    C9643164   2.151   2.975   3.648  0.0894 -0.1754 -0.3502
   75MOL    O9743165   2.077   3.009   3.758 -0.3461 -0.4448 -0.0574
   75MOL    C9843166   2.051   3.146   3.766  0.4824  0.2054 -0.3281
   75MOL    O9943167   1.953   3.177   3.864  0.6552 -0.2180  0.1615
   75MOL   C10043168   2.176   3.235   3.798 -0.1326 -0.0971 -0.1028
   75MOL   O10143169   2.276   3.235   3.696  0.4935  0.0313 -0.1918
   75MOL   H10243170   2.634   2.920   3.341 -3.4635 -0.3857  1.1789
   75MOL   H10343171   2.646   3.052   3.451 -0.0979 -1.0712  0.2942
   75MOL   H10443172   2.633   2.782   3.554 -1.4425 -1.2813 -2.9643
   75MOL   H10543173   2.547   2.884   3.724  1.2430 -0.7629  1.0741
   75MOL   H10643174   2.397   2.976   3.503  0.2280 -0.4405 -2.1050
   75MOL   H10743175   2.440   2.839   3.398 -0.0221 -1.0553  0.7121
   75MOL   H10843176   2.207   2.662   3.531  2.1387  0.3548 -1.9096
   75MOL   H10943177   2.209   2.801   3.441 -0.8115  1.7095  0.6144
   75MOL   H11043178   2.169   2.782   3.738 -0.6682  0.9894  0.9013
   75MOL   H11143179   2.030   2.793   3.640  0.1007  1.3404 -2.2891
   75MOL   H11243180   2.256   3.005   3.648  0.3319 -0.9539  1.3576
   75MOL   H11343181   2.110   3.014   3.555  0.8808  1.2421 -0.1254
   75MOL   H11443182   2.007   3.180   3.672  2.4763 -1.0005 -1.7361
   75MOL   H11543183   1.930   3.267   3.846  3.8333  0.7259  0.6090
   75MOL   H11643184   2.139   3.336   3.814 -0.4791  0.3650 -3.4963
   75MOL   H11743185   2.222   3.199   3.890  0.8532  3.0945  0.7172
   75MOL   C11843186   2.373   3.332   3.728  0.6772  0.1580  0.0607
   75MOL   C11943187   2.341   3.468   3.671  0.1616 -0.1901 -0.3981
   75MOL   O12043188   2.384   3.469   3.535 -0.8767 -0.8408 -0.5294
   75MOL   C12143189   2.406   3.584   3.746  0.4079 -0.1373  0.1801
   75MOL   O12243190   2.366   3.699   3.671  0.1807 -0.4117  0.5910
   75MOL   C12343191   2.322   3.811   3.754  0.1654 -0.1576  0.5925
   75MOL   C12443192   2.187   3.786   3.820 -0.5831 -0.0569 -0.1352
   75MOL   C12543193   2.117   3.914   3.869 -0.0077 -0.1615 -0.5230
   75MOL   O12643194   1.978   3.879   3.893  0.1248 -0.2203 -0.8494
   75MOL   C12743195   1.905   3.994   3.927 -0.1106  0.1422 -1.0209
   75MOL   O12843196   1.943   4.043   4.055 -0.2356  0.2475 -0.6970
   75MOL   C12943197   1.760   3.956   3.926  0.4168 -0.7710 -0.0122
   75MOL   O13043198   1.744   3.866   4.031 -0.4775  0.5309  0.2276
   75MOL   H13143199   2.398   3.335   3.834 -1.9498 -2.3231  0.8436
   75MOL   H13243200   2.466   3.308   3.678 -0.7504 -2.1967 -1.5536
   75MOL   H13343201   2.233   3.480   3.677  0.1793  0.2278 -0.8860
   75MOL   H13443202   2.378   3.558   3.504 -0.5098 -0.3913  0.6997
   75MOL   H13543203   2.377   3.589   3.851 -2.6597  0.0507 -0.6441
   75MOL   H13643204   2.515   3.588   3.755  0.5092 -0.7758 -0.7634
   75MOL   H13743205   2.300   3.899   3.693  1.0941 -0.5380 -0.3075
   75MOL   H13843206   2.392   3.840   3.832  0.8960  2.1398 -0.8933
   75MOL   H13943207   2.194   3.711   3.899  1.4413 -1.8629 -1.9597
   75MOL   H14043208   2.121   3.745   3.744  1.3836  1.0536 -2.5040
   75MOL   H14143209   2.176   3.936   3.957 -0.5321 -1.0715  0.0587
   75MOL   H14243210   2.127   3.996   3.797 -0.3936  0.8485  0.5673
   75MOL   H14343211   1.920   4.077   3.858  2.4444 -0.2844 -0.9949
   75MOL   H14443212   1.942   3.973   4.119 -0.5189  0.1600 -0.7956
   75MOL   H14543213   1.708   4.050   3.944  0.4238 -1.0506  1.6160
   75MOL   H14643214   1.743   3.916   3.826  1.4556  1.9954 -1.3256
   75MOL   C14743215   1.606   3.851   4.076 -0.3504  0.8864  0.2550
   75MOL   C14843216   1.581   3.926   4.206  0.4781 -0.0974  0.1937
   75MOL   O14943217   1.613   4.066   4.180  0.3884 -0.2655  0.0401
   75MOL   C15043218   1.669   3.884   4.334 -0.1598  0.3476 -0.0121
   75MOL   O15143219   1.615   3.925   4.451  0.0541 -0.0130  0.2737
   75MOL   C15243220   1.667   3.869   4.568 -0.1855  0.7003 -0.3066
   75MOL   C15343221   1.605   3.729   4.590 -0.8717 -0.5274  0.9472
   75MOL   C15443222   1.632   3.668   4.726 -0.1394  0.3208 -0.1684
   75MOL   O15543223   1.544   3.557   4.738 -0.9041 -0.2662 -0.4960
   75MOL   C15643224   1.561   3.481   4.851  0.4135  0.0303  0.0574
   75MOL   O15743225   1.665   3.383   4.836  0.2380  0.3041 -0.0406
   75MOL   C15843226   1.428   3.411   4.861  0.1526 -0.0256 -0.4037
   75MOL   O15943227   1.409   3.345   4.737 -0.0214 -0.3185  0.3791
   75MOL   H16043228   1.592   3.745   4.096 -2.2891  1.2298  0.7887
   75MOL   H16143229   1.529   3.880   4.004  0.1591  3.7216  0.7723
   75MOL   H16243230   1.474   3.916   4.227  0.6016 -2.7422 -0.3260
   75MOL   H16343231   1.706   4.068   4.162  0.3469 -0.9091 -0.2599
   75MOL   H16443232   1.676   3.776   4.328 -1.2006  0.3627 -1.8811
   75MOL   H16543233   1.773   3.916   4.330 -0.6112  1.9222  0.2423
   75MOL   H16643234   1.635   3.925   4.655  0.7005  1.3292 -0.3730
   75MOL   H16743235   1.776   3.866   4.576 -0.3349  2.2363  2.8401
   75MOL   H16843236   1.642   3.664   4.511 -1.8938  1.7699 -1.5059
   75MOL   H16943237   1.502   3.724   4.554  0.0526 -1.4410 -1.6639
   75MOL   H17043238   1.735   3.632   4.727 -0.6258 -1.1999 -1.5895
   75MOL   H17143239   1.628   3.742   4.806  1.2895  1.4462 -1.1194
   75MOL   H17243240   1.583   3.541   4.939 -0.9687  0.6149  0.0171
   75MOL   H17343241   1.631   3.305   4.794  0.7507  0.2687 -0.3824
   75MOL   H17443242   1.436   3.329   4.932 -3.4933  1.9582  2.4818
   75MOL   H17543243   1.347   3.481   4.881  0.2435  0.4236 -1.5706
   75MOL   C17643244   1.266   3.328   4.708 -0.1281  0.0902  0.3847
   75MOL   C17743245   1.261   3.237   4.582  0.3287 -0.3312 -0.1826
   75MOL   O17843246   1.145   3.261   4.515 -0.0408 -0.2661  0.4455
   75MOL   C17943247   1.267   3.091   4.625  0.1664  0.6756 -0.3296
   75MOL   O18043248   1.214   3.011   4.527 -0.5617 -0.5876 -0.1612
   75MOL   C18143249   1.251   2.873   4.533 -0.6542 -0.4082  0.8034
   75MOL   C18243250   1.198   2.799   4.408  0.0470  0.7155 -0.1421
   75MOL   C18343251   1.049   2.769   4.421  0.4326  0.3954 -0.0241
   75MOL   O18443252   0.998   2.686   4.313  0.0242 -0.5123 -0.2403
   75MOL   C18543253   0.861   2.672   4.308  0.7508 -0.6865 -0.0435
   75MOL   O18643254   0.805   2.611   4.425 -0.8240 -0.1798  0.4768
   75MOL   C18743255   0.831   2.586   4.185 -0.2200  0.1270 -0.4447
   75MOL   O18843256   0.822   2.661   4.067  0.3547  0.0054 -0.0910
   75MOL   H18943257   1.224   3.426   4.685 -0.0037 -0.2455 -1.2951
   75MOL   H19043258   1.227   3.291   4.803 -2.4550  1.8001  0.1251
   75MOL   H19143259   1.339   3.258   4.509 -0.0684 -0.4677 -0.6532
   75MOL   H19243260   1.074   3.289   4.571 -0.0948 -0.0514  0.2746
   75MOL   H19343261   1.370   3.063   4.648 -0.5552 -0.0029  2.2208
   75MOL   H19443262   1.204   3.065   4.710  1.7382 -0.0578  0.6316
   75MOL   H19543263   1.207   2.829   4.622  0.7757 -0.3740  1.5480
   75MOL   H19643264   1.359   2.858   4.541 -0.1871  2.4382  0.2988
   75MOL   H19743265   1.248   2.703   4.391 -0.6402  0.2258  0.6000
   75MOL   H19843266   1.220   2.864   4.323  2.3697  0.1146 -0.0256
   75MOL   H19943267   1.015   2.721   4.513  0.2464 -0.7523 -0.6881
   75MOL   H20043268   0.995   2.863   4.411 -0.3170 -0.0830 -0.5294
   75MOL   H20143269   0.809   2.766   4.294 -1.2944 -1.7533  0.2786
   75MOL   H20243270   0.875   2.553   4.451  0.3036  0.7124 -0.5128
   75MOL   H20343271   0.907   2.509   4.171  0.6665  0.7129  1.0627
   75MOL   H20443272   0.733   2.539   4.197 -0.6014  1.1183  0.4543
   75MOL   C20543273   0.936   2.735   4.030  0.3329 -0.4351  0.1418
   75MOL   C20643274   0.920   2.793   3.890  0.2196 -0.0244  0.5059
   75MOL   O20743275   0.796   2.860   3.889  0.0596  0.0684  0.6434
   75MOL   C20843276   1.026   2.898   3.858  0.2050 -0.2747  0.1673
   75MOL   O20943277   1.157   2.844   3.851  0.5114 -0.3180 -0.2410
   75MOL   C21043278   1.174   2.745   3.750 -0.4606  0.0577  0.1865
   75MOL   C21143279   1.318   2.693   3.761  0.3628  0.2495  0.9973
   75MOL   C21243280   1.347   2.610   3.884 -0.4516  0.0849  0.2594
   75MOL   O21343281   1.246   2.507   3.885  0.0278 -0.3257  0.2424
   75MOL   C21443282   1.246   2.414   3.987  0.2071 -0.0434  0.2264
   75MOL   O21543283   1.365   2.344   4.002 -0.4371  0.1558  0.5067
   75MOL   C21643284   1.137   2.317   3.962  0.1433 -0.3628 -0.1580
   75MOL   O21743285   1.082   2.281   4.085  0.3924  0.3708 -0.4181
   75MOL   H21843286   1.022   2.669   4.044  1.3710  0.8089 -0.2574
   75MOL   H21943287   0.954   2.823   4.092  0.2494  1.1127 -1.9706
   75MOL   H22043288   0.913   2.713   3.816  1.0893  2.4977 -2.4091
   75MOL   H22143289   0.744   2.813   3.952  1.7647  0.8897  2.7331
   75MOL   H22243290   0.998   2.945   3.763  0.6886 -0.8168 -0.2501
   75MOL   H22343291   1.031   2.980   3.930  1.0060  1.0902 -1.3904
   75MOL   H22443292   1.160   2.784   3.649  0.5812 -1.7298 -0.6803
   75MOL   H22543293   1.111   2.658   3.767 -1.5211  1.1490  1.8830
   75MOL   H22643294   1.385   2.779   3.765 -0.8065  1.2339  0.1570
   75MOL   H22743295   1.337   2.643   3.666  3.1823 -0.4512  1.8907
   75MOL   H22843296   1.443   2.562   3.869 -1.2706 -1.9722  1.2432
   75MOL   H22943297   1.343   2.663   3.979 -0.7419  1.3588 -0.4578
   75MOL   H23043298   1.228   2.475   4.075 -1.4506 -0.6169  0.2927
   75MOL   H23143299   1.378   2.300   3.919  2.2493  2.0148 -0.1125
   75MOL   H23243300   1.061   2.373   3.908 -0.1601 -1.8967 -1.3306
   75MOL   H23343301   1.177   2.235   3.904 -0.0753 -1.0735  0.6878
   75MOL   C23443302   1.007   2.160   4.067 -0.2103  0.2068  0.1539
   75MOL   C23543303   0.962   2.092   4.203  0.3304 -0.7369  0.6277
   75MOL   O23643304   0.878   1.983   4.170 -0.6066 -0.3912  0.4115
   75MOL   C23743305   0.870   2.182   4.287  0.6525  0.6032 -0.1692
   75MOL   O23843306   0.843   2.103   4.397 -0.5070 -0.0719  0.3368
   75MOL   C23943307   0.761   2.177   4.496 -0.3988 -0.0035  0.0435
   75MOL   C24043308   0.725   2.069   4.598  0.0647 -0.3476 -0.1209
   75MOL   C24143309   0.645   2.115   4.718 -0.5931 -0.0598 -0.5759
   75MOL   O24243310   0.519   2.158   4.670 -0.2347 -0.3256  0.0220
   75MOL   C24343311   0.444   2.231   4.757  0.0051  1.0125 -0.1016
   75MOL   O24443312   0.399   2.153   4.861 -0.0655 -0.1028  0.0100
   75MOL   C24543313   0.321   2.289   4.674  0.7421 -0.2167  0.1929
   75MOL   O24643314   0.349   2.419   4.636  0.6648  0.8578  0.1664
   75MOL   H24743315   0.934   2.172   3.987  1.4154 -0.3806 -1.4759
   75MOL   H24843316   1.074   2.088   4.019  0.2931 -0.0033  1.1698
   75MOL   H24943317   1.053   2.059   4.253  0.2380  1.2271  2.1880
   75MOL   H25043318   0.822   1.989   4.246  1.2267  0.9174  1.6993
   75MOL   H25143319   0.926   2.273   4.306  1.9585  0.1320 -1.7050
   75MOL   H25243320   0.782   2.202   4.225  1.3769  0.6770 -1.1766
   75MOL   H25343321   0.667   2.202   4.448 -0.5922  0.4775  0.6714
   75MOL   H25443322   0.822   2.262   4.527 -0.0081 -0.3303  0.1712
   75MOL   H25543323   0.824   2.040   4.635  0.0580 -1.2611 -0.7921
   75MOL   H25643324   0.684   1.984   4.544  1.8653  0.1901 -2.4537
   75MOL   H25743325   0.632   2.034   4.789  0.7993 -1.2589 -1.6497
   75MOL   H25843326   0.704   2.191   4.770 -0.9859 -0.1357 -0.0240
   75MOL   H25943327   0.505   2.311   4.798 -0.3550  0.5187  1.4450
   75MOL   H26043328   0.305   2.147   4.869 -0.1948 -1.3070 -1.9041
   75MOL   H26143329   0.307   2.222   4.590 -2.7685  0.1780  0.3905
   75MOL   H26243330   0.231   2.285   4.735  2.0102 -0.7630  2.0983
   75MOL   C26343331   0.446   2.434   4.540 -0.4449  0.3913  0.4171
   75MOL   C26443332   0.454   2.587   4.517 -0.1557  0.2297  0.2000
   75MOL   O26543333   0.326   2.630   4.475  0.0384  0.2164  0.2344
   75MOL   C26643334   0.494   2.653   4.650 -0.4868  0.1959 -0.2040
   75MOL   O26743335   0.527   2.792   4.642  0.9233 -0.1701  0.0869
   75MOL   C26843336   0.526   2.856   4.767 -0.8001  0.6613 -1.1867
   75MOL   C26943337   0.387   2.877   4.826 -0.1175 -0.3402  0.2365
   75MOL   C27043338   0.288   2.949   4.734 -0.2180 -0.8058 -0.1058
   75MOL   O27143339   0.185   3.008   4.804 -0.3686  0.6212  0.2953
   75MOL   C27243340   0.111   3.100   4.731 -0.6671  0.3960 -0.0817
   75MOL   O27343341   0.029   3.039   4.637 -0.5113  0.1873 -0.4582
   75MOL   C27443342   0.018   3.181   4.828 -0.3894 -0.5284 -0.5229
   75MOL   O27543343   7.643   3.098   4.922 -0.2009  0.1220 -0.3626
   75MOL   H27643344   0.413   2.385   4.448  2.4065 -2.6051  0.9086
   75MOL   H27743345   0.545   2.395   4.561 -0.0378  0.5401 -1.1316
   75MOL   H27843346   0.526   2.614   4.439  0.2782 -0.1440  0.4729
   75MOL   H27943347   0.264   2.578   4.524 -1.6081  2.7496  0.9279
   75MOL   H28043348   0.407   2.643   4.715  0.9523  1.9305  2.0387
   75MOL   H28143349   0.576   2.596   4.694  1.8839  1.9166 -2.2961
   75MOL   H28243350   0.571   2.951   4.739 -0.1910  0.4341 -0.9820
   75MOL   H28343351   0.601   2.820   4.837 -1.7118  2.0948  0.5721
   75MOL   H28443352   0.391   2.931   4.920 -0.0810 -0.3219  0.2237
   75MOL   H28543353   0.334   2.785   4.853  0.1512 -0.8432 -0.8910
   75MOL   H28643354   0.335   3.030   4.678 -1.1454  0.7632  1.2996
   75MOL   H28743355   0.240   2.885   4.661 -2.5038  1.0847 -0.3282
   75MOL   H28843356   0.168   3.168   4.669  0.0841  0.6802  0.9046
   75MOL   H28943357   7.641   3.014   4.676 -1.1089 -0.4751 -2.0535
   75MOL   H29043358   0.084   3.236   4.895 -1.0092 -1.1094  0.5801
   75MOL   H29143359   7.645   3.250   4.777  1.1819 -0.2538 -2.2706
   75MOL   C29243360   0.022   3.065   5.041  0.0314 -0.0801 -0.6864
   75MOL   C29343361   7.621   3.005   5.148 -0.1060  0.3418  0.4237
   75MOL   O29443362   7.672   2.884   5.183  0.2835 -0.3022 -0.0706
   75MOL   C29543363   7.619   3.084   5.276  0.6326 -0.2397 -0.5139
   75MOL   O29643364   0.054   3.103   5.337  0.1895  0.2527  0.2480
   75MOL   C29743365   0.055   3.187   5.449 -0.1564 -0.2973  0.2044
   75MOL   C29843366   0.160   3.303   5.427  0.0404 -0.4003 -0.4094
   75MOL   C29943367   0.311   3.264   5.419  0.2367 -0.0996  0.3427
   75MOL   O30043368   0.403   3.374   5.413  0.6393  0.1279 -0.6519
   75MOL   C30143369   0.535   3.326   5.394 -0.0964 -0.1685 -0.6081
   75MOL   O30243370   0.556   3.276   5.269  0.3432  0.4356 -0.4277
   75MOL   C30343371   0.631   3.441   5.422  0.2212 -0.6186 -0.5072
   75MOL   O30443372   0.602   3.480   5.553 -0.4144 -0.1671  0.4981
   75MOL   H30543373   0.106   2.999   5.017 -0.8539 -0.9715 -1.4093
   75MOL   H30643374   0.069   3.155   5.081 -1.2478  0.4036 -0.2648
   75MOL   H30743375   7.523   2.983   5.107 -0.1141 -2.0801  1.6389
   75MOL   H30843376   0.002   2.900   5.273 -1.0939 -2.2775  0.6807
   75MOL   H30943377   7.570   3.179   5.257  1.3610  0.2219 -0.1146
   75MOL   H31043378   7.548   3.039   5.344  1.3684  1.2324  1.2664
   75MOL   H31143379   0.080   3.126   5.536 -3.5375  0.3822  1.7169
   75MOL   H31243380   7.652   3.234   5.459  0.9530  1.6209  2.5434
   75MOL   H31343381   0.149   3.375   5.508  1.3618  2.4816 -2.6869
   75MOL   H31443382   0.130   3.348   5.332 -1.4570 -0.7839 -0.1202
   75MOL   H31543383   0.334   3.193   5.498 -1.0991  0.2980  1.0898
   75MOL   H31643384   0.331   3.207   5.328  0.3853  1.7887 -0.8319
   75MOL   H31743385   0.554   3.247   5.467  1.5940  0.7655  0.0083
   75MOL   H31843386   0.524   3.338   5.205  1.9724  0.8170 -0.9003
   75MOL   H31943387   0.595   3.515   5.350  1.1676  0.5189  0.1898
   75MOL   H32043388   0.738   3.425   5.410  0.7637  0.9182  2.0499
   75MOL   C32143389   0.624   3.616   5.590  0.6483 -0.1902 -0.6640
   75MOL   C32243390   0.540   3.635   5.714 -0.1802 -0.4662  0.5012
   75MOL   O32343391   0.560   3.765   5.760 -0.3589 -0.0886 -0.2683
   75MOL   C32443392   0.384   3.625   5.690 -0.2166 -0.1165 -0.0008
   75MOL   O32543393   0.308   3.593   5.802  0.3725  0.4777 -0.3345
   75MOL   C32643394   0.330   3.457   5.857 -0.7415 -0.7708  0.7751
   75MOL   C32743395   0.228   3.437   5.967 -0.2147 -0.2969 -0.1541
   75MOL   C32843396   0.299   3.434   6.103  0.3211 -0.0454 -0.2536
   75MOL   O32943397   0.367   3.552   6.122 -0.0475 -0.2818  0.2207
   75MOL   C33043398   0.466   3.554   6.218  0.7031 -0.1856  0.7369
   75MOL   O33143399   0.595   3.510   6.163  0.5860 -0.6415 -0.5813
   75MOL   C33243400   0.478   3.698   6.271  0.4727 -0.3562 -0.6194
   75MOL   O33343401   0.385   3.725   6.371 -0.1734  0.3904 -0.3845
   75MOL   H33443402   0.587   3.688   5.517  0.3136  0.9706  0.6301
   75MOL   H33543403   0.730   3.632   5.610  0.5427 -2.0922  1.6081
   75MOL   H33643404   0.575   3.573   5.796 -0.0429 -1.1455 -0.0739
   75MOL   H33743405   0.510   3.823   5.705 -1.7426 -1.2320 -0.2484
   75MOL   H33843406   0.356   3.566   5.604  0.4498  0.3543 -0.5402
   75MOL   H33943407   0.353   3.723   5.652 -0.5119 -0.4904 -0.7197
   75MOL   H34043408   0.426   3.455   5.908 -0.5028 -3.4173  0.3139
   75MOL   H34143409   0.329   3.380   5.780  1.5810 -0.1872  0.1330
   75MOL   H34243410   0.145   3.507   5.957  0.1123 -0.0665 -1.3199
   75MOL   H34343411   0.178   3.340   5.961 -0.8774 -0.0250  0.7248
   75MOL   H34443412   0.234   3.405   6.185 -0.3775  0.8258 -0.4939
   75MOL   H34543413   0.381   3.362   6.103  0.5615  0.2110  1.2452
   75MOL   H34643414   0.439   3.483   6.296 -0.4793 -0.0947  0.4166
   75MOL   H34743415   0.616   3.562   6.086  0.5069 -0.3252 -0.3895
   75MOL   H34843416   0.581   3.710   6.304  0.7814 -2.6588 -0.6391
   75MOL   H34943417   0.451   3.772   6.196 -0.4212 -0.4187 -0.3627
   75MOL   C35043418   0.381   3.859   6.414 -0.0161 -0.6193 -0.2511
   75MOL   C35143419   0.270   3.867   6.519  0.1593  0.3089 -0.2356
   75MOL   O35243420   0.324   3.803   6.631 -0.1988  0.2846 -0.3090
   75MOL   C35343421   0.229   4.011   6.546 -0.2314 -0.3994 -0.0101
   75MOL   O35443422   0.122   4.021   6.638 -0.3510  0.0349 -0.3889
   75MOL   C35543423   0.103   4.155   6.682  0.0487  0.0165 -0.8593
   75MOL   C35643424   0.036   4.242   6.578 -0.0662  0.0627  0.4622
   75MOL   C35743425   7.667   4.367   6.637  0.1801 -0.1279  0.1704
   75MOL   O35843426   0.099   4.418   6.677 -0.9948 -0.2713  0.2060
   75MOL   C35943427   0.094   4.486   6.793 -0.4574  0.2039  0.1466
   75MOL   O36043428   0.073   4.403   6.901  0.4857  0.1285 -0.2045
   75MOL   C36143429   0.220   4.563   6.817 -0.7819  0.0162  0.0743
   75MOL   O36243430   0.205   4.675   6.903 -0.1455 -0.3443  0.1241
   75MOL   H36343431   0.358   3.925   6.330 -0.1546  0.8621  0.9237
   75MOL   H36443432   0.478   3.891   6.453 -0.7204  1.0566  0.1979
   75MOL   H36543433   0.189   3.806   6.480 -1.0111  2.0438 -0.6015
   75MOL   H36643434   0.374   3.731   6.594 -0.7153  0.1904 -0.8215
   75MOL   H36743435   0.316   4.061   6.591 -0.2764 -1.0160  0.7849
   75MOL   H36843436   0.215   4.072   6.458 -0.3087  1.3956  1.2204
   75MOL   H36943437   0.190   4.201   6.729  0.4094 -1.0102 -0.4978
   75MOL   H37043438   0.037   4.146   6.769  0.5642 -0.8881 -0.5511
   75MOL   H37143439   7.655   4.187   6.521  0.1533  2.9732 -2.7663
   75MOL   H37243440   0.120   4.266   6.513  0.4956 -0.5784  0.9501
   75MOL   H37343441   7.630   4.431   6.558 -1.0921 -1.0118  0.0371
   75MOL   H37443442   7.593   4.355   6.716 -1.6657 -0.4541 -1.5849
   75MOL   H37543443   0.008   4.553   6.797  0.9598  2.2163 -2.0113
   75MOL   H37643444   0.157   4.386   6.940  0.8869  3.0557  0.2720
   75MOL   H37743445   0.314   4.508   6.824  1.1561  3.3622  1.4005
   75MOL   H37843446   0.236   4.607   6.719  0.4685 -0.2487  0.1486
   75MOL   C37943447   0.321   4.713   6.972  0.1521  0.1850 -0.0452
   75MOL   C38043448   0.327   4.864   6.970 -0.1731 -0.0150 -0.4194
   75MOL   O38143449   0.337   4.925   6.839  0.5170 -0.0047  0.2437
   75MOL   C38243450   0.196   4.913   7.048 -0.2446 -0.6256  0.7839
   75MOL   O38343451   0.212   5.046   7.088 -0.0240  0.3052  0.0775
   75MOL   C38443452   0.134   5.075   7.207  0.1877  0.4359 -0.3666
   75MOL   C38543453   0.000   5.135   7.164  0.3406 -0.0451  0.6029
   75MOL   C38643454   0.018   5.270   7.103 -0.3147 -0.1508 -0.5005
   75MOL   O38743455   7.581   5.314   7.055  0.9160 -0.1878 -0.4286
   75MOL   C38843456   7.580   5.431   6.972  0.2232  0.5201  0.0594
   75MOL   O38943457   7.661   5.415   6.860 -0.4263 -0.7520  0.3090
   75MOL   C39043458   7.439   5.464   6.927  0.5963  0.4506  0.0396
   75MOL   O39143459   7.404   5.583   6.996 -0.0352 -0.1692 -0.3496
   75MOL   H39243460   0.410   4.675   6.922  1.2619 -0.0829  2.0642
   75MOL   H39343461   0.326   4.667   7.071 -1.4099  0.3121  0.0967
   75MOL   H39443462   0.410   4.888   7.037 -0.6259 -0.1670  0.1957
   75MOL   H39543463   0.301   4.869   6.772  0.8874 -1.0042  0.8513
   75MOL   H39643464   0.111   4.900   6.981  0.4257 -2.4025  0.2525
   75MOL   H39743465   0.186   4.845   7.132  0.4852 -2.5547 -0.6505
   75MOL   H39843466   0.199   5.143   7.261 -0.7644  0.0065  1.3894
   75MOL   H39943467   0.119   4.984   7.267  3.4267 -1.5488 -2.4220
   75MOL   H40043468   7.628   5.133   7.250  0.4321  1.2401  0.7083
   75MOL   H40143469   7.648   5.061   7.098 -0.4299 -0.0483  1.1468
   75MOL   H40243470   0.061   5.343   7.171 -2.5715  0.6544  0.1221
   75MOL   H40343471   0.096   5.273   7.026  0.7237 -1.6174  0.4782
   75MOL   H40443472   7.619   5.512   7.033 -2.4115  1.5054  0.5050
   75MOL   H40543473   7.632   5.343   6.806  1.3143 -1.6490  0.5186
   75MOL   H40643474   7.444   5.491   6.822 -0.0597  2.1343  0.4205
   75MOL   H40743475   7.374   5.381   6.951 -0.3493  0.8287 -1.1637
   75MOL   C40843476   7.293   5.643   6.932 -0.4876  0.3814  0.6270
   75MOL   C40943477   7.253   5.764   7.005 -0.5058 -0.6083 -0.0579
   75MOL   O41043478   7.129   5.805   6.974 -0.4089 -0.0611 -0.2678
   75MOL   C41143479   7.346   5.882   6.982  0.6905 -0.0344  0.3402
   75MOL   O41243480   7.330   5.977   7.092  0.1991  0.4485  0.4717
   75MOL   C41343481   7.370   6.105   7.057 -0.4560  0.1678  0.0062
   75MOL   C41443482   7.529   6.108   7.058  0.0298  0.4276  0.1331
   75MOL   C41543483   7.584   6.115   7.206 -0.6046  0.3736  0.3054
   75MOL   O41643484   0.030   6.122   7.204 -0.2009  0.1982  0.2478
   75MOL   C41743485   0.085   6.233   7.266 -0.1014  0.2419  0.8706
   75MOL   O41843486   0.096   6.334   7.173 -0.0934 -0.5014 -0.9143
   75MOL   C41943487   0.225   6.200   7.315  0.1816 -0.1771 -0.2244
   75MOL   O42043488   0.217   6.135   7.446 -0.9815  0.0251  0.0393
   75MOL   H42143489   7.209   5.575   6.918 -0.4294  0.7787 -1.8431
   75MOL   H42243490   7.325   5.666   6.830  1.7913  0.5116  1.3417
   75MOL   H42343491   7.257   5.754   7.114  3.2289 -0.1373 -0.0826
   75MOL   H42443492   7.098   5.764   6.895 -1.9651 -0.4103  0.4913
   75MOL   H42543493   7.452   5.853   6.978  0.1830 -2.1912  1.5342
   75MOL   H42643494   7.326   5.934   6.888  0.0612 -1.1729 -0.1716
   75MOL   H42743495   7.334   6.128   6.957 -1.5034 -0.9105  0.1175
   75MOL   H42843496   7.336   6.180   7.128 -0.4003  0.5633 -0.3868
   75MOL   H42943497   7.553   6.207   7.019  3.5494  0.8250  3.0200
   75MOL   H43043498   7.584   6.039   6.994  1.2719  1.3923  0.1313
   75MOL   H43143499   7.535   6.203   7.248 -1.6763  0.1186 -0.3734
   75MOL   H43243500   7.556   6.026   7.262  2.0937 -0.9628 -0.3671
   75MOL   H43343501   0.024   6.273   7.348  0.4007  1.0822  0.8411
   75MOL   H43443502   0.179   6.316   7.132  0.2428 -1.5785  0.2426
   75MOL   H43543503   0.268   6.131   7.243 -0.4948  0.8725 -1.6419
   75MOL   H43643504   0.286   6.290   7.318 -1.7624  1.1223  2.1948
   75MOL   C43743505   0.354   6.128   7.502  0.2369  1.0114 -0.7583
   75MOL   C43843506   0.377   6.057   7.642 -0.2874  0.5936  0.1688
   75MOL   O43943507   0.366   6.157   0.045  0.3804 -0.6025 -0.2427
   75MOL   C44043508   0.523   5.994   7.659 -0.1530 -0.1900 -0.5421
   75MOL   O44143509   0.518   5.881   0.055 -0.1295 -0.2879  0.5279
   75MOL   C44243510   0.655   5.835   0.071 -0.3119  0.2471  0.3418
   75MOL   C44343511   0.662   5.749   0.200  0.4549 -0.0669 -0.1880
   75MOL   C44443512   0.803   5.674   0.204  0.2193  0.2593  0.0078
   75MOL   O44543513   0.799   5.567   0.114 -0.5518  0.0147 -0.2181
   75MOL   C44643514   0.922   5.519   0.083  0.1986  0.1158 -0.3110
   75MOL   O44743515   0.970   5.597   7.671  0.3658  0.1554  0.1674
   75MOL   C44843516   0.921   5.373   0.037  0.1679  0.4159 -0.3966
   75MOL   O44943517   0.835   5.358   7.622  0.1368 -0.7716  0.0761
   75MOL   H45043518   0.405   6.063   7.431 -0.1317  1.6775 -1.6512
   75MOL   H45143519   0.404   6.225   7.490  0.3753  0.9540 -0.6436
   75MOL   H45243520   0.309   5.977   7.672  1.7948 -1.7054 -1.1167
   75MOL   H45343521   0.404   6.131   0.127  0.2344 -1.9297 -0.5852
   75MOL   H45443522   0.563   5.967   7.561 -2.5607  2.0899 -2.2397
   75MOL   H45543523   0.585   6.074   0.005 -2.4950  1.3703  0.0964
   75MOL   H45643524   0.722   5.920   0.083  4.3131 -2.9643 -1.7219
   75MOL   H45743525   0.670   5.771   7.679  0.8244  0.7688  0.1469
   75MOL   H45843526   0.582   5.676   0.188  0.0783  0.2630  0.3328
   75MOL   H45943527   0.653   5.807   0.291  0.9101  1.7586 -1.2750
   75MOL   H46043528   0.890   5.739   0.203  1.5435 -1.4901  0.7569
   75MOL   H46143529   0.813   5.616   0.295  1.3677  0.9551  0.3342
   75MOL   H46243530   1.002   5.520   0.157 -0.6267 -0.1900  0.6033
   75MOL   H46343531   0.908   5.590   7.600  0.9089  2.1571 -0.5498
   75MOL   H46443532   1.025   5.343   0.020  0.6553  1.8529 -0.0300
   75MOL   H46543533   0.882   5.315   0.120 -0.5404 -1.5619 -2.0774
   75MOL   C46643534   0.843   5.227   7.560  0.3746  0.5421 -0.0877
   75MOL   C46743535   0.805   5.223   7.412 -0.1274 -0.7731  0.2331
   75MOL   O46843536   0.913   5.295   7.349 -0.2922  0.1210  0.1602
   75MOL   C46943537   0.792   5.075   7.356  0.7463 -0.4530 -0.1540
   75MOL   O47043538   0.769   5.079   7.212  0.0702  0.1752 -0.0831
   75MOL   C47143539   0.883   5.037   7.138 -0.1243 -0.6838  0.1745
   75MOL   C47243540   0.894   4.887   7.120 -0.7359  0.8440 -0.8564
   75MOL   C47343541   0.769   4.819   7.066 -0.4302 -0.1371  0.0879
   75MOL   O47443542   0.813   4.678   7.072  0.2400 -0.7242 -0.1366
   75MOL   C47543543   0.726   4.580   7.032  0.0236 -0.2206  0.5239
   75MOL   O47643544   0.640   4.543   7.135 -0.3360  0.6210  0.6233
   75MOL   C47743545   0.814   4.456   7.000  0.2752  0.2928 -0.3231
   75MOL   O47843546   0.908   4.438   7.107 -0.7783 -0.3258 -0.1588
   75MOL   H47943547   0.786   5.153   7.617  0.7957  0.2732 -0.0105
   75MOL   H48043548   0.946   5.194   7.576 -0.2798 -1.2427  0.5533
   75MOL   H48143549   0.714   5.277   7.385  0.6312 -0.4805 -1.8478
   75MOL   H48243550   0.898   5.386   7.369  0.0871  0.4740 -1.0800
   75MOL   H48343551   0.874   5.007   7.381 -1.0027 -1.9325  1.7522
   75MOL   H48443552   0.702   5.029   7.396 -0.0912  0.0874 -1.3871
   75MOL   H48543553   0.974   5.073   7.185 -0.1334 -1.5562  0.8709
   75MOL   H48643554   0.881   5.080   7.038 -0.0621 -1.9764 -0.3895
   75MOL   H48743555   0.926   4.835   7.210 -0.5101 -0.8331 -1.8878
   75MOL   H48843556   0.984   4.862   7.063 -0.8858 -0.2476 -0.6073
   75MOL   H48943557   0.689   4.837   7.138 -1.0397 -1.2073 -0.3049
   75MOL   H49043558   0.730   4.847   6.969 -0.6005 -2.2208 -0.4824
   75MOL   H49143559   0.664   4.613   6.948 -0.0075  3.6855  1.9842
   75MOL   H49243560   0.689   4.484   7.191 -0.3849 -1.0641 -1.0668
   75MOL   H49343561   0.750   4.369   7.005 -2.1947  2.1296  1.0581
   75MOL   H49443562   0.855   4.469   6.900  0.4977  1.6506 -0.0625
   75MOL   C49543563   0.971   4.310   7.109  0.1718  0.1562  0.2678
   75MOL   C49643564   1.072   4.278   6.998  0.1423 -0.2454  0.1533
   75MOL   O49743565   1.171   4.190   7.057  0.2273 -0.9371 -0.2264
   75MOL   C49843566   1.016   4.201   6.873 -0.3717 -0.5436 -0.0632
   75MOL   O49943567   1.130   4.189   6.787  0.4179  0.1697  0.9653
   75MOL   C50043568   1.098   4.147   6.654 -0.9532  0.0208  0.1154
   75MOL   C50143569   1.099   3.993   6.650 -0.6543 -0.3902  0.3885
   75MOL   C50243570   1.093   3.935   6.505  0.0229  0.2455 -0.3989
   75MOL   O50343571   0.983   3.980   6.431 -0.1630  0.2108  0.1796
   75MOL   C50443572   0.847   3.985   6.479 -0.3589  0.2466  0.0234
   75MOL   O50543573   0.803   3.855   6.507  0.2836  0.9929 -0.3505
   75MOL   C50643574   0.752   4.048   6.374  0.1627 -0.0826 -0.7328
   75MOL   O50743575   0.764   3.973   6.256  0.7691  0.2268  0.2802
   75MOL   H50843576   0.897   4.230   7.110 -0.0022  0.3204  1.1548
   75MOL   H50943577   1.017   4.307   7.208 -0.4740  1.1955  0.6036
   75MOL   H51043578   1.126   4.367   6.965 -0.3671 -0.6769 -1.9660
   75MOL   H51143579   1.248   4.200   7.003 -0.2667 -0.6186 -0.8730
   75MOL   H51243580   0.968   4.104   6.885 -0.8357 -0.4481 -1.0879
   75MOL   H51343581   0.936   4.263   6.833  2.2929  2.2361 -1.3027
   75MOL   H51443582   1.175   4.186   6.587 -1.5044  0.2189 -0.3957
   75MOL   H51543583   1.006   4.186   6.612 -0.6140 -0.2107 -0.8519
   75MOL   H51643584   1.013   3.951   6.703  0.1291 -0.4259  1.6568
   75MOL   H51743585   1.175   3.945   6.711  1.1610  0.5685 -1.0684
   75MOL   H51843586   1.177   3.965   6.442  0.3179  2.2055  0.8765
   75MOL   H51943587   1.109   3.828   6.510 -0.2165  0.3312  2.9906
   75MOL   H52043588   0.844   4.038   6.574 -1.4378  0.6876 -0.2565
   75MOL   H52143589   0.815   3.808   6.426  4.1101  0.2192  0.5757
   75MOL   H52243590   0.648   4.051   6.408  0.9571 -1.4037  1.9772
   75MOL   H52343591   0.767   4.153   6.351  1.1410  0.1068  0.7064
   75MOL   C52443592   0.657   3.988   6.166  0.1250  0.1533 -0.3830
   75MOL   C52543593   0.643   4.126   6.102 -0.6492 -0.6799  0.9736
   75MOL   O52643594   0.574   4.213   6.190 -0.4897  0.2774  0.9835
   75MOL   C52743595   0.559   4.118   5.970 -0.0427  0.2720  0.0634
   75MOL   O52843596   0.444   4.039   6.001 -0.7708  0.4367 -0.3454
   75MOL   C52943597   0.365   3.995   5.893  0.0668  0.1047 -0.0358
   75MOL   C53043598   0.260   3.896   5.934 -0.0233  0.3655  0.4469
   75MOL   C53143599   0.159   3.957   6.028  0.1507 -0.4042 -0.2106
   75MOL   O53243600   0.068   3.860   6.061 -0.4678  0.0490 -0.2852
   75MOL   C53343601   0.060   3.812   6.193  0.0197  0.3464 -0.1177
   75MOL   O53443602   7.692   3.901   6.281 -0.0381 -0.0298  0.2383
   75MOL   C53543603   7.672   3.684   6.194  0.3897  0.0679  0.7829
   75MOL   O53643604   0.014   3.610   6.310  0.4763 -0.1940  0.2253
   75MOL   H53743605   0.564   3.964   6.216  0.6000  0.5976  0.7325
   75MOL   H53843606   0.666   3.913   6.087  0.0722  1.5444 -1.7318
   75MOL   H53943607   0.744   4.162   6.083 -1.0238 -0.3576 -0.4151
   75MOL   H54043608   0.524   4.271   6.135 -0.4842  0.2300  0.9276
   75MOL   H54143609   0.517   4.213   5.937 -1.6317 -0.3194  0.2988
   75MOL   H54243610   0.621   4.072   5.893  1.9401  1.2799  1.0235
   75MOL   H54343611   0.425   3.944   5.818 -1.0817  0.3140 -1.1113
   75MOL   H54443612   0.317   4.072   5.833  0.9395  0.2056 -0.6176
   75MOL   H54543613   0.301   3.809   5.984  0.4360  0.8406  0.9143
   75MOL   H54643614   0.205   3.854   5.850 -3.0359  1.2191  1.9079
   75MOL   H54743615   0.210   4.001   6.114 -0.9098 -0.1512  0.2936
   75MOL   H54843616   0.113   4.042   5.979  2.3122  0.4201 -0.8922
   75MOL   H54943617   0.162   3.795   6.227 -1.4409 -1.7257  3.5261
   75MOL   H55043618   7.603   3.903   6.251  0.5452 -1.4766 -1.6394
   75MOL   H55143619   7.566   3.706   6.189  0.6041  1.3142  1.6345
   75MOL   H55243620   0.005   3.620   6.109  0.9276  1.4288 -0.0783
   75MOL   C55343621   7.650   3.478   6.312 -0.4113  0.5776 -0.0118
   75MOL   C55443622   7.672   3.416   6.449  0.0831  0.0850  0.8677
   75MOL   O55543623   7.599   3.499   6.536  0.0173  0.0014 -0.6473
   75MOL   C55643624   0.119   3.412   6.496  0.7884 -0.6293 -0.1869
   75MOL   O55743625   0.138   3.337   6.612  0.0904  0.0309 -0.4481
   75MOL   C55843626   0.265   3.353   6.670  0.9404 -0.4096  0.3654
   75MOL   C55943627   0.262   3.290   6.817  0.4406 -0.1578  0.1773
   75MOL   C56043628   0.389   3.320   6.901  0.9127  0.8083 -0.1237
   75MOL   O56143629   0.394   3.233   7.011 -0.1416 -0.0773  0.3479
   75MOL   C56243630   0.506   3.231   7.088 -0.1005 -0.2852  0.2603
   75MOL   O56343631   0.523   3.345   7.173  0.2485  0.3352 -0.3939
   75MOL   C56443632   0.486   3.113   7.175  0.2160 -0.1510 -0.1294
   75MOL   O56543633   0.602   3.088   7.250 -0.2235  0.3621 -0.3624
   75MOL   H56643634   0.009   3.433   6.229 -1.3628 -0.4909 -0.0529
   75MOL   H56743635   7.545   3.474   6.286 -0.3134 -0.5600 -0.2345
   75MOL   H56843636   7.621   3.319   6.446 -0.6726  0.4268  2.3802
   75MOL   H56943637   7.624   3.590   6.523  0.8368 -0.0982  0.1616
   75MOL   H57043638   0.187   3.370   6.423 -0.4346  0.1015 -1.7706
   75MOL   H57143639   0.154   3.513   6.518  0.7519 -0.1270 -2.3932
   75MOL   H57243640   0.349   3.321   6.609  1.1704  1.0564 -0.0973
   75MOL   H57343641   0.273   3.460   6.686  1.0471 -0.2821 -0.5188
   75MOL   H57443642   0.244   3.183   6.805  0.9994 -0.0815 -1.4903
   75MOL   H57543643   0.170   3.324   6.864 -0.0054  1.1660 -1.5840
   75MOL   H57643644   0.475   3.298   6.837 -0.7077  0.2106 -2.1475
   75MOL   H57743645   0.397   3.422   6.938  2.0617  0.5053  0.4829
   75MOL   H57843646   0.590   3.211   7.022 -0.2522 -1.2272  0.3438
   75MOL   H57943647   0.615   3.369   7.177  0.8696 -2.0070  0.2892
   75MOL   H58043648   0.401   3.130   7.242  0.7086  2.5345 -0.1231
   75MOL   H58143649   0.469   3.024   7.115  1.1669 -0.2413 -0.2824
   75MOL   H58243650   0.599   3.145   7.325  1.1025  0.3574 -0.2999
   76MOL     C143651   2.498   5.646   2.761 -0.6231 -0.4370 -0.5972
   76MOL     C243652   2.352   5.611   2.767 -0.7873 -0.5929  0.2479
   76MOL     O343653   2.310   5.552   2.645 -0.4221  0.4093  0.3859
   76MOL     C443654   2.322   5.518   2.890  0.2871 -0.1642 -0.5198
   76MOL     O543655   2.325   5.572   3.019  0.0195 -0.7263  0.7288
   76MOL     C643656   2.277   5.483   3.116 -0.1497 -0.1160 -0.9112
   76MOL     C743657   2.315   5.554   3.248 -0.3027  0.0751 -0.1510
   76MOL     C843658   2.472   5.559   3.268 -0.1986  0.5002 -0.6027
   76MOL     O943659   2.510   5.614   3.395  0.3427 -0.0756 -0.4514
   76MOL    C1043660   2.646   5.608   3.420  0.5472 -0.6730 -0.2132
   76MOL    O1143661   2.681   5.475   3.450  0.1400  0.2334  0.0629
   76MOL    C1243662   2.692   5.691   3.543 -0.2043 -1.0580  0.2702
   76MOL    O1343663   2.625   5.814   3.538  0.6239  0.1354  1.1589
   76MOL    H1443664   2.528   5.689   2.665 -2.4082  0.7636 -0.6384
   76MOL    H1543665   2.561   5.558   2.772 -0.3919 -0.5418 -2.4877
   76MOL    H1643666   2.285   5.694   2.791 -0.1989 -0.6250  2.0820
   76MOL    H1743667   2.337   5.596   2.566 -1.2696  0.5938  0.1970
   76MOL    H1843668   2.220   5.480   2.885  0.0572 -0.0357  2.3711
   76MOL    H1943669   2.388   5.431   2.881  2.4762  0.9924  3.1990
   76MOL    H2043670   2.336   5.391   3.113 -2.1321 -1.5063  0.7789
   76MOL    H2143671   2.168   5.480   3.102 -0.2879  1.0507 -0.1851
   76MOL    H2243672   2.276   5.506   3.338  0.2789  0.1784  0.1589
   76MOL    H2343673   2.270   5.654   3.241 -0.2466 -0.0249 -2.3078
   76MOL    H2443674   2.497   5.454   3.261 -2.6520 -0.1204 -0.6830
   76MOL    H2543675   2.521   5.608   3.183 -0.6312  0.2721 -0.9847
   76MOL    H2643676   2.704   5.638   3.333 -1.4030  3.0668 -0.3386
   76MOL    H2743677   2.735   5.484   3.526 -1.3655  1.0423  1.0547
   76MOL    H2843678   2.653   5.641   3.632  0.4182 -2.7198 -0.3717
   76MOL    H2943679   2.799   5.708   3.536 -0.5390  0.6988 -0.8958
   76MOL    H3043680   2.536   5.712   2.839 -0.9232 -0.1233 -0.7151
   76MOL    C3143681   2.683   5.891   3.640  0.2680  0.2996 -0.4957
   76MOL    C3243682   2.658   6.044   3.624  0.1550  0.4072 -0.2155
   76MOL    O3343683   2.760   6.105   3.563  0.1697  0.0112 -0.0581
   76MOL    C3443684   2.624   6.116   3.756  0.2215 -0.3271 -0.3573
   76MOL    O3543685   2.683   6.058   3.870  0.1192  0.1148  0.2364
   76MOL    C3643686   2.810   6.116   3.901  0.1688 -0.1217 -0.2682
   76MOL    C3743687   2.859   6.070   4.033  0.4042  0.3569 -0.1003
   76MOL    C3843688   2.991   6.137   4.081 -0.1376  0.9949 -0.5507
   76MOL    O3943689   2.970   6.271   4.124  0.6069 -0.4727 -0.8500
   76MOL    C4043690   3.076   6.352   4.157 -0.4724  0.2178 -0.1006
   76MOL    O4143691   3.131   6.305   4.272 -0.2212 -0.0919  0.3359
   76MOL    C4243692   3.032   6.497   4.183  0.5963 -0.8340 -0.0660
   76MOL    O4343693   3.009   6.559   4.061  0.0579  0.0349  0.1787
   76MOL    H4443694   2.645   5.858   3.737  0.1180 -1.2012 -1.0472
   76MOL    H4543695   2.791   5.876   3.648  0.1278  0.1975  1.5606
   76MOL    H4643696   2.575   6.071   3.558 -0.2355  1.0680  0.5511
   76MOL    H4743697   2.726   6.171   3.504  0.9056  0.1849 -0.2890
   76MOL    H4843698   2.647   6.222   3.748 -0.5195 -0.1083  0.4016
   76MOL    H4943699   2.516   6.116   3.773 -0.0479 -1.3143 -1.9145
   76MOL    H5043700   2.795   6.224   3.906 -0.3130 -0.1534 -0.8923
   76MOL    H5143701   2.885   6.093   3.826 -0.5199 -0.7297 -0.7834
   76MOL    H5243702   2.884   5.964   4.028 -2.3695 -0.3512  0.0338
   76MOL    H5343703   2.788   6.065   4.116  2.3062  0.8684  1.6052
   76MOL    H5443704   3.036   6.095   4.171  1.1998  1.5959 -0.9254
   76MOL    H5543705   3.064   6.134   4.001 -1.0520 -1.3052 -1.3413
   76MOL    H5643706   3.156   6.347   4.083 -0.4966  1.4138 -0.2199
   76MOL    H5743707   3.183   6.380   4.298  2.9633 -0.9856 -2.9628
   76MOL    H5843708   2.942   6.493   4.244 -0.3542  1.2942 -1.2544
   76MOL    H5943709   3.105   6.547   4.247  0.7781 -0.0869 -0.8424
   76MOL    C6043710   2.982   6.696   4.075  0.5642 -0.2002 -0.0374
   76MOL    C6143711   2.993   6.783   3.947  0.2768 -0.0082  0.0533
   76MOL    O6243712   2.947   6.913   3.992 -0.2224  0.2376 -0.2814
   76MOL    C6343713   2.906   6.723   3.839  0.2172  0.6264 -0.3707
   76MOL    O6443714   2.915   6.811   3.734  0.0010 -0.4560 -0.1717
   76MOL    C6543715   2.819   6.771   3.635 -0.1106 -1.0451  0.4055
   76MOL    C6643716   2.827   6.869   3.524  0.5016  0.4194 -0.5577
   76MOL    C6743717   2.753   6.815   3.400  0.4907 -0.1410 -0.0815
   76MOL    O6843718   2.619   6.782   3.435 -0.8300  0.1768  0.2614
   76MOL    C6943719   2.537   6.724   3.334 -0.1030  0.0809  0.1130
   76MOL    O7043720   2.566   6.584   3.315  0.2071  0.1662  1.1403
   76MOL    C7143721   2.394   6.750   3.384  0.5567 -0.1870  0.5672
   76MOL    O7243722   2.379   6.738   3.527 -0.0489  0.0143 -0.4444
   76MOL    H7343723   3.050   6.744   4.145 -2.2948 -1.1484  3.5330
   76MOL    H7443724   2.882   6.705   4.117 -0.0769 -1.1340 -1.3255
   76MOL    H7543725   3.097   6.778   3.913  0.1438  0.5018 -0.4386
   76MOL    H7643726   2.858   6.892   4.016 -0.7723  3.5609  0.8653
   76MOL    H7743727   2.948   6.628   3.807  0.8207 -0.0049  2.2079
   76MOL    H7843728   2.807   6.709   3.882  0.3168 -0.7516 -0.5646
   76MOL    H7943729   2.722   6.771   3.685 -0.7105 -0.8274 -0.7482
   76MOL    H8043730   2.831   6.673   3.588  1.7452 -1.8776  2.5338
   76MOL    H8143731   2.929   6.883   3.490  0.4734 -0.6306 -1.0898
   76MOL    H8243732   2.787   6.965   3.558  1.0684 -0.0364  1.5058
   76MOL    H8343733   2.804   6.726   3.365  1.7088  0.2958  0.5429
   76MOL    H8443734   2.753   6.888   3.319  0.8508  0.5486  0.5282
   76MOL    H8543735   2.544   6.772   3.237 -2.3465 -2.0463 -1.1340
   76MOL    H8643736   2.608   6.571   3.231 -0.1122 -1.1343  1.1652
   76MOL    H8743737   2.371   6.855   3.367 -2.1628 -0.8093  0.1579
   76MOL    H8843738   2.317   6.686   3.341 -1.6164  2.0744  1.0449
   76MOL    C8943739   2.410   6.612   3.587 -0.2541 -0.2227 -0.6322
   76MOL    C9043740   2.386   6.604   3.742 -0.7127 -0.6849  0.8732
   76MOL    O9143741   2.242   6.595   3.747  0.3640  0.3036  0.2941
   76MOL    C9243742   2.456   6.484   3.816 -0.5077 -0.4181 -0.2806
   76MOL    O9343743   2.495   6.522   3.951  0.2864 -0.0326  0.3543
   76MOL    C9443744   2.520   6.397   4.029  0.1356 -0.1086  0.4794
   76MOL    C9543745   2.596   6.463   4.149  0.4724  0.8636 -0.2021
   76MOL    C9643746   2.639   6.353   4.248  0.4272  0.0093  0.0704
   76MOL    O9743747   2.717   6.411   4.350  0.2355 -0.5214 -0.6136
   76MOL    C9843748   2.787   6.321   4.431 -0.2201  1.0979  0.3750
   76MOL    O9943749   2.879   6.233   4.368 -0.3001 -0.4251  0.5281
   76MOL   C10043750   2.861   6.401   4.546 -0.1773 -0.3578  0.0135
   76MOL   O10143751   2.956   6.497   4.490 -0.1759  0.3671  0.2102
   76MOL   H10243752   2.515   6.593   3.566  0.1612  0.1175  1.0285
   76MOL   H10343753   2.354   6.541   3.526 -0.0356 -0.7894 -0.1754
   76MOL   H10443754   2.424   6.697   3.784 -1.0090  0.2286 -0.8468
   76MOL   H10543755   2.226   6.519   3.694  0.0338 -0.7649  1.8980
   76MOL   H10643756   2.394   6.396   3.804 -1.0759 -0.0731  0.1367
   76MOL   H10743757   2.547   6.462   3.759 -0.0300  1.9021 -0.4806
   76MOL   H10843758   2.580   6.328   3.970 -2.0088 -0.6630 -1.1012
   76MOL   H10943759   2.426   6.348   4.057  0.2789 -0.9308 -0.4623
   76MOL   H11043760   2.535   6.538   4.199  1.1712  1.0124  0.4210
   76MOL   H11143761   2.685   6.521   4.126  1.2131  0.0257  0.5221
   76MOL   H11243762   2.542   6.315   4.280 -0.0559  0.3479 -0.9632
   76MOL   H11343763   2.700   6.286   4.188 -1.6517 -1.1229 -0.8440
   76MOL   H11443764   2.714   6.260   4.484  1.8196 -0.3835  1.5678
   76MOL   H11543765   2.955   6.277   4.335 -0.0012 -1.7672 -0.6026
   76MOL   H11643766   2.785   6.448   4.609 -0.0626  0.7508 -0.6657
   76MOL   H11743767   2.910   6.325   4.607  1.7172  2.0374  1.5511
   76MOL   C11843768   3.071   6.502   4.571 -0.2009 -0.4384  0.4096
   76MOL   C11943769   3.130   6.641   4.550 -0.2675 -0.0962 -0.3759
   76MOL   O12043770   3.193   6.675   4.420  0.3292 -0.1901 -0.9235
   76MOL   C12143771   3.240   6.675   4.656 -0.5161 -0.2017 -0.1811
   76MOL   O12243772   3.352   6.588   4.642  0.3604 -0.0087  0.1628
   76MOL   C12343773   3.465   6.630   4.716  0.0458  0.0049  0.2669
   76MOL   C12443774   3.598   6.552   4.693  0.0599  0.1897 -0.2153
   76MOL   C12543775   3.607   6.414   4.758 -0.2521  0.8512  0.1452
   76MOL   O12643776   3.744   6.362   4.740 -0.3153 -0.9597  0.6213
   76MOL   C12743777   3.776   6.233   4.793  0.5585  0.0863  0.3915
   76MOL   O12843778   3.785   6.226   4.935 -0.1687 -0.6516  0.1689
   76MOL   C12943779   3.902   6.186   4.735  0.5633 -0.8673  0.3418
   76MOL   O13043780   3.884   6.051   4.704 -0.6042 -0.4702 -0.0072
   76MOL   H13143781   3.054   6.487   4.677  0.7102  0.7220  0.7263
   76MOL   H13243782   3.150   6.428   4.554 -2.2084 -2.7591  0.9752
   76MOL   H13343783   3.048   6.710   4.569  0.7397  0.6762  1.2573
   76MOL   H13443784   3.230   6.592   4.392  0.4105  0.1233 -1.7350
   76MOL   H13543785   3.272   6.778   4.639 -1.2905  0.5629  2.8387
   76MOL   H13643786   3.205   6.669   4.758 -0.3925 -4.0705 -0.2694
   76MOL   H13743787   3.433   6.617   4.820  2.1216 -1.2977  0.7741
   76MOL   H13843788   3.498   6.732   4.696 -2.7566  1.1887  1.3119
   76MOL   H13943789   3.675   6.608   4.745 -0.2648 -0.5148  1.0446
   76MOL   H14043790   3.615   6.550   4.585 -2.4676  0.2682 -0.6416
   76MOL   H14143791   3.580   6.412   4.863 -0.2211 -0.6806  0.1240
   76MOL   H14243792   3.535   6.344   4.717 -0.3122  0.1389  1.4781
   76MOL   H14343793   3.685   6.181   4.763 -1.4868  2.6232  2.0623
   76MOL   H14443794   3.843   6.296   4.962 -0.2550 -0.8646  0.9005
   76MOL   H14543795   3.920   6.242   4.644 -0.4823 -1.0678  0.0024
   76MOL   H14643796   3.982   6.206   4.806  0.8688  3.1044 -0.9734
   76MOL   C14743797   3.989   5.958   4.736 -1.0410 -0.0772  0.4181
   76MOL   C14843798   3.945   5.815   4.698 -1.0158 -0.0055 -0.5058
   76MOL   O14943799   4.011   5.711   4.768  0.3300 -0.2831 -0.4433
   76MOL   C15043800   3.979   5.794   4.546  0.0972  0.1106 -0.3030
   76MOL   O15143801   3.903   5.682   4.481 -0.3765  0.3247 -0.2154
   76MOL   C15243802   3.919   5.679   4.338  0.2898  0.2217  0.6486
   76MOL   C15343803   3.839   5.564   4.268  0.1653  0.8836 -0.0547
   76MOL   C15443804   3.911   5.429   4.292 -0.0638 -0.7374 -0.4736
   76MOL   O15543805   3.839   5.347   4.204  0.3036 -0.1618 -0.0683
   76MOL   C15643806   3.827   5.220   4.256  0.3669  0.1793 -0.6887
   76MOL   O15743807   3.947   5.151   4.247  0.0793  0.1834  0.2099
   76MOL   C15843808   3.726   5.143   4.175 -0.6404 -0.6996  0.6375
   76MOL   O15943809   3.686   5.036   4.257 -0.4237 -0.0678  0.4728
   76MOL   H16043810   4.013   5.969   4.842 -1.3335  0.2415  0.4525
   76MOL   H16143811   4.080   5.985   4.684  0.4387  1.6540  3.7102
   76MOL   H16243812   3.839   5.805   4.718 -1.2497  0.4405 -1.4752
   76MOL   H16343813   3.941   5.650   4.789  0.5245 -0.2243  0.3774
   76MOL   H16443814   3.944   5.887   4.501  0.1267  1.0428  1.5553
   76MOL   H16543815   4.081   5.786   4.510  0.3481 -1.6885  0.7306
   76MOL   H16643816   4.025   5.663   4.320 -0.1624 -0.8433 -1.2404
   76MOL   H16743817   3.892   5.779   4.305 -0.2870 -0.4681 -1.0290
   76MOL   H16843818   3.809   5.589   4.167  0.2202  3.2587  0.5014
   76MOL   H16943819   3.743   5.567   4.320 -0.2659  4.0818 -0.9853
   76MOL   H17043820   4.014   5.431   4.256 -0.0173 -2.3767 -0.4542
   76MOL   H17143821   3.911   5.397   4.396  2.6350  0.0654 -0.1757
   76MOL   H17243822   3.789   5.224   4.358  0.8879  1.8253 -0.5423
   76MOL   H17343823   3.918   5.062   4.262 -0.5570 -0.1194 -2.5165
   76MOL   H17443824   3.636   5.203   4.161 -0.8535 -1.0939  0.2889
   76MOL   H17543825   3.761   5.125   4.073 -1.2837 -0.5556  0.3864
   76MOL   C17643826   3.595   4.946   4.201 -0.6094 -0.1432  0.6517
   76MOL   C17743827   3.609   4.816   4.279  0.2394 -0.1081  0.3817
   76MOL   O17843828   3.590   4.843   4.413 -0.1673 -0.0401  0.4802
   76MOL   C17943829   3.742   4.754   4.264 -0.0483  0.3032  0.8507
   76MOL   O18043830   3.843   4.822   4.338 -0.1665  0.5166  0.3529
   76MOL   C18143831   3.972   4.771   4.352 -0.7872 -0.1202  0.2379
   76MOL   C18243832   4.042   4.863   4.444 -0.8644  0.3796  0.0354
   76MOL   C18343833   3.992   4.868   4.594  0.2334 -0.2674  0.3100
   76MOL   O18443834   4.077   4.954   4.670  0.7575 -0.3740  0.1683
   76MOL   C18543835   4.059   4.957   4.807 -0.1007  0.2957  0.3809
   76MOL   O18643836   3.930   5.006   4.836 -0.1836 -0.3749 -0.3587
   76MOL   C18743837   4.167   5.039   4.874  0.1100 -0.3606  0.4560
   76MOL   O18843838   4.289   4.974   4.895  0.6841  0.8719 -0.5604
   76MOL   H18943839   3.628   4.918   4.101 -2.1413 -0.6895  0.2804
   76MOL   H19043840   3.494   4.985   4.190 -1.4718 -1.9443  1.9752
   76MOL   H19143841   3.534   4.747   4.238  0.3170  0.5495 -0.8990
   76MOL   H19243842   3.668   4.888   4.442  0.2313  0.3189 -1.0707
   76MOL   H19343843   3.735   4.654   4.307 -2.9495 -0.6158 -1.6324
   76MOL   H19443844   3.771   4.748   4.159 -0.5821 -0.5154  0.7479
   76MOL   H19543845   4.018   4.777   4.253  0.2339  1.5360  0.7898
   76MOL   H19643846   3.977   4.669   4.389  0.1836 -0.3668 -0.5506
   76MOL   H19743847   4.039   4.966   4.409 -0.3102  0.0091 -1.1483
   76MOL   H19843848   4.145   4.829   4.456 -0.4645  2.2499  2.0686
   76MOL   H19943849   3.887   4.896   4.597  0.0637 -0.8331 -0.2828
   76MOL   H20043850   3.990   4.767   4.633  0.7923  0.3046  1.8592
   76MOL   H20143851   4.072   4.855   4.845  1.0360 -0.5344 -2.0739
   76MOL   H20243852   3.933   5.100   4.840 -0.8563 -0.3409 -0.5237
   76MOL   H20343853   4.189   5.131   4.820  0.8534 -0.8144 -0.0252
   76MOL   H20443854   4.128   5.060   4.973  1.2948  1.9988  0.4449
   76MOL   C20543855   4.377   5.023   4.990  0.0324  1.0686  0.1341
   76MOL   C20643856   4.516   4.952   4.979  0.0735  0.0072 -0.4543
   76MOL   O20743857   4.504   4.819   5.020  0.3803  0.1536  0.0797
   76MOL   C20843858   4.574   4.959   4.837 -0.4434  0.2569 -0.0401
   76MOL   O20943859   4.703   4.899   4.863 -0.6024 -0.2659  0.2444
   76MOL   C21043860   4.780   4.874   4.744  0.1334 -0.2007  0.1145
   76MOL   C21143861   4.928   4.864   4.787 -0.2100  0.1811 -0.0865
   76MOL   C21243862   5.017   4.819   4.667 -0.4656  0.2161 -0.0145
   76MOL   O21343863   5.151   4.814   4.709 -0.3661 -0.0294 -0.2942
   76MOL   C21443864   5.242   4.866   4.617 -0.2812 -0.3103 -0.6867
   76MOL   O21543865   5.266   4.763   4.524 -0.2507 -0.3846  0.6907
   76MOL   C21643866   5.366   4.917   4.700 -0.3237 -0.0202  0.7829
   76MOL   O21743867   5.420   5.041   4.646  0.5087 -0.2921 -0.1788
   76MOL   H21843868   4.329   5.021   5.087  1.0123 -2.7763  0.6290
   76MOL   H21943869   4.389   5.129   4.966 -2.6014  0.7659 -2.8709
   76MOL   H22043870   4.581   4.988   5.060  1.5969 -0.5636 -1.4010
   76MOL   H22143871   4.592   4.785   5.011  1.1292  2.0402  0.0494
   76MOL   H22243872   4.504   4.915   4.766  0.8890 -0.4106 -0.9505
   76MOL   H22343873   4.592   5.059   4.799  1.9502 -0.5746 -1.1781
   76MOL   H22443874   4.761   4.951   4.669 -0.3271 -0.9675 -0.5591
   76MOL   H22543875   4.736   4.781   4.708  0.6658 -0.3457 -0.1732
   76MOL   H22643876   4.939   4.787   4.863  2.0075  0.6661  0.1233
   76MOL   H22743877   4.950   4.960   4.833 -0.1014 -0.8333  2.0280
   76MOL   H22843878   4.985   4.721   4.631  0.3668 -0.2060  0.3825
   76MOL   H22943879   4.993   4.890   4.588  1.2701  0.7046 -0.1380
   76MOL   H23043880   5.192   4.944   4.561 -0.3044 -0.5422 -0.9912
   76MOL   H23143881   5.295   4.682   4.564  0.4114  0.7632  2.6294
   76MOL   H23243882   5.342   4.915   4.806  0.4141  0.7034  0.9681
   76MOL   H23343883   5.437   4.835   4.686 -1.0364 -0.2602 -1.6056
   76MOL   C23443884   5.512   5.013   4.543 -0.1542  0.5314  0.6728
   76MOL   C23543885   5.582   5.149   4.495  0.3121  0.3651 -0.2799
   76MOL   O23643886   5.643   5.123   4.365 -0.4549  0.0536  0.1415
   76MOL   C23743887   5.705   5.169   4.589 -0.9465 -0.1013  0.0073
   76MOL   O23843888   5.792   5.282   4.561 -0.0446  0.0714 -0.4777
   76MOL   C23943889   5.924   5.242   4.521  0.0525  0.2010 -0.0210
   76MOL   C24043890   6.016   5.203   4.641 -0.5385 -0.5984  0.5419
   76MOL   C24143891   6.157   5.168   4.593 -0.5353  0.3117  0.7429
   76MOL   O24243892   6.217   5.055   4.658 -0.7658 -0.4908 -0.6200
   76MOL   C24343893   6.332   5.016   4.593 -0.3669  0.1056  0.5285
   76MOL   O24443894   6.304   4.943   4.476 -0.1883 -0.0672 -0.4207
   76MOL   C24543895   6.403   4.914   4.687  0.4500 -0.2363  0.1478
   76MOL   O24643896   6.489   4.964   4.789 -0.2824 -0.7663 -0.1781
   76MOL   H24743897   5.589   4.953   4.592 -0.1568 -0.0910 -0.0779
   76MOL   H24843898   5.454   4.963   4.465  2.2808  0.3498 -1.0711
   76MOL   H24943899   5.506   5.226   4.484  1.2010  1.7644  3.0545
   76MOL   H25043900   5.715   5.185   4.369 -0.1365 -0.3342  0.6538
   76MOL   H25143901   5.668   5.173   4.692  0.2977 -1.5278  0.5244
   76MOL   H25243902   5.767   5.079   4.597 -1.2316 -0.7204 -3.7634
   76MOL   H25343903   5.974   5.326   4.472  0.3549  0.9901  1.5994
   76MOL   H25443904   5.916   5.156   4.455 -1.0265 -0.9383  1.5525
   76MOL   H25543905   5.968   5.118   4.690 -1.4766 -0.6323 -0.4236
   76MOL   H25643906   6.009   5.283   4.715  1.0649 -1.1043  1.2582
   76MOL   H25743907   6.148   5.146   4.487 -0.8020 -0.7540  0.9905
   76MOL   H25843908   6.221   5.256   4.603 -0.2787  0.4740 -2.1017
   76MOL   H25943909   6.406   5.093   4.571  0.2920 -0.4237  0.8478
   76MOL   H26043910   6.231   4.884   4.487 -0.8913  1.2516  2.3271
   76MOL   H26143911   6.332   4.850   4.739 -1.0674  1.5067  0.2511
   76MOL   H26243912   6.460   4.847   4.623 -1.2323 -1.1266 -0.4472
   76MOL   C26343913   6.573   5.078   4.764  0.2764 -0.1893 -0.2748
   76MOL   C26443914   6.644   5.105   4.891 -0.0675  0.5394 -0.9785
   76MOL   O26543915   6.760   5.027   4.918 -0.4893 -0.2135  0.1975
   76MOL   C26643916   6.699   5.254   4.892  0.3593 -0.3513  0.1800
   76MOL   O26743917   6.581   5.333   4.914 -0.5944  0.2943  0.9713
   76MOL   C26843918   6.627   5.470   4.933  0.0451  0.1166  0.6221
   76MOL   C26943919   6.507   5.562   4.944 -0.4287 -0.4731 -0.1403
   76MOL   C27043920   6.453   5.595   5.084 -0.0512  0.8721  0.1019
   76MOL   O27143921   6.325   5.654   5.063  0.0902  0.2510 -0.1226
   76MOL   C27243922   6.264   5.716   5.163 -0.4690  0.4980  0.6600
   76MOL   O27343923   6.166   5.811   5.116 -0.1358 -0.1062  0.1024
   76MOL   C27443924   6.207   5.613   5.268 -0.3972 -0.0243  0.3783
   76MOL   O27543925   6.296   5.608   5.378  0.3715 -0.0880  0.0369
   76MOL   H27643926   6.513   5.167   4.741 -0.2941 -0.3692  0.5224
   76MOL   H27743927   6.642   5.063   4.680  0.4542 -0.2188 -0.1242
   76MOL   H27843928   6.578   5.083   4.975  0.6973 -0.2047 -0.5649
   76MOL   H27943929   6.732   4.938   4.906  2.4623 -1.0789 -0.7896
   76MOL   H28043930   6.775   5.268   4.969  1.3246 -0.5422 -0.7371
   76MOL   H28143931   6.749   5.275   4.798 -1.4656  2.1325 -0.2785
   76MOL   H28243932   6.706   5.503   4.866 -2.1214  1.2120 -1.4616
   76MOL   H28343933   6.668   5.474   5.034 -1.5909 -0.1943  1.3303
   76MOL   H28443934   6.434   5.514   4.879  0.2493 -0.1673 -1.1417
   76MOL   H28543935   6.533   5.660   4.906  0.4514 -0.8456 -0.5125
   76MOL   H28643936   6.439   5.502   5.139 -3.0861  1.5107  0.5320
   76MOL   H28743937   6.529   5.655   5.133  1.1165  0.4642 -1.1563
   76MOL   H28843938   6.338   5.780   5.211 -0.3607 -0.2666  1.5230
   76MOL   H28943939   6.215   5.881   5.075  1.6602  0.3666  2.9108
   76MOL   H29043940   6.102   5.621   5.297 -1.0670 -0.6411 -1.7601
   76MOL   H29143941   6.210   5.516   5.219  2.5940  0.1043  0.1884
   76MOL   C29243942   6.245   5.525   5.477  0.2215 -0.3250  0.0564
   76MOL   C29343943   6.339   5.533   5.602 -0.8556  0.2315  0.3320
   76MOL   O29443944   6.291   5.637   5.684  0.0863 -0.1580  0.3174
   76MOL   C29543945   6.329   5.405   5.683 -0.4907  0.3101  0.1868
   76MOL   O29643946   6.423   5.307   5.637  0.5450 -0.0402  1.6379
   76MOL   C29743947   6.401   5.178   5.692  0.2609  0.4637  0.2204
   76MOL   C29843948   6.492   5.066   5.642 -0.4003  0.4008 -0.7132
   76MOL   C29943949   6.451   4.939   5.720 -0.2856  0.8589 -0.5635
   76MOL   O30043950   6.322   4.896   5.688 -0.0368  0.2709 -0.4033
   76MOL   C30143951   6.302   4.770   5.744 -0.2849 -0.0066 -0.5622
   76MOL   O30243952   6.282   4.768   5.883  0.5934 -0.7425  0.1802
   76MOL   C30343953   6.185   4.698   5.675 -0.5836  0.2146 -0.2631
   76MOL   O30443954   6.226   4.676   5.540  0.4453 -0.1821 -0.3559
   76MOL   H30543955   6.139   5.534   5.498 -0.3978 -1.8417 -2.2235
   76MOL   H30643956   6.246   5.426   5.432 -0.4928 -0.2187 -0.2054
   76MOL   H30743957   6.439   5.547   5.560 -1.1248  4.0840  0.7283
   76MOL   H30843958   6.265   5.707   5.626 -0.2343  0.5007  1.2491
   76MOL   H30943959   6.365   5.437   5.781 -0.4885 -0.7135  0.5239
   76MOL   H31043960   6.231   5.360   5.693  0.6496 -2.5097 -0.8489
   76MOL   H31143961   6.300   5.141   5.679  0.6468 -0.6201  0.2507
   76MOL   H31243962   6.413   5.197   5.798 -3.5952  1.0164  0.6349
   76MOL   H31343963   6.593   5.095   5.671  0.1160 -0.9736 -1.0910
   76MOL   H31443964   6.475   5.053   5.535  0.7252  0.1566 -0.8697
   76MOL   H31543965   6.525   4.867   5.686 -1.2313  0.4421 -1.7786
   76MOL   H31643966   6.450   4.959   5.827 -1.8425 -0.9250 -0.2194
   76MOL   H31743967   6.390   4.708   5.731 -1.0104 -1.1269 -0.1898
   76MOL   H31843968   6.326   4.697   5.928  1.1128 -0.5854 -0.0692
   76MOL   H31943969   6.098   4.763   5.676 -3.0546 -2.9864 -1.1487
   76MOL   H32043970   6.175   4.603   5.728 -2.4054  1.1604  1.1399
   76MOL   C32143971   6.135   4.598   5.470  0.4758 -0.1350  0.2506
   76MOL   C32243972   6.176   4.589   5.319  1.1826  1.0197  0.0776
   76MOL   O32343973   6.110   4.469   5.281 -0.3868 -0.2184  1.0348
   76MOL   C32443974   6.137   4.709   5.233 -0.0107 -0.4614 -0.0709
   76MOL   O32543975   6.187   4.694   5.097 -0.1181 -0.2380 -0.6075
   76MOL   C32643976   6.136   4.786   5.003 -0.2444  0.6424  0.5360
   76MOL   C32743977   6.087   4.711   4.878  0.4856  0.4272 -0.0625
   76MOL   C32843978   6.004   4.801   4.788 -0.6579  0.0088 -0.8327
   76MOL   O32943979   5.956   4.718   4.685 -0.8235 -0.3319 -0.6082
   76MOL   C33043980   5.913   4.784   4.571  0.1980 -0.1259  0.2750
   76MOL   O33143981   6.011   4.835   4.488 -0.1831  0.1341  0.6079
   76MOL   C33243982   5.806   4.700   4.497 -1.2218 -0.1755  0.0521
   76MOL   O33343983   5.827   4.561   4.523  0.2826  0.7813 -0.4554
   76MOL   H33443984   6.032   4.632   5.486  0.3470 -0.0966 -0.6166
   76MOL   H33543985   6.149   4.499   5.512  1.1646 -0.1049  0.1052
   76MOL   H33643986   6.282   4.570   5.309  1.0399  0.7972 -1.0275
   76MOL   H33743987   6.021   4.493   5.302 -0.5874 -0.5444  0.5444
   76MOL   H33843988   6.181   4.797   5.280 -1.6968  0.2111  0.2875
   76MOL   H33943989   6.029   4.721   5.241 -0.1484  0.2490 -2.4848
   76MOL   H34043990   6.221   4.850   4.981  0.4786 -0.8865 -1.2177
   76MOL   H34143991   6.057   4.848   5.047 -0.6204 -1.6954  3.3184
   76MOL   H34243992   6.166   4.650   4.835  1.3335 -0.2046  2.3570
   76MOL   H34343993   6.021   4.634   4.919  0.6502  0.3938  0.1352
   76MOL   H34443994   5.921   4.849   4.838 -1.0824 -1.2815 -0.2851
   76MOL   H34543995   6.069   4.881   4.753 -0.5632  0.5858  0.6395
   76MOL   H34643996   5.853   4.872   4.595 -0.4772 -0.3842 -0.4562
   76MOL   H34743997   6.073   4.772   4.454 -0.0719  0.5448  0.0480
   76MOL   H34843998   5.711   4.720   4.546 -1.5595 -2.5593  0.4164
   76MOL   H34943999   5.790   4.728   4.393 -2.1981 -1.3715 -0.1308
   76MOL   C35044000   5.906   4.505   4.428  0.1393  0.4676  0.2548
   76MOL   C35144001   5.980   4.385   4.483  0.4822  0.5486 -0.1105
   76MOL   O35244002   6.052   4.421   4.599 -0.2929 -0.4099 -0.2588
   76MOL   C35344003   5.883   4.272   4.514 -0.6314 -0.3500 -0.0335
   76MOL   O35444004   5.923   4.148   4.447 -0.1309 -0.5555  0.2025
   76MOL   C35544005   6.048   4.086   4.498  0.3773  0.3070  0.4083
   76MOL   C35644006   6.103   3.959   4.432  0.1263 -0.7268  0.3388
   76MOL   C35744007   6.225   3.897   4.504  1.0776 -0.6699 -0.7806
   76MOL   O35844008   6.325   3.996   4.490 -0.8562 -0.9507  1.2496
   76MOL   C35944009   6.438   3.979   4.575  0.1134  0.0448  0.8364
   76MOL   O36044010   6.507   3.861   4.548  0.2288 -0.5586  0.3347
   76MOL   C36144011   6.529   4.095   4.535 -0.1798 -0.2467  0.1105
   76MOL   O36244012   6.522   4.199   4.633 -0.5693 -0.0446  0.3187
   76MOL   H36344013   5.972   4.575   4.376  1.1458 -2.4840 -2.6486
   76MOL   H36444014   5.841   4.463   4.351 -0.2387  1.0993  0.2359
   76MOL   H36544015   6.043   4.346   4.403 -0.3545 -2.7345  0.7582
   76MOL   H36644016   5.989   4.463   4.655  1.1208  0.3713  0.7826
   76MOL   H36744017   5.866   4.262   4.621 -0.7822  0.0291 -0.0221
   76MOL   H36844018   5.780   4.296   4.487 -1.0469  2.3405  3.5003
   76MOL   H36944019   6.011   4.060   4.597  3.1690 -1.2771  1.0906
   76MOL   H37044020   6.125   4.159   4.525  0.4011  0.9232 -1.2786
   76MOL   H37144021   6.126   3.994   4.332 -0.8010  2.1394  1.0725
   76MOL   H37244022   6.029   3.879   4.429 -1.4033  0.7264 -0.7409
   76MOL   H37344023   6.204   3.885   4.610 -0.3842 -1.3969 -1.1401
   76MOL   H37444024   6.254   3.798   4.471  1.9064 -0.8540  0.4546
   76MOL   H37544025   6.416   3.989   4.682  0.2590  0.3481  0.8380
   76MOL   H37644026   6.568   3.880   4.479  0.9301 -1.9614  0.5415
   76MOL   H37744027   6.633   4.064   4.527  0.0656  0.5636  0.0569
   76MOL   H37844028   6.518   4.132   4.433  1.9336 -1.3770 -0.5627
   76MOL   C37944029   6.435   4.300   4.604  0.1793  0.5078  0.5505
   76MOL   C38044030   6.426   4.416   4.703 -0.1596 -0.0339  0.0647
   76MOL   O38144031   6.314   4.497   4.666 -0.3058  0.2066 -0.4136
   76MOL   C38244032   6.396   4.364   4.845  0.5677 -0.1031 -0.2825
   76MOL   O38344033   6.274   4.292   4.850  0.5700  1.0516  0.0797
   76MOL   C38444034   6.199   4.329   4.967  0.0182 -0.0204  0.0611
   76MOL   C38544035   6.058   4.266   4.946  0.1392  0.5250 -0.1813
   76MOL   C38644036   6.067   4.111   4.923 -0.1146  0.4723  0.9072
   76MOL   O38744037   6.102   4.036   5.042 -0.0934 -0.2228 -0.9919
   76MOL   C38844038   6.117   3.900   5.028 -0.8893  0.2326 -0.5639
   76MOL   O38944039   6.245   3.876   4.979 -0.1009 -0.2531  0.2166
   76MOL   C39044040   6.095   3.836   5.161 -0.3071 -0.1441 -0.0725
   76MOL   O39144041   5.975   3.758   5.154 -0.2482 -0.6065 -0.0970
   76MOL   H39244042   6.334   4.261   4.591  0.1952 -0.0583  2.0609
   76MOL   H39344043   6.451   4.341   4.504  3.9462 -0.7001  0.5852
   76MOL   H39444044   6.513   4.481   4.695 -0.4445  0.4843  1.0600
   76MOL   H39544045   6.240   4.438   4.666 -0.7865  0.5792  4.7568
   76MOL   H39644046   6.473   4.301   4.891 -0.6776 -2.2733 -1.0713
   76MOL   H39744047   6.390   4.458   4.899 -0.9927 -0.1805 -0.2966
   76MOL   H39844048   6.184   4.436   4.984 -0.3217 -0.1227  0.4041
   76MOL   H39944049   6.249   4.286   5.053  2.1580 -0.6260 -1.4441
   76MOL   H40044050   6.012   4.299   4.852 -1.5784  0.9530  0.7746
   76MOL   H40144051   5.990   4.277   5.031  0.7771  0.6235  0.3140
   76MOL   H40244052   5.966   4.082   4.898  0.6781 -1.6626  0.1271
   76MOL   H40344053   6.133   4.096   4.838 -0.4768  2.8846  0.1477
   76MOL   H40444054   6.049   3.860   4.954 -0.0454  1.1987 -1.8760
   76MOL   H40544055   6.307   3.924   5.032  0.2886  3.0675 -3.0238
   76MOL   H40644056   6.181   3.783   5.200 -0.9241  0.2939  1.9489
   76MOL   H40744057   6.082   3.907   5.243  2.4495  0.4433 -0.0854
   76MOL   C40844058   5.856   3.828   5.143  0.1233 -0.4412  0.4026
   76MOL   C40944059   5.755   3.731   5.099 -0.2661  0.2241  0.3265
   76MOL   O41044060   5.739   3.629   5.193  0.5396  0.1877 -0.2792
   76MOL   C41144061   5.783   3.664   4.963 -0.7410 -0.1452  0.4858
   76MOL   O41244062   5.669   3.671   4.878  0.2827  0.0391  0.2497
   76MOL   C41344063   5.572   3.575   4.903 -0.1655 -0.2403  0.2295
   76MOL   C41444064   5.490   3.554   4.775 -0.6297  0.2522 -0.0853
   76MOL   C41544065   5.562   3.481   4.661  0.0310 -0.0152  0.6051
   76MOL   O41644066   5.466   3.447   4.561 -0.1330  0.8079  0.2172
   76MOL   C41744067   5.534   3.378   4.457 -0.2551 -0.2139  0.0318
   76MOL   O41844068   5.608   3.468   4.377  0.0514 -0.5258  0.1525
   76MOL   C41944069   5.426   3.313   4.373 -0.0215  0.4204 -0.3928
   76MOL   O42044070   5.379   3.198   4.433  0.0327  0.4928 -0.3334
   76MOL   H42144071   5.853   3.901   5.063 -1.5254  0.7378  1.4868
   76MOL   H42244072   5.824   3.880   5.234 -2.1694  2.9276 -2.2086
   76MOL   H42344073   5.658   3.775   5.078  0.6938  2.6280  0.7238
   76MOL   H42444074   5.827   3.606   5.219 -0.2239 -0.5658  1.7896
   76MOL   H42544075   5.856   3.733   4.921 -0.4641 -1.3553 -1.0521
   76MOL   H42644076   5.831   3.566   4.962 -1.7750 -0.7212  2.5858
   76MOL   H42744077   5.618   3.481   4.932  2.9592  0.7339 -1.4226
   76MOL   H42844078   5.507   3.613   4.982 -0.3796 -2.2726  1.0607
   76MOL   H42944079   5.463   3.653   4.738 -0.3893  0.4059  0.1489
   76MOL   H43044080   5.398   3.502   4.800 -0.3295 -0.2528 -0.0348
   76MOL   H43144081   5.647   3.545   4.633  0.4428 -0.9701 -0.3456
   76MOL   H43244082   5.611   3.387   4.687  0.1198 -0.1396  0.0058
   76MOL   H43344083   5.590   3.289   4.487  0.4166  0.4863  0.8652
   76MOL   H43444084   5.661   3.416   4.319  2.1196  1.4191  0.2181
   76MOL   H43544085   5.342   3.379   4.352  0.2204 -0.4131 -4.1824
   76MOL   H43644086   5.473   3.285   4.279 -1.1053 -0.4313 -0.6950
   76MOL   C43744087   5.297   3.121   4.355 -0.6150  0.4106 -0.0898
   76MOL   C43844088   5.249   2.992   4.424  0.1996  0.0876  0.4749
   76MOL   O43944089   5.354   2.904   4.445 -0.1423 -0.2983  0.1790
   76MOL   C44044090   5.143   2.918   4.347  0.7008 -0.0739 -0.4144
   76MOL   O44144091   5.191   2.845   4.229  0.4915  0.3065 -0.4644
   76MOL   C44244092   5.108   2.744   4.179 -0.0524  0.6880  0.2462
   76MOL   C44344093   5.166   2.688   4.048  0.1058  0.4809 -0.0127
   76MOL   C44444094   5.096   2.553   4.005 -0.2242  0.5888 -0.3381
   76MOL   O44544095   5.142   2.499   3.878  0.1978 -0.1006 -0.0627
   76MOL   C44644096   5.066   2.413   3.810  0.5041  0.2710  0.7911
   76MOL   O44744097   5.028   2.307   3.889  0.7844  0.0166 -0.0034
   76MOL   C44844098   5.144   2.358   3.688 -0.2151  0.3706 -0.0925
   76MOL   O44944099   5.057   2.343   3.582  0.0007  0.3394 -0.5112
   76MOL   H45044100   5.208   3.177   4.327 -0.4043  0.4849 -0.6098
   76MOL   H45144101   5.355   3.083   4.272 -0.3951 -1.1392  0.7549
   76MOL   H45244102   5.203   3.020   4.519  1.5068 -1.1672  1.5120
   76MOL   H45344103   5.382   2.865   4.363  0.3704 -0.1588  0.2890
   76MOL   H45444104   5.092   2.852   4.417  0.8902 -0.4797 -0.6630
   76MOL   H45544105   5.069   2.992   4.316 -0.3006 -0.8216  0.1798
   76MOL   H45644106   5.009   2.787   4.163 -0.3530  0.1180  0.5469
   76MOL   H45744107   5.098   2.668   4.256  0.4778  1.8754  1.5063
   76MOL   H45844108   5.275   2.679   4.055  0.4111  1.5327 -2.6982
   76MOL   H45944109   5.145   2.750   3.961  0.7940 -0.2340 -0.7035
   76MOL   H46044110   5.116   2.468   4.071 -0.3259  1.1033  0.3632
   76MOL   H46144111   4.988   2.552   3.993 -0.6665 -1.7285  2.9355
   76MOL   H46244112   4.977   2.464   3.773 -0.9418 -1.8337  1.2481
   76MOL   H46344113   5.079   2.229   3.875 -0.7719 -1.7255  3.3779
   76MOL   H46444114   5.215   2.438   3.665 -0.6946  0.7415 -0.3186
   76MOL   H46544115   5.194   2.265   3.711  0.9478  0.8072 -0.8178
   76MOL   C46644116   5.117   2.309   3.462 -1.1336  0.6426  0.0152
   76MOL   C46744117   5.012   2.253   3.369  0.1703  0.2538  0.1109
   76MOL   O46844118   4.912   2.354   3.352  0.0723 -0.2719 -0.2142
   76MOL   C46944119   5.077   2.214   3.236 -0.0346  0.3610 -0.1040
   76MOL   O47044120   5.183   2.125   3.262 -0.3624 -0.2724 -0.3383
   76MOL   C47144121   5.276   2.118   3.155  0.6484  0.3103 -0.5597
   76MOL   C47244122   5.369   2.237   3.145 -0.2227  0.3129 -0.6488
   76MOL   C47344123   5.496   2.203   3.066 -0.2948 -0.2247 -0.0871
   76MOL   O47444124   5.441   2.178   2.935 -0.4885 -0.1346 -0.3729
   76MOL   C47544125   5.459   2.055   2.895  0.7040  0.2597  0.3644
   76MOL   O47644126   5.592   2.041   2.850  0.5386  0.0896 -0.1288
   76MOL   C47744127   5.370   2.014   2.773 -0.7600 -0.0908  0.2539
   76MOL   O47844128   5.244   2.002   2.814 -0.4252 -0.1472 -0.2261
   76MOL   H47944129   5.205   2.247   3.476 -1.3873  0.1049 -0.7544
   76MOL   H48044130   5.154   2.403   3.421  0.1168 -0.8995 -2.4992
   76MOL   H48144131   4.971   2.164   3.415  2.8465 -0.1717  1.7925
   76MOL   H48244132   4.871   2.354   3.437  0.4617  0.9132 -0.0166
   76MOL   H48344133   5.008   2.153   3.178  0.0269 -0.9477  1.1415
   76MOL   H48444134   5.102   2.299   3.173  0.7088 -0.0493 -0.3646
   76MOL   H48544135   5.216   2.104   3.065 -1.4005  0.2796  0.7760
   76MOL   H48644136   5.331   2.027   3.177  1.0491  0.8176  0.6015
   76MOL   H48744137   5.398   2.269   3.245  0.7700  1.6239 -1.3342
   76MOL   H48844138   5.306   2.315   3.103 -1.7420  0.1712  1.3093
   76MOL   H48944139   5.566   2.287   3.068 -0.2542 -0.2675  0.3596
   76MOL   H49044140   5.549   2.120   3.114 -0.8038 -0.4420  0.0944
   76MOL   H49144141   5.446   1.984   2.976  0.9708 -0.2341 -0.0162
   76MOL   H49244142   5.595   1.972   2.785  1.7312  0.3770 -0.4098
   76MOL   H49344143   5.389   2.076   2.685  1.9111 -0.0017  0.8720
   76MOL   H49444144   5.405   1.916   2.740 -0.6104 -0.0818  0.3842
   76MOL   C49544145   5.153   1.953   2.722 -0.1399  0.0582  0.0443
   76MOL   C49644146   5.011   1.987   2.767  0.2531 -0.1808 -0.1891
   76MOL   O49744147   4.916   1.956   2.661  0.3866  0.2655  0.2340
   76MOL   C49844148   4.958   1.901   2.888  0.0506  0.3099 -0.5482
   76MOL   O49944149   4.872   1.980   2.975  0.4287  0.3780 -0.2975
   76MOL   C50044150   4.818   1.904   3.080 -0.4652 -0.6653 -0.3804
   76MOL   C50144151   4.671   1.953   3.103  0.3461  0.0411 -0.3403
   76MOL   C50244152   4.574   1.901   2.998  0.6105 -0.3227  0.1594
   76MOL   O50344153   4.515   1.775   3.024 -0.0315 -0.0742 -0.2071
   76MOL   C50444154   4.412   1.738   2.937  0.0312 -0.4000  0.5772
   76MOL   O50544155   4.297   1.811   2.968  0.5925 -0.4651 -0.3662
   76MOL   C50644156   4.391   1.582   2.937  0.3267  0.7106  0.3378
   76MOL   O50744157   4.488   1.522   2.854  0.0606  0.1072 -0.7322
   76MOL   H50844158   5.159   1.845   2.710 -1.3549 -0.0668  0.4331
   76MOL   H50944159   5.163   1.990   2.620 -0.5464  1.6830  0.5738
   76MOL   H51044160   4.992   2.093   2.780 -2.2482 -0.4256 -1.3341
   76MOL   H51144161   4.838   2.004   2.685 -0.0091 -1.3615  2.3179
   76MOL   H51244162   4.900   1.815   2.855  0.1106 -0.1951  0.6180
   76MOL   H51344163   5.038   1.853   2.945 -0.8866 -0.6238  0.0130
   76MOL   H51444164   4.884   1.923   3.165  0.5238 -2.4737 -0.7053
   76MOL   H51544165   4.815   1.799   3.050  0.2275 -0.5160 -0.9868
   76MOL   H51644166   4.671   2.062   3.108  0.1285  0.0323 -0.1555
   76MOL   H51744167   4.633   1.917   3.198 -0.2355 -2.2366 -1.3917
   76MOL   H51844168   4.498   1.979   2.997 -0.2873 -1.1690  1.9299
   76MOL   H51944169   4.625   1.902   2.902 -2.0604  0.3561 -1.3109
   76MOL   H52044170   4.433   1.769   2.835 -1.8201  0.5551  0.4759
   76MOL   H52144171   4.289   1.800   3.061 -2.1667 -2.3221 -0.7421
   76MOL   H52244172   4.398   1.540   3.038 -0.0968  1.0493  0.5091
   76MOL   H52344173   4.294   1.550   2.897 -0.6899  0.8176  2.6218
   76MOL   C52444174   4.617   1.525   2.914  0.2712  0.0109  0.5728
   76MOL   C52544175   4.684   1.398   2.871  0.9674  0.8280 -0.3179
   76MOL   O52644176   4.615   1.280   2.912 -0.0246 -0.9256  0.0340
   76MOL   C52744177   4.829   1.394   2.916  0.0977  0.0395 -0.9553
   76MOL   O52844178   4.897   1.309   2.825 -0.0365 -0.4639  0.0856
   76MOL   C52944179   5.039   1.339   2.830 -0.7092  0.4083 -0.8598
   76MOL   C53044180   5.109   1.275   2.705  0.1421 -0.7821 -0.0488
   76MOL   C53144181   5.253   1.317   2.674  0.0475 -0.0229  0.2456
   76MOL   O53244182   5.265   1.446   2.610 -0.5081  0.6960  0.6225
   76MOL   C53344183   5.393   1.491   2.604  0.9370 -0.2448  0.5132
   76MOL   O53444184   5.474   1.395   2.541  0.3102  0.5844 -0.3406
   76MOL   C53544185   5.395   1.614   2.516 -0.1783  0.3943 -0.3572
   76MOL   O53644186   5.516   1.690   2.543 -0.1623  0.5020 -0.3946
   76MOL   H53744187   4.621   1.529   3.023  2.9635  2.1634  0.4612
   76MOL   H53844188   4.674   1.596   2.853 -0.6996  1.4803  1.3482
   76MOL   H53944189   4.700   1.392   2.763  0.6160 -0.3882 -0.3169
   76MOL   H54044190   4.539   1.274   2.856  0.8914 -1.0985 -1.2256
   76MOL   H54144191   4.872   1.494   2.918  0.7132 -0.2285 -0.8739
   76MOL   H54244192   4.836   1.366   3.021 -0.5263  1.4092 -0.5353
   76MOL   H54344193   5.080   1.304   2.925  2.1498  0.5619 -1.9775
   76MOL   H54444194   5.046   1.447   2.822 -1.1902  0.4734 -0.4564
   76MOL   H54544195   5.050   1.303   2.617  0.6719 -1.5206 -0.6486
   76MOL   H54644196   5.112   1.166   2.713  0.3312 -0.7287  0.5703
   76MOL   H54744197   5.311   1.320   2.766 -1.7755 -1.0051  1.4622
   76MOL   H54844198   5.295   1.237   2.612 -0.6513 -0.7671  0.7190
   76MOL   H54944199   5.434   1.518   2.701 -0.3866 -0.2933  1.1023
   76MOL   H55044200   5.566   1.415   2.548  0.3138  0.7589 -0.9015
   76MOL   H55144201   5.399   1.596   2.408 -0.3973 -0.1051 -0.2829
   76MOL   H55244202   5.309   1.679   2.530  0.8393  1.5679  0.5623
   76MOL   C55344203   5.526   1.810   2.460 -0.2514  0.1413 -0.6625
   76MOL   C55444204   5.653   1.886   2.510 -0.1910  0.0060 -0.4946
   76MOL   O55544205   5.657   1.868   2.651  0.6889 -0.4168  0.0949
   76MOL   C55644206   5.642   2.037   2.481 -0.1277 -0.5922  0.0087
   76MOL   O55744207   5.648   2.067   2.346 -0.5535  0.0249 -0.1910
   76MOL   C55844208   5.603   2.197   2.314  0.5525 -0.1812 -0.5957
   76MOL   C55944209   5.621   2.229   2.168 -0.5017  0.1109  0.0266
   76MOL   C56044210   5.539   2.139   2.085  0.4610  0.4722  0.0466
   76MOL   O56144211   5.547   2.176   1.943 -0.1195  0.2531  0.1971
   76MOL   C56244212   5.482   2.095   1.852 -0.1377 -0.1503  0.4482
   76MOL   O56344213   5.342   2.119   1.864 -0.3467 -0.2552  0.7113
   76MOL   C56444214   5.520   2.151   1.713 -0.3162 -0.2065  0.5538
   76MOL   O56544215   5.470   2.281   1.707  0.1125  0.2087  0.3563
   76MOL   H56644216   5.431   1.862   2.478 -0.5446 -0.6967  0.2714
   76MOL   H56744217   5.539   1.782   2.355  2.4162 -2.3807  0.2794
   76MOL   H56844218   5.737   1.838   2.461 -1.1240 -0.9156 -1.1886
   76MOL   H56944219   5.639   1.777   2.667  1.1594 -0.3573  1.0166
   76MOL   H57044220   5.548   2.068   2.525 -0.3531 -1.4950  0.1692
   76MOL   H57144221   5.712   2.101   2.534 -0.9290  0.2701  0.0228
   76MOL   H57244222   5.497   2.193   2.338  0.3470 -0.8859 -1.5910
   76MOL   H57344223   5.645   2.276   2.377 -2.5047  0.3362  0.8887
   76MOL   H57444224   5.728   2.223   2.150 -0.9317 -1.4863 -2.1537
   76MOL   H57544225   5.587   2.331   2.150 -0.0819  0.2583  0.0588
   76MOL   H57644226   5.562   2.034   2.102 -1.6283 -0.0120  0.0507
   76MOL   H57744227   5.435   2.141   2.117  0.1849 -0.6255 -0.7542
   76MOL   H57844228   5.504   1.988   1.859  2.7761  0.2659 -1.6881
   76MOL   H57944229   5.320   2.197   1.816  0.3719  0.2043  1.1167
   76MOL   H58044230   5.628   2.147   1.697 -0.3081 -1.9160  0.9083
   76MOL   H58144231   5.483   2.077   1.642 -0.1117  0.1297  0.0946
   76MOL   H58244232   5.485   2.320   1.791  0.7660  0.1296  0.2774
   77MOL     C144233   2.652   2.207   3.557 -0.2719  0.0701  0.5349
   77MOL     C244234   2.667   2.360   3.593  0.2551 -1.1435 -0.1475
   77MOL     O344235   2.549   2.391   3.670  0.1631  0.2006  0.2527
   77MOL     C444236   2.796   2.396   3.673  0.0867 -0.6727  0.6912
   77MOL     O544237   2.825   2.534   3.646 -0.0355 -0.4710 -0.5730
   77MOL     C644238   2.930   2.588   3.724 -0.1764 -0.6709  0.0656
   77MOL     C744239   2.946   2.724   3.657 -0.4621 -0.4017  0.0932
   77MOL     C844240   3.041   2.821   3.735 -0.2612  0.1220  0.3369
   77MOL     O944241   3.165   2.827   3.667  0.3969 -0.6853  0.0667
   77MOL    C1044242   3.260   2.906   3.736 -0.2226  0.4442 -0.1340
   77MOL    O1144243   3.221   3.039   3.745  0.2589  0.3462  0.2539
   77MOL    C1244244   3.392   2.894   3.663 -0.2681 -0.1841  0.0188
   77MOL    O1344245   3.461   2.783   3.720 -0.1564  0.4514 -0.1806
   77MOL    H1444246   2.648   2.144   3.645 -0.3584  0.7340  1.0116
   77MOL    H1544247   2.743   2.162   3.517 -0.0681  1.0344 -0.1044
   77MOL    H1644248   2.653   2.420   3.503 -1.4078  0.8284  1.3758
   77MOL    H1744249   2.544   2.485   3.665 -0.8133  0.1657  0.4196
   77MOL    H1844250   2.785   2.380   3.780 -2.7976 -0.5877  0.4443
   77MOL    H1944251   2.878   2.331   3.644 -0.1377 -1.1394  1.1003
   77MOL    H2044252   3.020   2.528   3.726  0.0955 -0.2645  0.2345
   77MOL    H2144253   2.897   2.596   3.828  0.7607 -0.4091  0.3493
   77MOL    H2244254   2.848   2.774   3.657 -1.5515 -2.4856 -1.2645
   77MOL    H2344255   2.973   2.716   3.552 -2.0119  2.1062 -0.5455
   77MOL    H2444256   2.995   2.920   3.724 -0.2105  0.0912 -0.1520
   77MOL    H2544257   3.041   2.797   3.841 -1.7805  0.1738  0.3586
   77MOL    H2644258   3.265   2.879   3.842  0.3150  0.4864 -0.1455
   77MOL    H2744259   3.220   3.074   3.657 -1.6948  0.0896  0.1516
   77MOL    H2844260   3.380   2.896   3.554 -0.9256 -0.3282  0.0825
   77MOL    H2944261   3.458   2.975   3.692 -0.5324 -0.1125  0.4246
   77MOL    H3044262   2.564   2.188   3.495 -0.2892 -0.9950  0.8734
   77MOL    C3144263   3.497   2.686   3.633  0.1436  0.9289 -0.4818
   77MOL    C3244264   3.397   2.566   3.597 -1.2551 -0.7061 -0.5836
   77MOL    O3344265   3.302   2.615   3.505 -0.4316  0.1891 -0.2993
   77MOL    C3444266   3.342   2.490   3.717 -0.0587 -0.0330  0.3839
   77MOL    O3544267   3.297   2.570   3.824 -0.0203  0.2654 -0.0511
   77MOL    C3644268   3.254   2.501   3.939 -0.0548 -0.4618 -0.2698
   77MOL    C3744269   3.215   2.610   4.034 -0.3603 -0.0133  0.0655
   77MOL    C3844270   3.150   2.556   4.165  0.3757 -0.4068  0.0299
   77MOL    O3944271   3.245   2.484   4.234  0.1959 -0.9238 -0.1139
   77MOL    C4044272   3.203   2.438   4.358 -0.4636  0.1290  0.1000
   77MOL    O4144273   3.160   2.540   4.442  0.2812 -0.4587 -0.4138
   77MOL    C4244274   3.313   2.345   4.412  0.3787  1.0044  0.6599
   77MOL    O4344275   3.283   2.208   4.418 -0.3720  0.1840  0.3505
   77MOL    H4444276   3.547   2.724   3.544  0.6819 -1.9967 -1.4743
   77MOL    H4544277   3.582   2.635   3.678 -0.4504  0.5046  0.1738
   77MOL    H4644278   3.457   2.493   3.542  0.8777  2.4921 -2.7385
   77MOL    H4744279   3.258   2.685   3.551  2.2279  2.1750 -0.6310
   77MOL    H4844280   3.271   2.411   3.689  1.8318 -2.0717  1.2405
   77MOL    H4944281   3.422   2.428   3.757  0.5880  1.0976  0.8454
   77MOL    H5044282   3.332   2.437   3.980 -1.0037 -0.4396  1.6218
   77MOL    H5144283   3.167   2.440   3.915 -0.3227  0.3598 -1.3886
   77MOL    H5244284   3.132   2.670   3.997  0.8203  1.7802  0.2745
   77MOL    H5344285   3.303   2.672   4.050  1.4642 -2.3731 -0.4402
   77MOL    H5444286   3.113   2.642   4.221 -0.4271  0.0913 -1.2476
   77MOL    H5544287   3.061   2.497   4.142  0.8423 -1.1132  0.0299
   77MOL    H5644288   3.107   2.391   4.334 -0.9245  0.7272  0.7737
   77MOL    H5744289   3.238   2.586   4.468  0.0093 -1.1868  1.7733
   77MOL    H5844290   3.407   2.368   4.362 -1.0655 -0.4390 -2.8917
   77MOL    H5944291   3.323   2.364   4.519  2.3162  0.2712  0.6203
   77MOL    C6044292   3.288   2.145   4.287  0.2926 -0.4362 -0.5550
   77MOL    C6144293   3.252   1.996   4.283 -0.0488 -0.0194  0.0724
   77MOL    O6244294   3.111   1.979   4.295 -0.1731 -0.7835 -0.3735
   77MOL    C6344295   3.327   1.907   4.387  0.2897  0.2157 -0.0272
   77MOL    O6444296   3.463   1.889   4.352 -0.1330  0.5271  0.3107
   77MOL    C6544297   3.529   1.814   4.445 -0.0576  0.2745 -1.0202
   77MOL    C6644298   3.674   1.822   4.398  0.0813 -0.0523  0.0088
   77MOL    C6744299   3.782   1.803   4.501 -0.2323  0.2091  0.3161
   77MOL    O6844300   3.804   1.670   4.526  0.7260  0.7080  0.1186
   77MOL    C6944301   3.869   1.601   4.420 -0.5016  0.7097 -0.2953
   77MOL    O7044302   4.005   1.644   4.414  0.2457 -0.3056 -0.5744
   77MOL    C7144303   3.872   1.446   4.456 -0.7338  0.2446 -0.3267
   77MOL    O7244304   3.945   1.378   4.358 -0.2588 -0.6138  0.0263
   77MOL    H7344305   3.388   2.155   4.245  0.2925 -0.6884 -0.6176
   77MOL    H7444306   3.223   2.196   4.217  0.0669  0.1869  0.1004
   77MOL    H7544307   3.279   1.960   4.184 -0.5447  0.6530 -0.3129
   77MOL    H7644308   3.089   1.994   4.386 -4.1696  0.2431 -1.4154
   77MOL    H7744309   3.311   1.958   4.482  0.7501  3.0179 -1.3736
   77MOL    H7844310   3.274   1.812   4.397  0.3542  0.3056  1.2348
   77MOL    H7944311   3.499   1.710   4.456 -2.3248  0.8552 -1.3659
   77MOL    H8044312   3.510   1.851   4.545 -1.9514  0.1235 -1.3037
   77MOL    H8144313   3.683   1.917   4.345 -1.4153  0.5304  0.7879
   77MOL    H8244314   3.678   1.758   4.309 -0.6526 -1.1464  0.7432
   77MOL    H8344315   3.757   1.844   4.598 -2.8056  2.6196 -1.3008
   77MOL    H8444316   3.875   1.851   4.470 -0.9364  1.5495  0.2744
   77MOL    H8544317   3.821   1.615   4.323 -0.9776  1.9659  0.1170
   77MOL    H8644318   4.042   1.573   4.365  1.8238  0.8469 -1.1337
   77MOL    H8744319   3.919   1.436   4.553 -1.2300  2.5222  0.1727
   77MOL    H8844320   3.771   1.404   4.453  0.0305 -1.7602  0.8046
   77MOL    C8944321   3.977   1.244   4.387 -0.3886 -0.1916  0.0852
   77MOL    C9044322   4.085   1.200   4.284  0.4270  0.0963 -0.0807
   77MOL    O9144323   4.208   1.259   4.325  0.3107  0.0819  0.0653
   77MOL    C9244324   4.111   1.047   4.287 -0.3889  0.0438 -0.8818
   77MOL    O9344325   4.174   1.020   4.155 -0.3760 -0.3585  0.2663
   77MOL    C9444326   4.196   0.887   4.125 -0.3308 -0.5461 -0.4214
   77MOL    C9544327   4.253   0.868   3.987 -0.1231 -1.2175  0.8203
   77MOL    C9644328   4.180   0.943   3.880  0.0939  0.0644  0.4993
   77MOL    O9744329   4.235   0.930   3.752 -0.5442  0.0068  0.0441
   77MOL    C9844330   4.208   1.039   3.666 -0.1341 -0.7526  0.0965
   77MOL    O9944331   4.296   1.149   3.693 -0.1775 -0.0706  0.1969
   77MOL   C10044332   4.241   0.983   3.526 -0.0305 -0.1634  0.5934
   77MOL   O10144333   4.136   0.903   3.475 -0.0474 -0.0250  0.1761
   77MOL   H10244334   3.892   1.177   4.379 -1.7919  1.6011 -0.3658
   77MOL   H10344335   4.028   1.221   4.481  2.1117 -0.2626 -1.2517
   77MOL   H10444336   4.062   1.234   4.182 -0.2467  0.0326  0.0545
   77MOL   H10544337   4.235   1.200   4.393 -1.5353  0.1025  0.8526
   77MOL   H10644338   4.171   1.023   4.375  0.8087  0.9683 -1.4319
   77MOL   H10744339   4.018   0.995   4.307 -1.2667  3.0421  3.6867
   77MOL   H10844340   4.106   0.826   4.136 -2.4292  2.3763 -1.0455
   77MOL   H10944341   4.258   0.836   4.199 -3.2839 -1.4410  1.5205
   77MOL   H11044342   4.260   0.763   3.958  1.3791 -1.1268  0.8046
   77MOL   H11144343   4.355   0.907   3.991 -0.7479  0.7478 -1.1054
   77MOL   H11244344   4.073   0.924   3.870  0.8681 -4.1790 -0.5266
   77MOL   H11344345   4.196   1.047   3.909 -1.9658  0.0636  1.7502
   77MOL   H11444346   4.107   1.080   3.661  0.4468  0.8319  0.7573
   77MOL   H11544347   4.386   1.118   3.694  0.1212  0.7777  0.3647
   77MOL   H11644348   4.258   1.065   3.456  0.7079  1.1029  2.2302
   77MOL   H11744349   4.329   0.919   3.522  1.8083  2.3170  0.5314
   77MOL   C11844350   4.175   0.826   3.370 -0.8508  0.0602  0.0264
   77MOL   C11944351   4.192   0.677   3.421  0.1680 -0.3219 -0.2043
   77MOL   O12044352   4.316   0.635   3.464 -0.4514 -0.0375  0.4450
   77MOL   C12144353   4.149   0.580   3.311 -0.1675 -0.0832  0.5136
   77MOL   O12244354   4.238   0.588   3.198  1.0573 -0.4109 -0.2606
   77MOL   C12344355   4.201   0.498   3.093  0.1715 -0.3313 -0.1802
   77MOL   C12444356   4.273   0.533   2.968  0.2284 -0.2450  0.1098
   77MOL   C12544357   4.241   0.438   2.854  0.1028 -0.3630 -0.2031
   77MOL   O12644358   4.310   0.484   2.733  0.1119  0.0271  0.2799
   77MOL   C12744359   4.300   0.395   2.625  0.2420  0.4833 -0.1276
   77MOL   O12844360   4.395   0.300   2.636 -0.0060  0.0342 -0.4149
   77MOL   C12944361   4.321   0.480   2.495 -0.8785  0.3126 -0.0038
   77MOL   O13044362   4.436   0.557   2.502 -0.4461  0.2514  0.3407
   77MOL   H13144363   4.092   0.822   3.300 -0.9812  1.0434  0.1139
   77MOL   H13244364   4.273   0.855   3.330  0.4443 -0.1257  2.9115
   77MOL   H13344365   4.125   0.665   3.506 -2.7197  2.5099 -2.0085
   77MOL   H13444366   4.376   0.642   3.392 -0.1688  0.1721  0.6934
   77MOL   H13544367   4.159   0.481   3.355  2.7735 -0.0587  0.0218
   77MOL   H13644368   4.044   0.602   3.289 -0.2473  0.2715  1.2379
   77MOL   H13744369   4.093   0.505   3.077  0.1290 -1.6845 -0.5400
   77MOL   H13844370   4.222   0.400   3.133 -0.8334 -0.1533  0.8129
   77MOL   H13944371   4.377   0.554   2.992  0.5833  0.9259 -2.2996
   77MOL   H14044372   4.235   0.633   2.946  3.7586  1.2756  0.5385
   77MOL   H14144373   4.270   0.336   2.881  1.7059  0.0079 -0.4852
   77MOL   H14244374   4.133   0.442   2.843 -0.0536 -2.1599  0.4968
   77MOL   H14344375   4.201   0.350   2.629  0.4173  0.1605  0.6693
   77MOL   H14444376   4.481   0.340   2.628  0.1967 -0.2722  0.2321
   77MOL   H14544377   4.317   0.417   2.407 -0.1020  0.2572  0.0011
   77MOL   H14644378   4.238   0.551   2.493  0.3473  1.7337 -0.7096
   77MOL   C14744379   4.475   0.622   2.387 -0.2869 -0.6195 -0.2557
   77MOL   C14844380   4.618   0.659   2.403  0.3473 -0.6283  0.3341
   77MOL   O14944381   4.635   0.773   2.489  0.1139 -0.4818  0.0949
   77MOL   C15044382   4.694   0.706   2.270  0.2534  0.0728  0.5045
   77MOL   O15144383   4.833   0.670   2.272  0.5317 -0.2949 -1.0168
   77MOL   C15244384   4.907   0.740   2.362 -1.0147  0.1318  0.2127
   77MOL   C15344385   5.053   0.681   2.354  1.1000 -0.1116  0.6475
   77MOL   C15444386   5.124   0.712   2.486 -0.5555  0.6619 -0.2319
   77MOL   O15544387   5.076   0.624   2.585  0.4578 -0.1796 -0.0045
   77MOL   C15644388   5.124   0.639   2.709  0.4914 -0.6533 -0.5094
   77MOL   O15744389   5.245   0.574   2.727  0.0604  0.2503 -0.1118
   77MOL   C15844390   5.025   0.575   2.806  0.1089  0.0349  0.0522
   77MOL   O15944391   4.893   0.621   2.783 -0.9196 -0.5034  0.1991
   77MOL   H16044392   4.418   0.714   2.378  1.1619  0.2021 -1.3212
   77MOL   H16144393   4.455   0.549   2.308  2.1524 -1.5416 -0.0775
   77MOL   H16244394   4.667   0.570   2.443 -2.0300 -2.5581 -0.9106
   77MOL   H16344395   4.582   0.753   2.564 -1.1853 -0.0864 -0.6935
   77MOL   H16444396   4.659   0.655   2.181 -1.9753  2.0954  0.1706
   77MOL   H16544397   4.657   0.805   2.244  0.5165  0.4157  1.4026
   77MOL   H16644398   4.876   0.726   2.466  0.6557 -1.6927  0.5067
   77MOL   H16744399   4.912   0.845   2.335  2.0032  0.0692  0.3605
   77MOL   H16844400   5.101   0.720   2.265 -2.4487  2.6376 -0.2047
   77MOL   H16944401   5.048   0.572   2.355 -0.6754 -0.0475  2.0457
   77MOL   H17044402   5.230   0.690   2.476 -0.1047  1.0090  3.0529
   77MOL   H17144403   5.124   0.816   2.519 -3.3907  0.6061  0.0547
   77MOL   H17244404   5.135   0.745   2.730  0.4180 -0.8250  0.4147
   77MOL   H17344405   5.316   0.631   2.699  0.6306 -0.8866 -1.0099
   77MOL   H17444406   5.029   0.466   2.805  2.0137  0.0889  0.4062
   77MOL   H17544407   5.049   0.601   2.909 -0.0363  1.1264 -0.1773
   77MOL   C17644408   4.794   0.580   2.872 -0.8863  0.2730  0.0397
   77MOL   C17744409   4.758   0.436   2.833 -0.2386 -0.0121  0.2456
   77MOL   O17844410   4.678   0.443   2.715 -0.1034 -0.0595  0.1791
   77MOL   C17944411   4.663   0.364   2.934 -0.2824 -0.5530  0.2367
   77MOL   O18044412   4.730   0.343   3.056 -0.4462  0.3818 -0.1168
   77MOL   C18144413   4.661   0.248   3.132  0.5330 -0.1082  0.4473
   77MOL   C18244414   4.733   0.235   3.267 -0.2206 -0.2916 -0.2382
   77MOL   C18344415   4.660   0.134   3.356 -0.4091 -0.2061  0.3863
   77MOL   O18444416   4.655   0.013   3.282 -0.6013 -0.3306 -0.1428
   77MOL   C18544417   4.697   7.596   3.358 -0.2386  0.1028 -0.3432
   77MOL   O18644418   4.831   7.607   3.396 -0.0415 -0.3483  0.1204
   77MOL   C18744419   4.672   7.479   3.266  0.4476 -0.1084  0.5930
   77MOL   O18844420   4.684   7.355   3.331  0.0576 -0.1054 -0.4262
   77MOL   H18944421   4.716   0.656   2.870 -0.0018  1.1767 -0.7119
   77MOL   H19044422   4.831   0.583   2.975 -1.1219  0.7686  0.1136
   77MOL   H19144423   4.840   0.369   2.812 -1.7220 -1.2815 -1.6229
   77MOL   H19244424   4.714   0.517   2.669  0.4696 -1.9576 -2.5969
   77MOL   H19344425   4.587   0.435   2.968 -0.3777 -0.8001  0.5363
   77MOL   H19444426   4.627   0.267   2.900 -1.1806  0.0017 -0.4075
   77MOL   H19544427   4.677   0.150   3.087  0.0314 -0.7966  1.7276
   77MOL   H19644428   4.555   0.269   3.149  0.9839  0.6388  2.4679
   77MOL   H19744429   4.742   0.326   3.326  1.3822 -0.0314 -0.8462
   77MOL   H19844430   4.834   0.197   3.248  0.2821  1.7545 -1.8603
   77MOL   H19944431   4.708   0.130   3.454 -2.8943 -0.9734  1.6316
   77MOL   H20044432   4.556   0.167   3.365 -1.0625 -1.8323 -0.8089
   77MOL   H20144433   4.633   7.602   3.446 -0.4686  0.2746 -0.5205
   77MOL   H20244434   4.851   7.524   3.437  0.5525  0.2601  1.0699
   77MOL   H20344435   4.575   7.490   3.215  0.5665 -0.3444  0.3109
   77MOL   H20444436   4.748   7.486   3.188  0.4854 -1.7580  0.4599
   77MOL   C20544437   4.594   7.253   3.286  0.6970 -0.2830  0.8336
   77MOL   C20644438   4.644   7.109   3.302  0.1814  0.3369 -0.4679
   77MOL   O20744439   4.623   7.073   3.433  0.4944  0.2633 -0.3136
   77MOL   C20844440   4.567   7.005   3.210 -0.2388  0.2035 -0.0192
   77MOL   O20944441   4.650   6.902   3.152 -0.4586  0.1309  0.6591
   77MOL   C21044442   4.681   6.800   3.242 -0.0366 -0.2296 -0.7432
   77MOL   C21144443   4.723   6.674   3.159 -0.9407  0.1999  0.1197
   77MOL   C21244444   4.744   6.547   3.240  0.0542 -0.0307 -0.7605
   77MOL   O21344445   4.772   6.430   3.157 -0.3519 -0.1982  0.1167
   77MOL   C21444446   4.781   6.300   3.206  0.1825 -0.3723  0.3022
   77MOL   O21544447   4.906   6.278   3.268  0.2637  0.5663  0.3427
   77MOL   C21644448   4.748   6.201   3.088 -0.3046  0.0220 -0.0671
   77MOL   O21744449   4.834   6.213   2.978 -0.8391  0.0658 -0.1535
   77MOL   H21844450   4.575   7.268   3.180  0.4146  0.5338  0.9910
   77MOL   H21944451   4.491   7.266   3.320 -0.0555  0.3496 -1.5529
   77MOL   H22044452   4.752   7.100   3.291  0.2603 -2.2978  1.8919
   77MOL   H22144453   4.533   7.093   3.457  1.2425  2.7948  0.5050
   77MOL   H22244454   4.482   6.968   3.266 -0.1079 -3.6178 -2.1166
   77MOL   H22344455   4.524   7.057   3.125  1.9529  0.5163 -0.9900
   77MOL   H22444456   4.588   6.775   3.291  0.8520  0.1773  1.1742
   77MOL   H22544457   4.761   6.819   3.314  0.3693 -0.8100 -1.0318
   77MOL   H22644458   4.811   6.698   3.098  0.0810  1.7035  2.1150
   77MOL   H22744459   4.645   6.647   3.089 -0.6484 -0.4540  0.0372
   77MOL   H22844460   4.826   6.566   3.309 -2.3826 -0.0872  2.2298
   77MOL   H22944461   4.659   6.548   3.308  0.9481  0.4098  0.3652
   77MOL   H23044462   4.704   6.286   3.283  1.1246  1.9706  1.7399
   77MOL   H23144463   4.973   6.267   3.202  1.5131  2.5869  1.2212
   77MOL   H23244464   4.752   6.095   3.114  2.0051 -0.1334 -0.9363
   77MOL   H23344465   4.644   6.215   3.058 -0.1683 -0.3534 -0.7169
   77MOL   C23444466   4.799   6.150   2.860 -0.3564  0.3117  0.7271
   77MOL   C23544467   4.923   6.156   2.765 -0.3380 -0.4346  0.2133
   77MOL   O23644468   4.946   6.289   2.741  0.5148 -0.1791 -0.8284
   77MOL   C23744469   4.903   6.091   2.625  0.0951 -0.4576 -1.3651
   77MOL   O23844470   4.831   5.974   2.636  0.1924  0.4186  0.0251
   77MOL   C23944471   4.857   5.868   2.541 -0.2721 -0.6916 -0.2738
   77MOL   C24044472   4.765   5.754   2.567 -0.1040  0.2211 -0.0179
   77MOL   C24144473   4.805   5.639   2.480  0.1594 -0.3627  0.3680
   77MOL   O24244474   4.707   5.535   2.503  0.7837  0.6452 -0.1161
   77MOL   C24344475   4.728   5.417   2.443  0.0165 -0.2964  0.1156
   77MOL   O24444476   4.717   5.421   2.302 -0.5199  0.0491  0.2837
   77MOL   C24544477   4.635   5.311   2.510 -0.1896 -0.0788 -0.3688
   77MOL   O24644478   4.499   5.338   2.478 -0.3710  0.1585  0.5166
   77MOL   H24744479   4.753   6.054   2.885  0.6413 -0.1648  0.7748
   77MOL   H24844480   4.715   6.209   2.823 -0.7486  1.0247  2.7139
   77MOL   H24944481   5.009   6.115   2.818  1.5701  1.6743 -1.1251
   77MOL   H25044482   4.942   6.335   2.824 -1.5097 -0.3666 -0.8035
   77MOL   H25144483   4.846   6.150   2.554 -1.1106 -0.9704 -0.8318
   77MOL   H25244484   5.004   6.073   2.586  1.7385 -0.5931  2.6893
   77MOL   H25344485   4.958   5.828   2.552  1.5155  3.8991  1.3351
   77MOL   H25444486   4.844   5.901   2.438  1.3569 -0.7106 -0.5013
   77MOL   H25544487   4.661   5.788   2.565 -0.9363 -2.2458  0.3827
   77MOL   H25644488   4.789   5.724   2.669 -0.6156  1.3329  0.4432
   77MOL   H25744489   4.791   5.674   2.377  0.5878  1.5091  0.9395
   77MOL   H25844490   4.905   5.607   2.507  0.8538  0.0706 -1.6123
   77MOL   H25944491   4.827   5.382   2.475 -1.0508 -0.4853  3.4200
   77MOL   H26044492   4.624   5.419   2.281 -0.0551 -0.1572 -1.8825
   77MOL   H26144493   4.673   5.210   2.497  1.0201  0.5416 -1.7910
   77MOL   H26244494   4.647   5.336   2.616 -0.7878  0.3383 -0.3954
   77MOL   C26344495   4.406   5.287   2.581 -0.0387 -0.1993  0.1766
   77MOL   C26444496   4.357   5.398   2.674 -0.6768 -0.0972 -0.0323
   77MOL   O26544497   4.457   5.433   2.761 -0.0871  0.5980  0.2160
   77MOL   C26644498   4.296   5.515   2.604  0.3242  0.1608  0.2757
   77MOL   O26744499   4.227   5.594   2.698 -0.5096  0.3651 -0.7818
   77MOL   C26844500   4.163   5.704   2.639  0.3270  0.0587  0.3127
   77MOL   C26944501   4.072   5.774   2.738  0.0798 -0.4277  0.5073
   77MOL   C27044502   4.033   5.912   2.675 -0.2245 -0.5161 -0.1960
   77MOL   O27144503   3.974   5.979   2.782  0.5278  0.5417  0.1247
   77MOL   C27244504   3.897   6.087   2.746 -0.3481 -0.2745  0.5931
   77MOL   O27344505   3.776   6.048   2.687 -0.0876  0.2161  0.2858
   77MOL   C27444506   3.860   6.170   2.871 -0.3625  0.2493  0.4563
   77MOL   O27544507   3.746   6.115   2.938 -0.0923 -0.2737 -0.0802
   77MOL   H27644508   4.439   5.204   2.643  0.3683 -0.8638 -0.9080
   77MOL   H27744509   4.329   5.242   2.518  2.0527  0.7219 -3.1827
   77MOL   H27844510   4.281   5.347   2.734 -0.6153 -1.0234 -0.7212
   77MOL   H27944511   4.519   5.491   2.720  0.3084 -0.2047 -0.3282
   77MOL   H28044512   4.357   5.577   2.538 -0.5756  0.5571 -0.1893
   77MOL   H28144513   4.210   5.477   2.550 -0.7105  0.5222  1.6402
   77MOL   H28244514   4.107   5.663   2.555  2.9784 -3.0476 -0.0407
   77MOL   H28344515   4.228   5.779   2.593  0.4683  0.3627  0.9983
   77MOL   H28444516   4.117   5.797   2.834 -1.7083  1.5249  0.9181
   77MOL   H28544517   3.986   5.712   2.765  1.6624 -1.6613  2.7959
   77MOL   H28644518   4.118   5.970   2.639  0.4385  0.0925  2.2596
   77MOL   H28744519   3.980   5.906   2.581 -2.1857 -1.1926  0.9245
   77MOL   H28844520   3.945   6.147   2.669  0.8569 -0.1711  1.4032
   77MOL   H28944521   3.712   6.074   2.751  0.1490  1.4510  0.0234
   77MOL   H29044522   3.946   6.185   2.935  0.4310 -1.1338 -0.2644
   77MOL   H29144523   3.833   6.266   2.826 -0.3318 -1.3543 -3.1418
   77MOL   C29244524   3.790   6.015   3.023 -0.4841  1.2983 -0.5469
   77MOL   C29344525   3.671   5.950   3.090  0.1085  0.0909 -0.2322
   77MOL   O29444526   3.714   5.850   3.175 -0.4460 -0.1398 -0.2813
   77MOL   C29544527   3.578   6.050   3.174  0.1262  0.8798  0.2171
   77MOL   O29644528   3.473   6.102   3.104  0.3081  0.4279 -0.3274
   77MOL   C29744529   3.386   6.179   3.187  0.2740  0.0452 -0.5383
   77MOL   C29844530   3.248   6.198   3.113  0.2426 -0.0742 -0.1199
   77MOL   C29944531   3.246   6.314   3.014 -0.1801 -0.6165 -0.2988
   77MOL   O30044532   3.115   6.321   2.957 -0.3213  0.1313  0.1578
   77MOL   C30144533   3.122   6.405   2.849  0.2039 -0.2235  0.9913
   77MOL   O30244534   3.195   6.340   2.751  0.2486  0.3701  0.3613
   77MOL   C30344535   2.983   6.444   2.802 -0.0325  0.0539 -0.0720
   77MOL   O30444536   2.950   6.565   2.875  0.3109  0.4947  0.4908
   77MOL   H30544537   3.840   5.934   2.969 -0.7613 -0.1133  1.2642
   77MOL   H30644538   3.858   6.055   3.097  2.0896  0.4517 -2.3823
   77MOL   H30744539   3.603   5.897   3.024  1.3806  0.2306 -1.6983
   77MOL   H30844540   3.728   5.895   3.257 -1.0099 -1.3189  0.4905
   77MOL   H30944541   3.557   5.993   3.264 -1.3864  0.3980 -0.4180
   77MOL   H31044542   3.645   6.125   3.215  0.1143  0.3772  1.1724
   77MOL   H31144543   3.421   6.279   3.213 -0.9378  0.1235  0.8198
   77MOL   H31244544   3.369   6.122   3.278  0.3287 -0.0193 -0.5684
   77MOL   H31344545   3.175   6.227   3.189  0.2909 -0.1590 -0.0413
   77MOL   H31444546   3.212   6.104   3.072 -0.1626 -1.0882  2.4552
   77MOL   H31544547   3.259   6.411   3.062 -3.2433 -0.0524 -0.4982
   77MOL   H31644548   3.328   6.296   2.946 -0.3345 -0.8480 -0.4252
   77MOL   H31744549   3.179   6.494   2.876 -0.9709  0.5917  0.8569
   77MOL   H31844550   3.132   6.287   2.705  1.8326 -1.8423  0.6730
   77MOL   H31944551   2.913   6.361   2.817  0.1482 -0.6570 -2.8999
   77MOL   H32044552   2.989   6.470   2.697 -2.6694  2.1196  0.2157
   77MOL   C32144553   2.833   6.627   2.846 -0.1631 -0.9976  0.1640
   77MOL   C32244554   2.728   6.612   2.957 -0.0240  0.1542  0.0701
   77MOL   O32344555   2.790   6.650   3.078 -0.2848  0.3642  0.5583
   77MOL   C32444556   2.590   6.675   2.943 -0.4662  0.6450  0.3307
   77MOL   O32544557   2.511   6.570   2.992  0.5438 -0.3229  0.2740
   77MOL   C32644558   2.381   6.603   3.013 -0.4293  0.6260 -0.7746
   77MOL   C32744559   2.310   6.478   3.076  0.2490  0.2049 -0.3866
   77MOL   C32844560   2.154   6.491   3.088 -0.3186 -0.3312  0.0128
   77MOL   O32944561   2.100   6.468   2.958  0.4758  0.1801  0.5279
   77MOL   C33044562   1.994   6.549   2.916 -0.1799 -0.2023  1.0229
   77MOL   O33144563   2.036   6.679   2.884  0.1925  0.2461  0.2340
   77MOL   C33244564   1.943   6.471   2.794 -0.1142  0.1937  0.3830
   77MOL   O33344565   1.800   6.474   2.792 -0.2498 -0.1071 -0.0454
   77MOL   H33444566   2.783   6.596   2.754 -2.5906  1.3177  0.6456
   77MOL   H33544567   2.862   6.731   2.832  1.8585 -1.6475 -0.6337
   77MOL   H33644568   2.714   6.504   2.966 -1.3265  0.3988  1.0838
   77MOL   H33744569   2.859   6.708   3.050  0.1639 -1.4396 -2.1721
   77MOL   H33844570   2.565   6.690   2.837 -1.3102  3.1131  0.8477
   77MOL   H33944571   2.578   6.767   3.000  0.0107  0.7540  0.2533
   77MOL   H34044572   2.331   6.643   2.925 -1.3938  0.8630 -0.1256
   77MOL   H34144573   2.371   6.693   3.074 -1.5433 -0.7317  1.1123
   77MOL   H34244574   2.343   6.389   3.023  1.6403  0.2633  0.3510
   77MOL   H34344575   2.354   6.468   3.175 -1.6673 -0.3170  0.4239
   77MOL   H34444576   2.123   6.417   3.163  1.2375  0.0559  1.0653
   77MOL   H34544577   2.119   6.586   3.127 -1.2973  0.1675 -2.0283
   77MOL   H34644578   1.925   6.553   3.000 -1.1005 -1.1069  0.3171
   77MOL   H34744579   2.080   6.680   2.801 -1.8451  0.1326 -0.8653
   77MOL   H34844580   1.982   6.510   2.700  1.0080  0.2554  0.8735
   77MOL   H34944581   1.972   6.366   2.800  0.5703  0.5011  3.4780
   77MOL   C35044582   1.733   6.417   2.676 -0.4039 -0.3090 -0.2238
   77MOL   C35144583   1.618   6.326   2.737  0.1597  0.8964  0.1441
   77MOL   O35244584   1.501   6.322   2.658  0.0926  0.1164 -0.3935
   77MOL   C35344585   1.673   6.188   2.769  0.3589  0.9472 -0.2154
   77MOL   O35444586   1.598   6.124   2.872 -0.0435  0.0894  0.0374
   77MOL   C35544587   1.655   5.998   2.906  0.7764 -0.5303  0.6002
   77MOL   C35644588   1.560   5.928   3.007 -0.0867 -0.1084  0.5186
   77MOL   C35744589   1.575   5.959   3.155  0.0101 -0.2620 -0.2573
   77MOL   O35844590   1.688   5.905   3.206  0.0949  0.1941  0.0944
   77MOL   C35944591   1.705   5.926   3.344  0.0324 -0.0481  0.3716
   77MOL   O36044592   1.615   5.858   3.425 -0.1774  0.5609  0.2891
   77MOL   C36144593   1.843   5.861   3.386 -0.4007 -0.2709  0.2805
   77MOL   O36244594   1.831   5.715   3.383  0.5531 -0.1484 -0.3638
   77MOL   H36344595   1.793   6.353   2.611 -1.7269  0.8424 -2.6616
   77MOL   H36444596   1.707   6.507   2.620 -2.3084 -1.0248 -0.5583
   77MOL   H36544597   1.586   6.378   2.827  0.8445  1.3966  0.1049
   77MOL   H36644598   1.510   6.253   2.593 -0.1771 -1.4644  1.2299
   77MOL   H36744599   1.706   6.128   2.684 -0.5009  2.3677 -1.5731
   77MOL   H36844600   1.769   6.217   2.811  0.4892 -1.0074  0.8923
   77MOL   H36944601   1.757   6.023   2.938  0.9807  0.6302 -0.9262
   77MOL   H37044602   1.665   5.935   2.818 -0.2459 -0.0938  0.1622
   77MOL   H37144603   1.548   5.820   2.992  0.6962 -0.3515  1.5416
   77MOL   H37244604   1.460   5.959   2.979 -1.1770 -1.0918  3.1267
   77MOL   H37344605   1.562   6.066   3.166  1.2994  0.1518 -2.4161
   77MOL   H37444606   1.494   5.901   3.200 -0.1132 -0.5485 -0.8392
   77MOL   H37544607   1.703   6.032   3.370 -1.4775 -0.0107  0.1425
   77MOL   H37644608   1.666   5.780   3.439 -2.0075 -0.8648 -0.6650
   77MOL   H37744609   1.922   5.899   3.321 -1.1478  0.0880 -0.4349
   77MOL   H37844610   1.873   5.884   3.488  0.9967  2.4620 -0.6969
   77MOL   C37944611   1.957   5.647   3.417 -0.2688  0.3304  0.1753
   77MOL   C38044612   1.931   5.496   3.435 -0.1496  0.3570  0.3578
   77MOL   O38144613   1.961   5.431   3.310  0.0196  0.1666 -0.2398
   77MOL   C38244614   2.012   5.424   3.542 -0.2691 -0.2371  0.5649
   77MOL   O38344615   1.938   5.309   3.563 -0.2232  0.9609  0.0084
   77MOL   C38444616   1.964   5.231   3.683  0.3927  0.0361  0.0823
   77MOL   C38544617   1.846   5.133   3.712 -1.0182 -0.3884  0.0419
   77MOL   C38644618   1.850   5.009   3.623 -0.4419 -0.2036 -0.4897
   77MOL   O38744619   1.763   4.917   3.682 -0.1356  0.5610  0.2703
   77MOL   C38844620   1.765   4.795   3.606 -0.3688 -0.5668 -0.1132
   77MOL   O38944621   1.891   4.733   3.611  0.6070 -0.4668  0.0049
   77MOL   C39044622   1.656   4.704   3.664  0.3932 -0.7608  0.0109
   77MOL   O39144623   1.529   4.762   3.649 -0.5539 -0.2225  0.0959
   77MOL   H39244624   1.998   5.685   3.511  2.8314 -0.2876 -0.8641
   77MOL   H39344625   2.031   5.655   3.337 -1.3504 -3.5186 -1.3173
   77MOL   H39444626   1.825   5.484   3.460  0.3966 -1.7880  1.7663
   77MOL   H39544627   1.903   5.468   3.245  0.5466 -1.5228 -1.7007
   77MOL   H39644628   2.116   5.405   3.514  0.3926  2.4825  1.1109
   77MOL   H39744629   2.018   5.485   3.632  1.8277  0.7000 -0.1794
   77MOL   H39844630   1.976   5.298   3.769 -1.0381  0.6676 -0.2033
   77MOL   H39944631   2.054   5.174   3.659 -0.2748 -2.5203  3.2492
   77MOL   H40044632   1.744   5.173   3.704 -1.3142 -1.3830 -1.4302
   77MOL   H40144633   1.870   5.099   3.813 -0.3311 -2.2862 -0.7341
   77MOL   H40244634   1.819   5.029   3.521  0.4541 -1.2735 -0.9845
   77MOL   H40344635   1.952   4.970   3.630 -0.4341 -0.0246  0.5491
   77MOL   H40444636   1.746   4.818   3.501  1.5641  1.0997 -0.1305
   77MOL   H40544637   1.907   4.682   3.689  2.0480 -2.4659 -1.5557
   77MOL   H40644638   1.664   4.606   3.618  1.0045 -0.5255 -0.3793
   77MOL   H40744639   1.687   4.691   3.768 -0.5714 -0.9348  0.2834
   77MOL   C40844640   1.430   4.685   3.706  0.4905 -0.1239  0.1202
   77MOL   C40944641   1.301   4.750   3.667  0.1905 -0.6945  0.5826
   77MOL   O41044642   1.262   4.738   3.528 -0.0127  0.1021 -0.5021
   77MOL   C41144643   1.289   4.901   3.701  0.2633 -0.6537 -0.3773
   77MOL   O41244644   1.166   4.970   3.722  0.3079 -0.3794 -0.2383
   77MOL   C41344645   1.077   4.974   3.614  0.1962 -0.5242 -0.1893
   77MOL   C41444646   0.948   5.046   3.648  0.2035  0.3745 -0.8152
   77MOL   C41544647   0.856   5.044   3.534  0.1026  0.0106 -0.4085
   77MOL   O41644648   0.753   5.140   3.567 -0.3769 -0.3802 -0.1547
   77MOL   C41744649   0.654   5.160   3.465 -0.1766 -0.5047  0.2054
   77MOL   O41844650   0.576   5.047   3.435  0.4493  0.1508  0.4382
   77MOL   C41944651   0.713   5.206   3.331 -0.3723  0.1793 -0.3887
   77MOL   O42044652   0.612   5.273   3.263  0.2289  0.2441 -0.3036
   77MOL   H42144653   1.432   4.681   3.815 -0.1550 -2.3055  0.0662
   77MOL   H42244654   1.431   4.578   3.688  1.9355 -0.5160  2.3914
   77MOL   H42344655   1.215   4.699   3.711 -0.5739 -0.1663 -0.2756
   77MOL   H42444656   1.341   4.748   3.476 -0.0802 -0.0048 -0.6243
   77MOL   H42544657   1.339   4.927   3.794  1.5136 -2.7371 -0.4495
   77MOL   H42644658   1.360   4.952   3.635  1.3612 -1.9965 -0.2434
   77MOL   H42744659   1.122   5.029   3.531 -0.2809  1.8787  1.0806
   77MOL   H42844660   1.053   4.874   3.579 -2.0777 -0.5641  1.3811
   77MOL   H42944661   0.960   5.146   3.689 -0.6517 -0.1244  0.7049
   77MOL   H43044662   0.896   4.989   3.725 -0.5015 -1.1418 -2.3763
   77MOL   H43144663   0.915   5.074   3.447  0.3796 -0.5745 -0.4297
   77MOL   H43244664   0.816   4.944   3.519 -0.1858  0.2484 -1.2551
   77MOL   H43344665   0.579   5.224   3.511 -1.0839 -1.9298  0.7396
   77MOL   H43444666   0.491   5.053   3.475 -0.7498 -1.0287 -1.8364
   77MOL   H43544667   0.789   5.282   3.346  1.4371 -1.4510 -1.0835
   77MOL   H43644668   0.758   5.121   3.280  0.8108  0.3887  0.2702
   77MOL   C43744669   0.631   5.309   3.128 -0.1412 -0.2822 -0.1052
   77MOL   C43844670   0.536   5.423   3.084 -0.8991  0.5688 -0.8377
   77MOL   O43944671   0.420   5.371   3.044  0.1903 -0.0890  0.0891
   77MOL   C44044672   0.585   5.533   2.985 -0.1760  0.3317  0.1186
   77MOL   O44144673   0.642   5.448   2.882  0.2842  0.1543 -0.1454
   77MOL   C44244674   0.773   5.479   2.855 -0.4727  0.1326  0.0646
   77MOL   C44344675   0.826   5.397   2.741 -0.4043 -0.6336  0.4114
   77MOL   C44444676   0.979   5.374   2.739 -0.6415 -0.9592  0.0341
   77MOL   O44544677   1.025   5.348   2.608  0.0551 -0.0148 -0.2275
   77MOL   C44644678   1.098   5.451   2.554  0.6133  0.3613  0.6636
   77MOL   O44744679   1.016   5.560   2.524  0.0309 -0.6395 -0.1330
   77MOL   C44844680   1.170   5.405   2.424 -0.5512 -0.9554  0.1933
   77MOL   O44944681   1.281   5.329   2.459 -0.7889 -0.3733 -0.2528
   77MOL   H45044682   0.729   5.355   3.115 -0.2356 -0.2184 -0.5930
   77MOL   H45144683   0.619   5.220   3.067  0.1751 -0.5337  0.2000
   77MOL   H45244684   0.516   5.476   3.177 -0.0569  1.1350 -0.9705
   77MOL   H45344685   0.454   5.317   2.974  0.7438  1.3074 -0.7400
   77MOL   H45444686   0.509   5.604   2.952 -0.8627 -0.0361  0.9133
   77MOL   H45544687   0.664   5.585   3.040 -0.1987  1.4259 -0.8464
   77MOL   H45644688   0.837   5.458   2.941  0.2413  2.3967  0.1262
   77MOL   H45744689   0.794   5.584   2.834 -3.1706  1.0702  1.7938
   77MOL   H45844690   0.781   5.450   2.658 -0.0414  0.3825  0.8556
   77MOL   H45944691   0.788   5.295   2.742  2.2778 -1.6920  1.6242
   77MOL   H46044692   1.031   5.458   2.785 -1.5490  1.4808 -3.2449
   77MOL   H46144693   1.011   5.283   2.792  0.1775 -0.2260  0.8243
   77MOL   H46244694   1.172   5.482   2.627  1.8214  3.2959 -1.6717
   77MOL   H46344695   1.006   5.611   2.603 -0.4526 -0.3892 -0.3534
   77MOL   H46444696   1.105   5.364   2.347  0.6649  0.9901 -1.9541
   77MOL   H46544697   1.206   5.501   2.386 -1.3464  0.0150  1.8691
   77MOL   C46644698   1.356   5.269   2.355 -0.2236  0.4274 -0.7462
   77MOL   C46744699   1.445   5.368   2.279  0.1456 -0.3361  0.4325
   77MOL   O46844700   1.566   5.363   2.344  0.0206 -0.1659 -0.4659
   77MOL   C46944701   1.455   5.335   2.130  0.1457 -0.3494 -0.3170
   77MOL   O47044702   1.497   5.201   2.105 -0.0202  0.0271 -0.3768
   77MOL   C47144703   1.509   5.167   1.960  0.2106  0.2171  0.0353
   77MOL   C47244704   1.524   5.014   1.943  0.1942  0.1029  0.3411
   77MOL   C47344705   1.382   4.958   1.969 -0.3986 -0.5212  0.4626
   77MOL   O47444706   1.296   5.002   1.858  0.0838  0.7154  0.4884
   77MOL   C47544707   1.158   4.999   1.877 -0.0397 -0.4949 -0.3447
   77MOL   O47644708   1.103   4.867   1.864  0.1327  0.1991  0.4999
   77MOL   C47744709   1.085   5.087   1.772  0.1448  0.6282  0.2660
   77MOL   O47844710   1.121   5.067   1.634  0.2681 -0.0153  0.0400
   77MOL   H47944711   1.284   5.224   2.286 -0.5451  0.6992 -0.5897
   77MOL   H48044712   1.407   5.185   2.401 -3.7816  0.3686  3.4232
   77MOL   H48144713   1.404   5.468   2.292  0.2316 -0.2397 -0.0431
   77MOL   H48244714   1.566   5.299   2.414  1.1530  0.1243 -0.1744
   77MOL   H48344715   1.357   5.340   2.083 -0.8003 -1.5648  1.4845
   77MOL   H48444716   1.521   5.409   2.084 -1.8320 -0.7931 -4.0927
   77MOL   H48544717   1.598   5.216   1.921  0.4274 -0.1616  0.0476
   77MOL   H48644718   1.424   5.209   1.906 -0.3253 -0.7704  0.0992
   77MOL   H48744719   1.595   4.992   2.023  0.6535 -0.3694 -0.2019
   77MOL   H48844720   1.573   4.982   1.851  0.0337 -0.5328  0.4736
   77MOL   H48944721   1.374   4.849   1.981 -1.0520 -0.3429  1.8153
   77MOL   H49044722   1.345   5.009   2.058  3.3980  0.1772  1.7099
   77MOL   H49144723   1.138   5.030   1.980  0.1610 -2.8386  0.4390
   77MOL   H49244724   1.143   4.810   1.928 -1.7499 -1.9200 -0.1426
   77MOL   H49344725   0.977   5.077   1.782  0.1204  0.3101 -0.2905
   77MOL   H49444726   1.088   5.190   1.808 -0.8049  1.0100 -0.7296
   77MOL   C49544727   1.072   5.169   1.549  0.1179  0.3106  0.2766
   77MOL   C49644728   1.193   5.249   1.492 -0.5882  0.2024 -0.0851
   77MOL   O49744729   1.147   5.339   1.392 -0.3863  0.4657  0.3300
   77MOL   C49844730   1.267   5.331   1.602 -0.4722 -0.5730  0.0887
   77MOL   O49944731   1.398   5.380   1.551 -0.2451  0.3526  0.0663
   77MOL   C50044732   1.456   5.453   1.660  0.1503 -0.1265  0.1958
   77MOL   C50144733   1.595   5.501   1.617 -0.2346  0.3152  0.5397
   77MOL   C50244734   1.675   5.572   1.730 -0.1225 -0.4941  1.2209
   77MOL   O50344735   1.796   5.620   1.677 -0.6616 -0.1615 -0.5985
   77MOL   C50444736   1.857   5.724   1.755 -0.1861 -0.0483 -0.2113
   77MOL   O50544737   1.894   5.827   1.665 -0.0538 -0.4240 -0.6526
   77MOL   C50644738   1.972   5.669   1.828  0.1619 -0.3988 -0.3156
   77MOL   O50744739   1.926   5.593   1.937  0.5055 -0.0276  0.0544
   77MOL   H50844740   0.990   5.232   1.583 -1.4554 -1.2133 -0.6002
   77MOL   H50944741   1.024   5.124   1.462 -0.8503 -1.4114  1.6618
   77MOL   H51044742   1.269   5.180   1.456 -0.3141  0.7179 -0.5037
   77MOL   H51144743   1.217   5.400   1.377 -1.7013  1.5875 -1.3516
   77MOL   H51244744   1.208   5.416   1.636  0.2736  0.3603 -0.8853
   77MOL   H51344745   1.277   5.268   1.690  0.2844 -0.9652 -0.2710
   77MOL   H51444746   1.450   5.387   1.746 -2.0170  0.5977  0.6420
   77MOL   H51544747   1.395   5.542   1.681  1.1329  0.5003  0.4111
   77MOL   H51644748   1.597   5.568   1.532 -1.6173  0.4199  0.5723
   77MOL   H51744749   1.656   5.420   1.577  0.1601  0.9755 -0.2070
   77MOL   H51844750   1.612   5.656   1.759 -0.7750 -0.9922  1.2635
   77MOL   H51944751   1.690   5.503   1.813 -0.5058 -0.5989  1.2051
   77MOL   H52044752   1.786   5.779   1.818  0.1064  0.4086 -0.2788
   77MOL   H52144753   1.952   5.799   1.596  1.9393  1.1791  0.3079
   77MOL   H52244754   2.040   5.624   1.756 -1.4004  1.2214 -2.8644
   77MOL   H52344755   2.023   5.760   1.858 -2.4915  0.1939  2.7628
   77MOL   C52444756   2.016   5.572   2.046 -0.0320  0.1147 -0.3986
   77MOL   C52544757   1.989   5.665   2.166 -0.5682 -0.1057 -0.2772
   77MOL   O52644758   2.069   5.783   2.167 -0.2762 -0.0351  0.1259
   77MOL   C52744759   1.992   5.584   2.294  0.2445 -0.4814  0.2007
   77MOL   O52844760   1.943   5.661   2.402  0.7776 -0.0046  0.4893
   77MOL   C52944761   1.947   5.586   2.522  0.0624 -0.5782 -0.0154
   77MOL   C53044762   1.856   5.646   2.622  1.1213  0.1570  1.1079
   77MOL   C53144763   1.904   5.614   2.762 -0.3706  0.0854  0.5221
   77MOL   O53244764   1.817   5.682   2.853 -0.4481 -0.5669 -0.2300
   77MOL   C53344765   1.863   5.681   2.989  0.7611 -0.2282  0.3374
   77MOL   O53444766   1.863   5.549   3.042 -0.4125  0.3061 -0.5326
   77MOL   C53544767   1.995   5.751   3.018 -0.0602  0.0381 -0.1299
   77MOL   O53644768   1.978   5.886   2.988 -0.3435 -0.3703  0.1796
   77MOL   H53744769   2.120   5.574   2.016 -0.6805  0.5582 -2.7535
   77MOL   H53844770   2.004   5.472   2.086 -0.0352  0.5057  0.5938
   77MOL   H53944771   1.891   5.701   2.135 -1.1516 -1.2577  0.2148
   77MOL   H54044772   2.151   5.758   2.206 -0.7151 -2.4864 -0.4291
   77MOL   H54144773   1.940   5.489   2.279  0.0024  0.0977 -2.9187
   77MOL   H54244774   2.097   5.563   2.316  0.1295 -0.5496  0.7106
   77MOL   H54344775   2.052   5.585   2.552  0.4491  0.4274 -1.3313
   77MOL   H54444776   1.920   5.480   2.520 -1.4909 -0.2139  0.6652
   77MOL   H54544777   1.752   5.614   2.618  0.7233  1.6438 -2.3416
   77MOL   H54644778   1.851   5.754   2.619 -1.3322  0.0444 -2.6453
   77MOL   H54744779   1.915   5.508   2.783  1.3461  0.2718  0.6366
   77MOL   H54844780   2.005   5.654   2.771 -0.2181 -0.1554 -0.1549
   77MOL   H54944781   1.787   5.740   3.039 -2.3587 -2.2576 -1.8520
   77MOL   H55044782   1.786   5.501   3.015 -0.6521 -0.4269  1.3343
   77MOL   H55144783   2.014   5.730   3.124  1.9084  0.6026 -0.3499
   77MOL   H55244784   2.071   5.703   2.957  1.4445 -1.0940  2.5468
   77MOL   C55344785   2.090   5.966   3.036  0.0270  0.1271 -0.5177
   77MOL   C55444786   2.053   6.113   3.009 -0.1137 -0.1964 -0.2031
   77MOL   O55544787   2.162   6.198   2.999 -0.3862 -0.1342 -0.3958
   77MOL   C55644788   1.954   6.163   3.118  0.9139 -0.6089  0.5975
   77MOL   O55744789   1.900   6.289   3.092  0.2871  0.2953  0.1325
   77MOL   C55844790   1.776   6.314   3.152  0.6700  0.6918 -0.0341
   77MOL   C55944791   1.737   6.460   3.157 -0.2663 -0.1014 -0.2255
   77MOL   C56044792   1.603   6.483   3.217  0.6806 -0.2172 -0.4325
   77MOL   O56144793   1.610   6.451   3.358  0.4603 -0.0943 -0.0007
   77MOL   C56244794   1.489   6.435   3.417 -0.6834 -0.6078 -0.6360
   77MOL   O56344795   1.439   6.310   3.382  0.2545  0.5951  0.4640
   77MOL   C56444796   1.518   6.441   3.570 -0.3049 -0.6147  0.5282
   77MOL   O56544797   1.557   6.320   3.619  0.1178 -0.2289 -0.4812
   77MOL   H56644798   2.167   5.936   2.965 -1.0619  0.5203 -1.8881
   77MOL   H56744799   2.113   5.955   3.142  0.4716 -0.3154 -0.6573
   77MOL   H56844800   1.998   6.118   2.914 -1.8100  4.0660  0.8796
   77MOL   H56944801   2.127   6.281   2.972 -1.9262 -1.1804 -1.7549
   77MOL   H57044802   1.876   6.087   3.115 -0.7215  1.0428  0.6110
   77MOL   H57144803   2.003   6.159   3.216  0.6403 -0.9869  0.7198
   77MOL   H57244804   1.702   6.252   3.100  3.0923 -1.4033 -1.1102
   77MOL   H57344805   1.776   6.286   3.257  0.0390 -1.0664 -0.4809
   77MOL   H57444806   1.735   6.502   3.057 -1.5918 -0.5294 -0.3850
   77MOL   H57544807   1.798   6.511   3.232 -0.0615 -1.8176  0.7948
   77MOL   H57644808   1.568   6.586   3.215 -0.3227 -0.5377  0.0814
   77MOL   H57744809   1.532   6.429   3.155  1.8199  0.5965 -2.4673
   77MOL   H57844810   1.415   6.507   3.384  0.2358 -0.1220 -1.6525
   77MOL   H57944811   1.435   6.302   3.288  0.3473 -1.7839  0.6366
   77MOL   H58044812   1.593   6.518   3.583  0.1504 -0.3319 -3.0469
   77MOL   H58144813   1.436   6.483   3.627  0.7713  1.7649  0.3733
   77MOL   H58244814   1.510   6.257   3.565  1.2458 -0.2699 -1.4360
   78MOL     C144815   3.725   0.562   2.420 -0.2038  0.7611  0.0800
   78MOL     C244816   3.670   0.541   2.556 -0.6096 -0.1746 -0.5217
   78MOL     O344817   3.774   0.517   2.652 -0.5494  0.4724  0.1073
   78MOL     C444818   3.563   0.637   2.602  0.0965 -0.5388 -0.1692
   78MOL     O544819   3.516   0.599   2.722 -0.2501 -0.1347 -0.0388
   78MOL     C644820   3.488   0.714   2.788 -0.0362 -0.1715 -0.2168
   78MOL     C744821   3.402   0.680   2.906 -0.1281  0.5476  0.2177
   78MOL     C844822   3.312   0.789   2.971  0.4960 -0.2607 -0.3934
   78MOL     O944823   3.402   0.891   3.004  0.3020  0.3639 -0.1291
   78MOL    C1044824   3.344   1.001   3.071 -0.2103  0.2445  0.1597
   78MOL    O1144825   3.310   0.962   3.197  0.0351  0.6185 -0.6317
   78MOL    C1244826   3.215   1.060   3.001  0.1532  0.0495 -0.4292
   78MOL    O1344827   3.103   0.986   3.052  0.1162  0.5966  0.3987
   78MOL    H1444828   3.803   0.489   2.402  1.3338  1.5664  3.2266
   78MOL    H1544829   3.769   0.661   2.408 -0.6881  0.6632 -3.1178
   78MOL    H1644830   3.606   0.454   2.544 -0.4388 -0.5227  0.9222
   78MOL    H1744831   3.738   0.459   2.718 -0.2587 -1.5308 -1.4432
   78MOL    H1844832   3.618   0.731   2.600  0.5439 -0.7617  1.1229
   78MOL    H1944833   3.483   0.650   2.529  0.7442  1.9093 -0.5063
   78MOL    H2044834   3.430   0.779   2.723 -0.1781  2.0491  2.0333
   78MOL    H2144835   3.572   0.768   2.830  0.9231 -2.3084  0.6944
   78MOL    H2244836   3.466   0.630   2.979  1.6122  0.0545 -1.6255
   78MOL    H2344837   3.343   0.599   2.864 -0.4484 -0.5246  2.6322
   78MOL    H2444838   3.237   0.821   2.899  0.5253  1.4984  0.3207
   78MOL    H2544839   3.244   0.753   3.049  1.2396 -0.6073  0.1008
   78MOL    H2644840   3.422   1.076   3.089  0.3804 -0.4127  0.3593
   78MOL    H2744841   3.230   0.912   3.187  1.1219 -0.9657 -1.6263
   78MOL    H2844842   3.203   1.167   3.021  2.6870  0.6177 -1.7458
   78MOL    H2944843   3.220   1.059   2.892  1.5864  1.0214 -0.3892
   78MOL    H3044844   3.644   0.554   2.347 -0.6694  1.2432  0.5422
   78MOL    C3144845   2.977   1.030   3.003 -0.0109 -0.0924  0.0162
   78MOL    C3244846   2.938   0.945   2.887  0.3220 -0.3434  0.5047
   78MOL    O3344847   2.965   1.012   2.768 -0.5355  0.1565 -0.5091
   78MOL    C3444848   2.799   0.890   2.879  0.1115 -0.4795  0.0219
   78MOL    O3544849   2.796   0.751   2.915 -0.3610 -0.0058 -0.5365
   78MOL    C3644850   2.817   0.723   3.051  0.4573 -0.9483 -0.0210
   78MOL    C3744851   2.714   0.619   3.107 -0.2780 -0.1461 -0.1273
   78MOL    C3844852   2.568   0.675   3.106 -0.5409 -0.6684  0.2900
   78MOL    O3944853   2.480   0.576   3.167  0.3216 -0.9287  0.1088
   78MOL    C4044854   2.344   0.617   3.184  0.1800 -0.5472  0.4269
   78MOL    O4144855   2.336   0.739   3.260 -0.0616 -0.2126  0.0932
   78MOL    C4244856   2.256   0.504   3.255 -0.0309  0.0766 -0.0806
   78MOL    O4344857   2.225   0.394   3.167  0.3130 -0.2859  0.7282
   78MOL    H4444858   2.911   1.013   3.089 -0.1897 -0.6180 -0.2262
   78MOL    H4544859   2.977   1.136   2.979  3.2823 -0.1005 -0.1938
   78MOL    H4644860   3.004   0.859   2.896  0.7859  0.0323  0.6901
   78MOL    H4744861   2.906   1.084   2.751  0.8450  0.9071 -2.2748
   78MOL    H4844862   2.725   0.950   2.932  1.3065 -0.1005  1.2726
   78MOL    H4944863   2.765   0.892   2.775  0.6583  2.7191 -0.1506
   78MOL    H5044864   2.825   0.805   3.122 -3.4441 -0.9108  0.4812
   78MOL    H5144865   2.918   0.682   3.061  0.8199 -0.7326 -2.5613
   78MOL    H5244866   2.745   0.593   3.208 -0.9052 -1.0109 -0.1482
   78MOL    H5344867   2.712   0.530   3.045  0.2488 -1.0650  1.1510
   78MOL    H5444868   2.567   0.774   3.152 -2.6666  0.7187 -2.6281
   78MOL    H5544869   2.536   0.692   3.004 -0.4733 -0.3348  0.3238
   78MOL    H5644870   2.299   0.634   3.086  1.0446  0.7719  0.2361
   78MOL    H5744871   2.250   0.760   3.292  0.8292  1.7463  1.2813
   78MOL    H5844872   2.319   0.464   3.335  0.7822  1.6605  0.1049
   78MOL    H5944873   2.166   0.541   3.305  0.1169  1.3048 -0.7068
   78MOL    C6044874   2.169   0.289   3.234  1.0253 -0.2854  0.4932
   78MOL    C6144875   2.177   0.160   3.153 -0.2019 -0.8448  0.2465
   78MOL    O6244876   2.128   0.058   3.231  0.1142  0.4166 -0.0174
   78MOL    C6344877   2.324   0.128   3.117  0.1491  0.6552  0.2100
   78MOL    O6444878   2.308   0.021   3.020 -0.4281  0.1775  0.3475
   78MOL    C6544879   2.315   0.073   2.883 -0.2035 -0.5430  0.9228
   78MOL    C6644880   2.270   7.667   2.781 -0.4206  0.5706  0.4467
   78MOL    C6744881   2.243   0.040   2.649 -0.5189 -0.8838  1.0335
   78MOL    O6844882   2.363   0.091   2.597  0.1949  0.0057 -0.7958
   78MOL    C6944883   2.360   0.166   2.478 -0.3643 -0.0423 -0.6402
   78MOL    O7044884   2.472   0.235   2.466 -0.9153 -0.0612  0.5644
   78MOL    C7144885   2.360   0.070   2.356 -0.3033  0.0741 -0.2626
   78MOL    O7244886   2.240   0.095   2.288  0.8216 -0.2071  0.1374
   78MOL    H7344887   2.064   0.306   3.258  0.4975 -2.4272 -0.1297
   78MOL    H7444888   2.217   0.270   3.330 -0.1943 -0.7329  1.0337
   78MOL    H7544889   2.114   0.161   3.065  0.3988  1.4276 -0.1869
   78MOL    H7644890   2.140   7.681   3.171  1.8642 -0.3914  1.2454
   78MOL    H7744891   2.377   0.219   3.093 -2.3546  2.3402  0.8526
   78MOL    H7844892   2.377   0.089   3.204  2.0010  0.8167 -0.8118
   78MOL    H7944893   2.417   0.099   2.858 -0.7745  1.7150  0.7692
   78MOL    H8044894   2.250   0.160   2.877  0.3465 -0.1541  0.5914
   78MOL    H8144895   2.178   7.621   2.818 -0.4003  1.8910  2.1843
   78MOL    H8244896   2.342   7.585   2.776  1.9513  2.5578  1.0566
   78MOL    H8344897   2.168   0.116   2.672  0.1358  0.3040 -0.6618
   78MOL    H8444898   2.198   7.655   2.590  1.4947 -2.2355  1.2963
   78MOL    H8544899   2.280   0.240   2.483  1.8349  2.2560  1.3127
   78MOL    H8644900   2.457   0.315   2.418 -2.2416 -0.4572  0.2955
   78MOL    H8744901   2.445   0.085   2.289 -0.3340  1.4549  0.0016
   78MOL    H8844902   2.364   7.662   2.392 -0.1335 -0.0702 -0.6801
   78MOL    C8944903   2.229   0.034   2.154 -0.6284 -0.3055 -0.1962
   78MOL    C9044904   2.086   0.036   2.095  0.2246  0.2033 -0.1161
   78MOL    O9144905   2.014   7.680   2.205 -0.4129  0.1046  0.9887
   78MOL    C9244906   2.039   0.180   2.055  0.0128  0.1723  0.3203
   78MOL    O9344907   1.919   0.175   1.982 -0.7623  0.8851  0.4327
   78MOL    C9444908   1.801   0.147   2.055  0.4371 -0.2500 -0.5297
   78MOL    C9544909   1.677   0.190   1.988  0.7661  0.3030 -0.4652
   78MOL    C9644910   1.558   0.156   2.079 -0.3585  0.4332  0.0910
   78MOL    O9744911   1.439   0.187   2.021 -0.2220 -0.4559  0.0103
   78MOL    C9844912   1.323   0.155   2.095  0.7636 -0.2674  0.1518
   78MOL    O9944913   1.287   0.246   2.201  0.1848  0.1943  0.7084
   78MOL   C10044914   1.211   0.128   1.999  0.1481  0.5185  0.5389
   78MOL   O10144915   1.151   0.249   1.952  0.1734 -0.3576 -0.0339
   78MOL   H10244916   2.256   7.623   2.157  0.8290  0.0973  1.6218
   78MOL   H10344917   2.303   0.082   2.090 -0.2375  0.6363  0.9534
   78MOL   H10444918   2.096   7.663   2.010 -0.7694  0.3643 -0.3665
   78MOL   H10544919   2.067   7.615   2.249  3.0810  0.1289 -2.8588
   78MOL   H10644920   2.015   0.238   2.144  1.0098 -2.5619  2.4616
   78MOL   H10744921   2.117   0.232   1.999  1.3944 -1.3786  0.7367
   78MOL   H10844922   1.807   0.209   2.144 -0.9898  1.4907 -1.6152
   78MOL   H10944923   1.804   0.044   2.090 -0.7140  0.0990  0.6444
   78MOL   H11044924   1.684   0.132   1.896 -3.2309  0.5854 -1.0295
   78MOL   H11144925   1.669   0.291   1.947 -0.8124 -0.7003 -2.7576
   78MOL   H11244926   1.554   0.051   2.108 -0.8416  0.3066 -0.4303
   78MOL   H11344927   1.566   0.207   2.175  1.4772  0.2205  0.0752
   78MOL   H11444928   1.336   0.060   2.147 -1.5758 -1.1848 -0.8847
   78MOL   H11544929   1.272   0.332   2.165  0.4193 -0.3867 -0.7877
   78MOL   H11644930   1.247   0.065   1.918 -2.8146 -1.1251  0.4344
   78MOL   H11744931   1.134   0.070   2.050  0.6053 -0.7797 -0.2158
   78MOL   C11844932   1.054   0.219   1.851 -0.2075 -0.0735  0.0059
   78MOL   C11944933   0.998   0.355   1.814  0.0334  0.6831 -0.3289
   78MOL   O12044934   0.954   0.418   1.937  0.1672  0.0000  0.5304
   78MOL   C12144935   0.895   0.339   1.702 -0.5832 -0.8376  0.1282
   78MOL   O12244936   0.919   0.245   1.597 -0.0233  0.3258  0.2860
   78MOL   C12344937   1.005   0.285   1.495  0.1657 -0.1118 -0.6335
   78MOL   C12444938   1.012   0.170   1.390  1.1094 -0.9180  0.1500
   78MOL   C12544939   1.101   0.205   1.266  0.5820 -0.1120 -0.2476
   78MOL   O12644940   1.037   0.311   1.196 -0.1629  0.2419  0.2217
   78MOL   C12744941   1.094   0.329   1.069  0.6809  0.1773  0.0903
   78MOL   O12844942   1.218   0.390   1.084  0.1382 -0.2243 -0.0061
   78MOL   C12944943   0.996   0.418   0.988 -0.4636 -0.0586  0.1489
   78MOL   O13044944   0.867   0.413   1.037  0.4310 -0.1053  0.3189
   78MOL   H13144945   1.095   0.175   1.760 -2.5274  2.1995 -2.1806
   78MOL   H13244946   0.976   0.148   1.880  0.6991 -1.5207 -1.0583
   78MOL   H13344947   1.078   0.405   1.760 -0.5042  1.1391 -0.7038
   78MOL   H13444948   1.023   0.393   1.996  1.0275 -0.8184 -0.8012
   78MOL   H13544949   0.809   0.294   1.752 -0.5186 -2.1337 -0.8893
   78MOL   H13644950   0.876   0.435   1.655 -0.7146 -1.2529 -0.6927
   78MOL   H13744951   1.103   0.313   1.533 -0.2546  0.9665 -0.3013
   78MOL   H13844952   0.971   0.375   1.445  1.3206  0.9322  0.4131
   78MOL   H13944953   0.913   0.138   1.356  0.6532  0.5936  0.0225
   78MOL   H14044954   1.053   0.092   1.454 -2.1437 -1.6449  1.4414
   78MOL   H14144955   1.203   0.241   1.282  0.3369  0.0741  0.8999
   78MOL   H14244956   1.104   0.113   1.208 -3.5945 -0.3097 -0.2708
   78MOL   H14344957   1.106   0.237   1.013 -0.1734  0.5330 -0.7009
   78MOL   H14444958   1.282   0.330   1.048  0.7429  0.7702 -0.6199
   78MOL   H14544959   1.017   0.524   1.001  0.0370 -0.0640 -0.5786
   78MOL   H14644960   1.013   0.399   0.882 -1.2526 -0.8877  0.1654
   78MOL   C14744961   0.804   0.294   1.003 -0.5093  0.5009 -0.3245
   78MOL   C14844962   0.664   0.272   1.070 -0.0483  0.8041 -0.2441
   78MOL   O14944963   0.573   0.370   1.012 -0.2026 -0.0361  0.8374
   78MOL   C15044964   0.678   0.288   1.219  0.6959 -0.0449 -0.4066
   78MOL   O15144965   0.572   0.236   1.298 -0.1910  0.0659 -0.5991
   78MOL   C15244966   0.562   0.292   1.427 -0.5802  0.0747  0.0965
   78MOL   C15344967   0.486   0.198   1.522  0.5052  0.7100  0.0061
   78MOL   C15444968   0.467   0.249   1.665 -0.0128  0.6658 -0.2833
   78MOL   O15544969   0.385   0.159   1.738 -0.0282  0.0081 -0.0700
   78MOL   C15644970   0.340   0.198   1.862 -0.0512  0.1256 -0.7737
   78MOL   O15744971   0.440   0.211   1.957  0.0570 -0.8329 -0.1301
   78MOL   C15844972   0.247   0.084   1.914 -0.5874 -0.1905  1.0197
   78MOL   O15944973   0.129   0.143   1.947 -0.9291 -0.3782  0.1199
   78MOL   H16044974   0.872   0.209   1.014  1.8301  2.6144  2.4616
   78MOL   H16144975   0.783   0.305   0.897  2.6702 -2.0354 -1.3086
   78MOL   H16244976   0.625   0.173   1.045 -1.7402  1.7683 -1.4632
   78MOL   H16344977   0.615   0.454   1.012 -0.6404  0.1979 -0.7408
   78MOL   H16444978   0.776   0.253   1.253  0.9681  0.8336 -0.2605
   78MOL   H16544979   0.679   0.396   1.234  0.7052  0.0693 -1.2336
   78MOL   H16644980   0.522   0.392   1.445 -0.4628 -0.0200  0.8757
   78MOL   H16744981   0.664   0.299   1.462  0.1313  3.2005 -2.3723
   78MOL   H16844982   0.525   0.097   1.516 -0.7640  0.2189 -0.0527
   78MOL   H16944983   0.386   0.195   1.479  1.6573  0.5593 -2.7678
   78MOL   H17044984   0.563   0.240   1.715 -0.1099 -0.4439 -0.2853
   78MOL   H17144985   0.423   0.349   1.669 -0.9848  0.1756  1.8066
   78MOL   H17244986   0.294   0.296   1.858 -0.9793 -0.1441  1.9660
   78MOL   H17344987   0.473   0.124   1.972  0.4521 -0.4622  1.2481
   78MOL   H17444988   0.225   0.033   1.821  0.3806  1.3808 -0.0824
   78MOL   H17544989   0.291   0.014   1.985  1.0516 -0.7847 -0.5569
   78MOL   C17644990   0.040   0.056   2.009 -0.0296  0.1701 -0.0733
   78MOL   C17744991   7.622   0.140   2.076  0.1941  0.5277  0.3606
   78MOL   O17844992   7.669   0.212   2.192  0.6156  0.3384  0.1293
   78MOL   C17944993   7.509   0.038   2.110  0.2338 -0.3671 -0.2835
   78MOL   O18044994   7.388   0.115   2.134 -0.3649 -0.2063  0.0091
   78MOL   C18144995   7.280   0.030   2.140  0.5959  0.4402 -0.5873
   78MOL   C18244996   7.141   0.101   2.141 -0.0018 -0.1575  0.5499
   78MOL   C18344997   7.024   0.011   2.153  0.3647  0.1084 -0.9813
   78MOL   O18444998   6.909   0.093   2.162 -0.3928  0.3881  0.0098
   78MOL   C18544999   6.790   0.026   2.159  0.8703  0.9626  0.4205
   78MOL   O18645000   6.748   0.006   2.027  0.1128  0.3357 -0.1273
   78MOL   C18745001   6.686   0.114   2.231  0.4264  0.0446 -0.4507
   78MOL   O18845002   6.676   0.246   2.174 -0.0265  0.7450 -0.5173
   78MOL   H18945003   0.093   7.685   2.078  1.2427  0.7790 -0.4631
   78MOL   H19045004   7.690   7.679   1.939  1.9967 -1.0112 -0.2059
   78MOL   H19145005   7.592   0.208   1.996  0.6676 -1.2006 -1.3294
   78MOL   H19245006   7.594   0.241   2.242  1.0705  0.0107  0.9987
   78MOL   H19345007   7.484   7.662   2.031 -1.6280 -2.4856  2.0884
   78MOL   H19445008   7.527   7.670   2.198  2.1109 -0.4501 -0.7085
   78MOL   H19545009   7.296   7.673   2.234  2.2908  0.2432 -0.9622
   78MOL   H19645010   7.277   7.651   2.059 -0.4297 -1.0431  0.7724
   78MOL   H19745011   7.127   0.171   2.059 -1.4519 -0.4610  0.5170
   78MOL   H19845012   7.147   0.144   2.241  0.6297 -0.3557  0.5986
   78MOL   H19945013   7.014   7.646   2.062 -1.0178 -0.5550 -0.4059
   78MOL   H20045014   7.034   7.639   2.239 -0.8621 -1.5165 -2.0552
   78MOL   H20145015   6.795   7.621   2.203  0.1397  0.9207  0.4129
   78MOL   H20245016   6.720   0.088   1.988 -1.3148 -0.1189 -0.1088
   78MOL   H20345017   6.594   0.056   2.223  1.4623 -1.6890 -0.0268
   78MOL   H20445018   6.720   0.126   2.334  0.8680 -0.5674 -0.5200
   78MOL   C20545019   6.574   0.335   2.216  0.0550  0.5413  0.1139
   78MOL   C20645020   6.585   0.470   2.148  0.4309 -0.1653 -0.4829
   78MOL   O20745021   6.541   0.460   2.016 -0.1090 -0.7381  0.3197
   78MOL   C20845022   6.487   0.579   2.203  0.0616 -0.5314 -0.1551
   78MOL   O20945023   6.507   0.698   2.123 -0.0276  0.2003  0.5021
   78MOL   C21045024   6.439   0.820   2.145 -0.2322  0.5063 -0.2089
   78MOL   C21145025   6.292   0.816   2.119 -0.7540  0.4059  0.1652
   78MOL   C21245026   6.225   0.947   2.158 -0.1785 -0.0319  0.1949
   78MOL   O21345027   6.088   0.950   2.126 -0.2980  0.2240  0.0673
   78MOL   C21445028   6.034   1.075   2.109 -0.5265  0.0828 -0.3661
   78MOL   O21545029   6.050   1.147   2.228 -0.4547  1.1413 -0.0179
   78MOL   C21645030   5.893   1.063   2.071 -0.0033  0.2641 -0.8916
   78MOL   O21745031   5.891   1.041   1.930  0.3760 -0.1121 -0.3546
   78MOL   H21845032   6.587   0.357   2.322 -1.5677  0.5550  0.3221
   78MOL   H21945033   6.474   0.299   2.193 -1.3224  3.2070  1.7599
   78MOL   H22045034   6.685   0.512   2.152  0.5608 -0.3138 -2.2046
   78MOL   H22145035   6.466   0.518   2.010  1.1241  0.7936 -0.9189
   78MOL   H22245036   6.383   0.548   2.210 -0.3311  1.0346  1.3007
   78MOL   H22345037   6.513   0.610   2.304  1.4798 -0.1905 -0.6150
   78MOL   H22445038   6.493   0.891   2.083 -1.9901  2.0996  0.0567
   78MOL   H22545039   6.448   0.849   2.250 -1.6383 -3.8216  1.2314
   78MOL   H22645040   6.243   0.740   2.180  0.8467  0.1950  1.2103
   78MOL   H22745041   6.281   0.793   2.013 -0.1938 -0.4441  0.2886
   78MOL   H22845042   6.239   0.973   2.263  0.6413  1.9333 -0.3722
   78MOL   H22945043   6.273   1.021   2.093  0.3296 -1.0142 -0.5639
   78MOL   H23045044   6.088   1.132   2.034 -1.0950  1.2615  0.1181
   78MOL   H23145045   5.975   1.125   2.280  1.5592 -3.2393  1.2928
   78MOL   H23245046   5.852   0.988   2.139 -0.2318  0.4377 -0.8385
   78MOL   H23345047   5.852   1.163   2.089 -0.6609 -0.2561  0.6141
   78MOL   C23445048   5.884   0.907   1.890 -0.5995 -0.6274  0.4203
   78MOL   C23545049   5.731   0.863   1.871 -0.1533  0.0179  0.0059
   78MOL   O23645050   5.685   0.796   1.979 -0.4360 -0.0483 -0.4830
   78MOL   C23745051   5.709   0.788   1.731 -0.4193  0.3506 -0.9735
   78MOL   O23845052   5.574   0.824   1.696 -0.1662  0.5705  0.2244
   78MOL   C23945053   5.540   0.779   1.567 -0.3084  0.0719  0.2485
   78MOL   C24045054   5.397   0.834   1.543 -0.0406 -0.0583  0.0531
   78MOL   C24145055   5.300   0.749   1.463  0.3172  0.7717  1.0555
   78MOL   O24245056   5.180   0.831   1.447 -0.3550  0.2875 -0.2347
   78MOL   C24345057   5.084   0.783   1.353 -0.5828  0.4771  0.0229
   78MOL   O24445058   5.111   0.796   1.217 -0.3917  0.4710  0.1197
   78MOL   C24545059   4.957   0.856   1.380  0.4334  1.1323 -0.0961
   78MOL   O24645060   4.964   0.999   1.350 -0.4692  0.3679  0.5963
   78MOL   H24745061   5.938   0.885   1.797 -1.3199 -3.0309  0.5276
   78MOL   H24845062   5.920   0.853   1.977  1.5109  0.7895  0.4594
   78MOL   H24945063   5.676   0.956   1.855 -0.1048 -0.0210 -0.3837
   78MOL   H25045064   5.592   0.778   1.977 -0.1825 -1.4097 -0.6172
   78MOL   H25145065   5.780   0.793   1.648 -2.0015  0.4762 -2.3328
   78MOL   H25245066   5.714   0.682   1.758  1.4070  0.3324 -1.2993
   78MOL   H25345067   5.534   0.673   1.540 -1.4031  0.4846 -1.1627
   78MOL   H25445068   5.606   0.822   1.492 -0.8793  1.3452  0.4604
   78MOL   H25545069   5.420   0.929   1.495  0.5404 -0.3676 -0.2876
   78MOL   H25645070   5.340   0.857   1.633  1.7722  1.4777  0.8381
   78MOL   H25745071   5.361   0.724   1.376  1.4674 -1.2970  2.4205
   78MOL   H25845072   5.273   0.654   1.510 -0.6294 -0.0014 -0.9411
   78MOL   H25945073   5.070   0.677   1.371  0.8088  0.1174 -0.9845
   78MOL   H26045074   5.065   0.875   1.193 -0.8906 -0.2410 -1.3148
   78MOL   H26145075   4.875   0.813   1.322 -0.0443 -0.3548  1.6562
   78MOL   H26245076   4.933   0.840   1.485  0.8894  0.3970 -0.0990
   78MOL   C26345077   4.844   1.063   1.382 -0.3704 -0.8020  0.3365
   78MOL   C26445078   4.853   1.216   1.366  0.1588 -0.3408 -0.5480
   78MOL   O26545079   4.724   1.266   1.359 -0.2711 -0.9770  0.1641
   78MOL   C26645080   4.941   1.287   1.477 -0.3382 -0.1074 -0.0747
   78MOL   O26745081   4.986   1.412   1.441 -0.3732 -0.2293 -0.2585
   78MOL   C26845082   4.885   1.510   1.446 -0.1380  0.0240  0.3215
   78MOL   C26945083   4.952   1.638   1.476  0.2735 -0.1018  0.3072
   78MOL   C27045084   4.860   1.757   1.487  0.4811 -0.6646  0.1287
   78MOL   O27145085   4.927   1.859   1.559  0.5008  0.0543  0.4193
   78MOL   C27245086   4.875   1.990   1.543 -0.1940 -0.6019  0.4722
   78MOL   O27345087   4.745   2.004   1.599  0.0855  0.5634  0.3134
   78MOL   C27445088   4.972   2.088   1.599  0.3663  0.5607  0.6831
   78MOL   O27545089   5.067   2.123   1.501  0.2955  0.5848  0.4732
   78MOL   H27645090   4.821   1.041   1.486  1.3523 -0.8045  0.7340
   78MOL   H27745091   4.769   1.025   1.313  0.4050  0.4177 -1.2009
   78MOL   H27845092   4.903   1.235   1.271  1.5919  0.8297  0.4052
   78MOL   H27945093   4.701   1.256   1.268  2.2210  3.7564 -1.1644
   78MOL   H28045094   4.909   1.279   1.581  0.5403 -0.0888  0.2077
   78MOL   H28145095   5.029   1.222   1.483 -1.4458 -1.6503 -0.4057
   78MOL   H28245096   4.816   1.485   1.527  0.4643 -0.3700  0.7180
   78MOL   H28345097   4.830   1.513   1.352 -1.8897  0.4763  1.3237
   78MOL   H28445098   5.044   1.650   1.418 -0.9087  1.7288 -1.2510
   78MOL   H28545099   4.989   1.624   1.577  0.3943 -2.5912 -0.0573
   78MOL   H28645100   4.834   1.789   1.386  0.4965 -0.1066  0.2977
   78MOL   H28745101   4.773   1.739   1.549  1.6257  0.3585  2.0936
   78MOL   H28845102   4.868   2.017   1.437  3.8768  1.6825  0.6677
   78MOL   H28945103   4.691   1.945   1.548 -0.4073 -0.6342  2.1946
   78MOL   H29045104   4.917   2.174   1.636 -0.8784 -0.0963  0.3650
   78MOL   H29145105   5.018   2.049   1.690  0.2853  0.7447  0.8023
   78MOL   C29245106   5.175   2.193   1.551  0.3604  0.4547 -0.2328
   78MOL   C29345107   5.265   2.225   1.429 -0.7255  0.2654  0.5404
   78MOL   O29445108   5.342   2.335   1.469  0.1644  0.2848 -0.3927
   78MOL   C29545109   5.362   2.115   1.389  0.0287  0.4482  0.1872
   78MOL   O29645110   5.371   2.097   1.249  0.5045 -0.1696  0.5426
   78MOL   C29745111   5.262   2.024   1.196 -0.2834  0.1771 -0.0694
   78MOL   C29845112   5.271   1.999   1.044 -0.3160 -0.4266 -0.9182
   78MOL   C29945113   5.145   1.925   0.980  0.0508 -0.1282 -0.1820
   78MOL   O30045114   5.040   2.023   0.973 -0.1612  0.5131 -0.2019
   78MOL   C30145115   4.923   1.978   0.926  0.3631 -0.1682  0.4540
   78MOL   O30245116   4.861   1.895   1.014 -0.8148 -0.8481  0.4393
   78MOL   C30345117   4.835   2.083   0.887  0.4551 -0.6964 -0.9671
   78MOL   O30445118   4.815   2.166   1.002 -0.1978 -0.0470  0.1768
   78MOL   H30545119   5.142   2.280   1.607 -2.2333 -1.4922  1.4165
   78MOL   H30645120   5.234   2.151   1.632 -0.7737 -1.4207 -0.3390
   78MOL   H30745121   5.203   2.263   1.347 -1.8982  1.5070  1.9827
   78MOL   H30845122   5.381   2.323   1.554 -1.6747 -3.2739  0.0237
   78MOL   H30945123   5.463   2.136   1.424 -0.4908  3.7383 -0.1708
   78MOL   H31045124   5.335   2.027   1.449  0.8699 -1.1171 -1.6591
   78MOL   H31145125   5.169   2.077   1.217 -0.6035 -0.0857 -0.8099
   78MOL   H31245126   5.247   1.925   1.239 -0.0714  0.1786  0.0116
   78MOL   H31345127   5.364   1.946   1.026  1.6861  2.7671 -0.2769
   78MOL   H31445128   5.283   2.096   0.995 -1.0334 -0.0809 -0.4229
   78MOL   H31545129   5.181   1.908   0.879  0.3415 -1.2539  0.1012
   78MOL   H31645130   5.114   1.833   1.030  0.5904 -0.7033 -0.8925
   78MOL   H31745131   4.943   1.917   0.838  0.2614  0.8688 -0.2922
   78MOL   H31845132   4.850   1.952   1.088 -1.7443  0.6064 -0.7774
   78MOL   H31945133   4.741   2.044   0.848 -0.4993 -0.1247  0.6956
   78MOL   H32045134   4.872   2.154   0.813  0.9167  0.8204  0.6869
   78MOL   C32145135   4.734   2.284   0.971 -0.2256  0.5623  0.1571
   78MOL   C32245136   4.737   2.376   1.096 -0.1430  0.1663  0.0431
   78MOL   O32345137   4.688   2.507   1.045 -0.4793 -0.4437 -0.2757
   78MOL   C32445138   4.649   2.333   1.215  0.1915  0.1550  0.1131
   78MOL   O32545139   4.674   2.440   1.306 -0.0743 -0.0644 -0.2424
   78MOL   C32645140   4.594   2.444   1.422  0.1810  0.2905 -0.0677
   78MOL   C32745141   4.655   2.344   1.530 -0.4145  0.5760  0.6683
   78MOL   C32845142   4.569   2.331   1.651  0.0207  0.0031  0.1766
   78MOL   O32945143   4.434   2.287   1.610  0.0559 -0.2813 -0.1512
   78MOL   C33045144   4.330   2.311   1.701  0.7130 -0.2838  0.4050
   78MOL   O33145145   4.279   2.438   1.679  0.2552  0.0012 -0.0536
   78MOL   C33245146   4.225   2.204   1.690 -0.4744  0.7301 -0.2239
   78MOL   O33345147   4.150   2.224   1.571 -0.3450 -0.2152  0.4545
   78MOL   H33445148   4.632   2.250   0.951  0.7018 -1.8120 -0.7103
   78MOL   H33545149   4.780   2.340   0.890  2.0603  0.1097  1.1187
   78MOL   H33645150   4.840   2.382   1.133 -0.8739 -0.7998  2.2839
   78MOL   H33745151   4.597   2.525   1.060 -0.2245  0.3386  0.3494
   78MOL   H33845152   4.675   2.235   1.256 -1.4662  0.0425  0.9100
   78MOL   H33945153   4.548   2.327   1.175  0.5154  0.1843 -0.7295
   78MOL   H34045154   4.494   2.418   1.387  1.0954 -1.0465 -1.7718
   78MOL   H34145155   4.586   2.548   1.454 -1.7911 -0.0452  0.5981
   78MOL   H34245156   4.679   2.249   1.480 -1.2515  1.0830 -0.7371
   78MOL   H34345157   4.747   2.388   1.567  0.5021  0.3768 -1.3090
   78MOL   H34445158   4.612   2.275   1.734 -1.8126 -0.0055  1.1535
   78MOL   H34545159   4.553   2.432   1.690  1.1829  0.3308 -0.1729
   78MOL   H34645160   4.378   2.301   1.799  0.8937 -0.6747  0.2780
   78MOL   H34745161   4.220   2.425   1.606 -1.0463  1.6008  0.6749
   78MOL   H34845162   4.276   2.107   1.690 -1.2075  0.3098 -3.3524
   78MOL   H34945163   4.156   2.230   1.770  0.8594  0.4939  1.0339
   78MOL   C35045164   4.048   2.119   1.563 -0.4975 -0.1699 -0.0611
   78MOL   C35145165   3.909   2.178   1.575  0.0991 -0.0954  0.6271
   78MOL   O35245166   3.869   2.247   1.458 -0.2932 -0.2357  0.3361
   78MOL   C35345167   3.791   2.080   1.598 -0.4773  0.0374  0.7232
   78MOL   O35445168   3.824   1.997   1.711  0.3646  0.4780 -0.5454
   78MOL   C35545169   3.788   2.056   1.842  0.2812  0.0138  0.2888
   78MOL   C35645170   3.855   1.976   1.953  0.6392  0.5309 -0.3488
   78MOL   C35745171   3.996   2.019   1.979  0.4075  0.1164 -0.0260
   78MOL   O35845172   3.978   2.143   2.049 -0.2470 -0.8288  0.1032
   78MOL   C35945173   4.098   2.191   2.100 -0.7470 -0.1673  0.3827
   78MOL   O36045174   4.140   2.297   2.016 -0.5238  0.3893 -0.3420
   78MOL   C36145175   4.067   2.253   2.237  0.0813  0.8944  0.0016
   78MOL   O36245176   4.196   2.283   2.294  0.6347 -0.6255 -0.3695
   78MOL   H36345177   4.057   2.042   1.639  0.9975  0.3708  0.3404
   78MOL   H36445178   4.058   2.077   1.463 -2.3283  1.1201 -0.8202
   78MOL   H36545179   3.913   2.261   1.646  2.1089  1.2843 -1.0398
   78MOL   H36645180   3.923   2.323   1.448  0.9100 -1.2270 -0.9272
   78MOL   H36745181   3.698   2.133   1.618  0.3199  1.3011  1.1883
   78MOL   H36845182   3.778   2.014   1.513  0.0794 -0.6398  1.1561
   78MOL   H36945183   3.682   2.052   1.863  0.6113  0.0509  1.9891
   78MOL   H37045184   3.807   2.163   1.845 -0.3805  0.1771 -0.8643
   78MOL   H37145185   3.855   1.875   1.914  1.2562  0.1693  0.5630
   78MOL   H37245186   3.802   1.971   2.048 -2.3411  0.2732 -1.9729
   78MOL   H37345187   4.054   1.948   2.038  3.7169  2.4977 -0.2371
   78MOL   H37445188   4.051   2.032   1.886 -0.8404  0.8737 -0.6720
   78MOL   H37545189   4.176   2.115   2.103  1.3684  1.8750 -1.7159
   78MOL   H37645190   4.231   2.306   2.041 -0.9975  1.9601  0.9069
   78MOL   H37745191   4.004   2.342   2.225  0.0296  0.5394 -2.6230
   78MOL   H37845192   4.012   2.176   2.291  2.2474 -0.8050 -0.1814
   78MOL   C37945193   4.182   2.309   2.435  0.7256 -0.1883  0.7178
   78MOL   C38045194   4.316   2.362   2.491  0.3821  0.5217  0.5877
   78MOL   O38145195   4.364   2.475   2.421 -0.1245 -0.1588 -0.0979
   78MOL   C38245196   4.319   2.375   2.645 -0.6639  0.0347 -0.2207
   78MOL   O38345197   4.281   2.251   2.691  0.5526 -0.0889  0.2100
   78MOL   C38445198   4.313   2.245   2.834  0.6404 -0.2183  0.6021
   78MOL   C38545199   4.189   2.204   2.914  0.1939  0.1271  0.7412
   78MOL   C38645200   4.196   2.166   3.067 -0.6586 -0.7851 -0.0358
   78MOL   O38745201   4.189   2.286   3.132  0.2291 -0.2298 -0.5905
   78MOL   C38845202   4.195   2.271   3.270 -0.4495  0.5903 -0.3523
   78MOL   O38945203   4.322   2.219   3.305  0.3184 -0.6906 -0.0694
   78MOL   C39045204   4.202   2.404   3.341  0.8681 -0.5978  0.6394
   78MOL   O39145205   4.318   2.480   3.302 -0.3982 -0.6459  0.3375
   78MOL   H39245206   4.160   2.212   2.478  1.5390 -0.3572  0.7622
   78MOL   H39345207   4.105   2.379   2.467  0.1021  0.4368 -1.9871
   78MOL   H39445208   4.380   2.282   2.453 -1.0015  0.7261 -2.4156
   78MOL   H39545209   4.313   2.461   2.342  0.1164 -0.1133 -0.2621
   78MOL   H39645210   4.417   2.406   2.683 -1.1601  2.8412 -1.1158
   78MOL   H39745211   4.249   2.450   2.683  1.6408  0.7849  2.7335
   78MOL   H39845212   4.359   2.334   2.878  1.5162 -0.8782  1.0384
   78MOL   H39945213   4.392   2.172   2.851  0.4673 -0.3065  1.0104
   78MOL   H40045214   4.144   2.123   2.856 -0.8880  1.0508  0.2841
   78MOL   H40145215   4.119   2.287   2.917 -0.9451 -0.7283 -0.7844
   78MOL   H40245216   4.109   2.108   3.099 -0.9576 -1.0449 -1.2666
   78MOL   H40345217   4.279   2.106   3.104 -1.6055 -2.2727 -0.2464
   78MOL   H40445218   4.117   2.207   3.311 -0.1311  0.6152  0.3028
   78MOL   H40545219   4.378   2.293   3.290  0.3721 -0.8713 -0.8048
   78MOL   H40645220   4.103   2.448   3.330  0.0086 -2.5510  0.3793
   78MOL   H40745221   4.197   2.383   3.448  0.3967  0.7493  0.8963
   78MOL   C40845222   4.317   2.524   3.165 -0.0343  0.1170 -0.3029
   78MOL   C40945223   4.428   2.640   3.160  0.4218 -0.0286  0.3694
   78MOL   O41045224   4.409   2.716   3.044 -0.0691  0.5071 -0.1672
   78MOL   C41145225   4.571   2.592   3.164 -0.1367  0.0598 -0.1471
   78MOL   O41245226   4.586   2.511   3.056  0.0844  0.2842 -0.1043
   78MOL   C41345227   4.692   2.420   3.065 -0.4203  0.2135  0.5118
   78MOL   C41445228   4.677   2.338   2.937 -0.1785  0.2576  0.1688
   78MOL   C41545229   4.701   2.421   2.812 -0.2494 -0.3011  0.5417
   78MOL   O41645230   4.703   2.334   2.698 -0.1902 -0.0514 -0.5369
   78MOL   C41745231   4.769   2.399   2.589 -0.8800  0.4656 -0.1804
   78MOL   O41845232   4.696   2.505   2.547  0.0032  0.5638  0.0724
   78MOL   C41945233   4.779   2.298   2.479  1.1449  0.4552 -0.1356
   78MOL   O42045234   4.648   2.257   2.441 -0.1779 -0.1169 -0.2314
   78MOL   H42145235   4.221   2.562   3.133 -1.6815 -3.0954  0.5683
   78MOL   H42245236   4.346   2.442   3.099 -1.7792 -1.4166  0.7762
   78MOL   H42345237   4.401   2.713   3.235  1.0404  0.1566  0.4173
   78MOL   H42445238   4.432   2.659   2.972 -1.0930  2.6658 -2.2932
   78MOL   H42545239   4.649   2.668   3.165  1.0645 -1.1591  0.9716
   78MOL   H42645240   4.585   2.531   3.254  1.9329  2.5861  1.3074
   78MOL   H42745241   4.790   2.468   3.070  0.6485 -1.5349 -2.2357
   78MOL   H42845242   4.685   2.347   3.145 -0.6439 -3.0729 -2.3681
   78MOL   H42945243   4.577   2.297   2.947  0.1742 -0.4868  0.7744
   78MOL   H43045244   4.752   2.258   2.940 -0.8372 -0.3444  0.8051
   78MOL   H43145245   4.624   2.499   2.810 -2.0504 -2.0638 -0.9288
   78MOL   H43245246   4.796   2.475   2.818  0.4645 -1.3672 -0.8752
   78MOL   H43345247   4.872   2.429   2.610 -0.4963 -2.1143  1.9368
   78MOL   H43445248   4.622   2.461   2.509  1.6922 -1.6206 -0.7489
   78MOL   H43545249   4.839   2.338   2.397 -0.3719  2.0509 -0.4982
   78MOL   H43645250   4.839   2.212   2.509  0.8938  0.2712 -0.1507
   78MOL   C43745251   4.627   2.116   2.439 -0.5364 -0.2694 -0.6489
   78MOL   C43845252   4.562   2.063   2.566 -0.1895 -0.6177  0.6599
   78MOL   O43945253   4.657   2.067   2.673 -0.4072  0.3131 -0.7050
   78MOL   C44045254   4.517   1.918   2.554 -0.1945 -0.3030 -0.0640
   78MOL   O44145255   4.438   1.896   2.438 -0.1136  0.0249 -0.5740
   78MOL   C44245256   4.311   1.948   2.441  0.5862 -0.5654 -0.1866
   78MOL   C44345257   4.241   1.918   2.314  0.2768  0.4318 -0.1120
   78MOL   C44445258   4.173   1.777   2.316  0.0886 -0.2536  0.2705
   78MOL   O44545259   4.102   1.753   2.188 -0.0963 -0.0808 -0.6475
   78MOL   C44645260   4.078   1.623   2.162 -0.5618  0.0105  0.0282
   78MOL   O44745261   4.197   1.558   2.122  0.8109  0.1215 -0.0425
   78MOL   C44845262   3.966   1.615   2.056  0.0721 -0.0859 -0.1812
   78MOL   O44945263   4.011   1.664   1.931 -0.1396 -0.2005  0.0978
   78MOL   H45045264   4.557   2.093   2.358 -0.3971 -0.6477 -0.6644
   78MOL   H45145265   4.716   2.059   2.413 -0.1084  0.1056 -0.0146
   78MOL   H45245266   4.478   2.112   2.615 -0.1078 -0.3609  0.5410
   78MOL   H45345267   4.665   2.156   2.701 -0.8212 -0.1618  0.9888
   78MOL   H45445268   4.604   1.852   2.552  0.4996  0.5789  0.4554
   78MOL   H45545269   4.460   1.894   2.644 -0.3484  0.7744  0.1261
   78MOL   H45645270   4.309   2.054   2.469 -1.4913 -0.8982  1.1100
   78MOL   H45745271   4.253   1.905   2.523 -1.7842  1.4809 -0.7099
   78MOL   H45845272   4.297   1.939   2.222 -0.5524  0.0530 -0.7172
   78MOL   H45945273   4.161   1.991   2.324 -0.6716 -0.8847  2.4443
   78MOL   H46045274   4.258   1.709   2.313 -1.4152 -2.1723  0.4644
   78MOL   H46145275   4.113   1.748   2.402 -1.8467  3.7160  0.3851
   78MOL   H46245276   4.039   1.575   2.252 -3.1202  0.6283 -0.7069
   78MOL   H46345277   4.198   1.567   2.027 -1.2349  1.3060  0.0252
   78MOL   H46445278   3.938   1.510   2.046 -0.5347 -0.0588  1.0671
   78MOL   H46545279   3.882   1.676   2.089 -0.8388 -0.8705 -0.9768
   78MOL   C46645280   3.919   1.631   1.824 -0.0092 -0.4675 -0.4727
   78MOL   C46745281   3.968   1.712   1.693 -0.5793  0.5506 -0.1903
   78MOL   O46845282   4.076   1.634   1.650 -0.1769  0.6313  0.2145
   78MOL   C46945283   3.868   1.714   1.570  0.2660 -0.1952 -0.3375
   78MOL   O47045284   3.929   1.797   1.471  0.5426 -0.8498 -0.9813
   78MOL   C47145285   3.866   1.793   1.341  0.5848 -0.5882  0.1182
   78MOL   C47245286   3.908   1.919   1.277  0.0128  0.5936 -0.1148
   78MOL   C47345287   3.867   1.924   1.130  0.2511  0.4446 -0.0913
   78MOL   O47445288   3.908   2.046   1.080 -0.0852  0.3642  0.3627
   78MOL   C47545289   3.876   2.067   0.947 -0.0656  0.0845  0.2286
   78MOL   O47645290   3.962   1.983   0.867 -0.0792 -0.3550  0.1135
   78MOL   C47745291   3.894   2.215   0.905  0.2608 -0.0461 -1.3423
   78MOL   O47845292   3.792   2.263   0.815  0.8309  0.1370  0.2503
   78MOL   H47945293   3.825   1.674   1.855  1.1559  1.7887  0.0053
   78MOL   H48045294   3.916   1.524   1.802 -0.4716  0.0563 -3.2114
   78MOL   H48145295   3.992   1.812   1.727  1.7273  0.1134 -0.4000
   78MOL   H48245296   4.143   1.691   1.616 -0.5630  0.9396 -0.0351
   78MOL   H48345297   3.854   1.616   1.522  0.0405 -0.5452  0.4351
   78MOL   H48445298   3.771   1.758   1.595  1.2936  1.9074  0.0405
   78MOL   H48545299   3.758   1.804   1.352  0.7009  0.2409  0.4693
   78MOL   H48645300   3.881   1.694   1.299 -2.4415 -0.6954 -0.8267
   78MOL   H48745301   4.017   1.929   1.281  0.2270 -1.8348  0.4497
   78MOL   H48845302   3.863   2.011   1.314  0.8296  1.3243 -0.8869
   78MOL   H48945303   3.920   1.836   1.094  1.3961  1.5574 -1.1738
   78MOL   H49045304   3.760   1.908   1.120  0.1691  0.7026  0.3699
   78MOL   H49145305   3.775   2.028   0.938 -0.3195  0.8016 -0.0358
   78MOL   H49245306   4.049   2.020   0.858 -0.9940  0.9310 -4.6073
   78MOL   H49345307   3.884   2.285   0.988 -0.5204  0.4561 -1.8483
   78MOL   H49445308   3.994   2.240   0.868  0.7910  0.1825  0.2111
   78MOL   C49545309   3.675   2.317   0.865 -0.2582 -0.0746 -0.7182
   78MOL   C49645310   3.580   2.371   0.765 -0.1780  0.3456  0.0040
   78MOL   O49745311   3.538   2.267   0.679 -0.1841  0.4569 -0.4249
   78MOL   C49845312   3.454   2.422   0.847  0.6225 -0.2476 -0.3551
   78MOL   O49945313   3.342   2.458   0.757  0.7406  0.0683 -0.3139
   78MOL   C50045314   3.275   2.578   0.790 -0.4173 -0.2168 -0.6794
   78MOL   C50145315   3.169   2.548   0.901  0.8364  0.1263 -0.2019
   78MOL   C50245316   3.102   2.680   0.949 -0.1100 -0.7794 -0.8056
   78MOL   O50345317   3.199   2.770   0.980 -0.2523 -0.4390 -0.2429
   78MOL   C50445318   3.162   2.894   1.031 -1.0679  0.3911 -0.6768
   78MOL   O50545319   3.082   2.972   0.950  0.1922 -0.0365 -0.7418
   78MOL   C50645320   3.290   2.971   1.045 -0.3072  0.4064  0.4901
   78MOL   O50745321   3.328   3.005   0.911  0.2069  0.4385 -0.1984
   78MOL   H50845322   3.712   2.394   0.933 -0.0163  0.1020 -1.0448
   78MOL   H50945323   3.621   2.235   0.912  1.1091 -1.9184 -2.2825
   78MOL   H51045324   3.640   2.451   0.720  0.0652 -1.1714 -2.4951
   78MOL   H51145325   3.458   2.294   0.638 -0.8021  2.0673  1.7206
   78MOL   H51245326   3.416   2.342   0.911  1.5988  0.1459  0.7301
   78MOL   H51345327   3.498   2.496   0.914  0.4962 -0.9950  0.5630
   78MOL   H51445328   3.211   2.599   0.704 -1.5856 -0.1479  0.1852
   78MOL   H51545329   3.335   2.668   0.804  0.3187 -0.7794 -0.1984
   78MOL   H51645330   3.225   2.517   0.989 -1.5785 -2.1026  0.6025
   78MOL   H51745331   3.107   2.465   0.866  2.0837 -1.0111  0.2674
   78MOL   H51845332   3.016   2.707   0.888 -1.0936 -3.5656 -0.7123
   78MOL   H51945333   3.055   2.654   1.044  0.6340  1.4985  0.2377
   78MOL   H52045334   3.110   2.882   1.126 -2.0206  0.2892 -1.2053
   78MOL   H52145335   3.128   2.993   0.870  1.4400 -3.1247 -0.9109
   78MOL   H52245336   3.268   3.070   1.086  2.0240  0.8899  0.6776
   78MOL   H52345337   3.376   2.925   1.095 -0.5513  0.4443  0.9453
   78MOL   C52445338   3.456   3.057   0.898 -0.8986 -0.3587  0.0161
   78MOL   C52545339   3.490   3.041   0.742 -0.0635 -0.3875 -0.1046
   78MOL   O52645340   3.404   3.100   0.667 -0.5838 -0.3853  0.5262
   78MOL   C52745341   3.491   2.892   0.696 -0.8348  0.1761  0.2461
   78MOL   O52845342   3.542   2.870   0.565  0.0706 -0.2243  0.1592
   78MOL   C52945343   3.529   2.734   0.533  0.1860  0.0809  0.0026
   78MOL   C53045344   3.590   2.702   0.403 -0.0159 -0.3233 -0.3242
   78MOL   C53145345   3.538   2.792   0.295 -0.3714 -0.4711 -0.4593
   78MOL   O53245346   3.400   2.774   0.268 -0.4597 -0.8150 -0.1123
   78MOL   C53345347   3.343   2.854   0.177  0.5010 -0.4978 -0.4651
   78MOL   O53445348   3.364   2.824   0.041  0.9123  0.1270  0.0570
   78MOL   C53545349   3.196   2.853   0.197  0.2212  0.1719 -0.0421
   78MOL   O53645350   3.142   2.944   0.295  0.4431 -0.1792 -0.1072
   78MOL   H53745351   3.535   2.999   0.945  0.9764  1.9933 -0.0983
   78MOL   H53845352   3.454   3.166   0.911 -0.4367 -0.1308 -1.7775
   78MOL   H53945353   3.586   3.087   0.720 -0.6884  1.2236  0.4646
   78MOL   H54045354   3.322   3.053   0.663 -0.8887  0.2302 -0.8167
   78MOL   H54145355   3.552   2.835   0.766 -0.4860 -2.2085 -1.9378
   78MOL   H54245356   3.390   2.850   0.698 -0.7703  0.0166  0.1426
   78MOL   H54345357   3.424   2.706   0.520 -0.2919  1.1236  1.5194
   78MOL   H54445358   3.574   2.666   0.606 -1.0911 -1.9872 -1.0762
   78MOL   H54545359   3.584   2.598   0.371  1.3430 -0.6128  0.3078
   78MOL   H54645360   3.698   2.710   0.416  0.2015 -3.1516  0.0397
   78MOL   H54745361   3.552   2.890   0.341  2.4478 -0.6367 -0.9069
   78MOL   H54845362   3.591   2.774   0.202 -0.8319  2.2687 -1.2843
   78MOL   H54945363   3.380   2.956   0.186 -2.2360  0.5845 -1.1911
   78MOL   H55045364   3.305   2.755   0.013  0.7586  0.5165 -0.5828
   78MOL   H55145365   3.150   2.868   0.100  1.3165 -0.7285 -0.7187
   78MOL   H55245366   3.158   2.753   0.218  2.5371 -0.9591 -0.9584
   78MOL   C55345367   3.163   2.891   0.424 -0.2938  0.3400 -0.5091
   78MOL   C55445368   3.091   2.975   0.536 -0.1784 -0.3261 -0.7428
   78MOL   O55545369   3.154   2.942   0.658  0.5725  0.4051  0.2042
   78MOL   C55645370   2.947   2.939   0.558 -0.5255 -0.2778 -0.6520
   78MOL   O55745371   2.941   2.797   0.578 -0.8676 -0.1792  0.0887
   78MOL   C55845372   2.816   2.738   0.575 -0.9053  0.3143  0.3428
   78MOL   C55945373   2.722   2.785   0.683  0.7324  0.0205  0.8173
   78MOL   C56045374   2.590   2.716   0.680 -0.6857  0.3951  0.1304
   78MOL   O56145375   2.504   2.752   0.785  0.4460  0.1996 -0.6311
   78MOL   C56245376   2.381   2.694   0.772 -0.6044 -0.4597 -0.5141
   78MOL   O56345377   2.377   2.554   0.799 -0.1979 -0.1638  0.2154
   78MOL   C56445378   2.292   2.776   0.861 -0.9988  0.0967 -0.2854
   78MOL   O56545379   2.318   2.742   0.997  0.0863  0.3475 -0.4710
   78MOL   H56645380   3.267   2.901   0.454  0.1505 -2.5372 -0.9305
   78MOL   H56745381   3.153   2.783   0.432  1.5163  0.1579 -0.4834
   78MOL   H56845382   3.098   3.083   0.525 -1.2427 -0.1780  0.0196
   78MOL   H56945383   3.124   2.855   0.678  1.5467  0.0765  0.2353
   78MOL   H57045384   2.918   3.006   0.639  2.1097  0.1295 -0.0108
   78MOL   H57145385   2.888   2.972   0.473 -0.8577  1.1533  0.1122
   78MOL   H57245386   2.773   2.752   0.475  1.9150 -0.1856 -0.9998
   78MOL   H57345387   2.837   2.631   0.586  0.3136  0.4923 -0.1558
   78MOL   H57445388   2.708   2.893   0.679  0.7563 -0.0500 -1.8836
   78MOL   H57545389   2.773   2.761   0.776  2.2770 -1.2271 -0.3354
   78MOL   H57645390   2.546   2.751   0.586  1.0537  0.0572 -0.8296
   78MOL   H57745391   2.598   2.607   0.681  2.2122  0.5420 -1.1728
   78MOL   H57845392   2.354   2.698   0.667  1.5674  0.1215 -1.0571
   78MOL   H57945393   2.302   2.537   0.855  1.6175 -2.0603  2.2021
   78MOL   H58045394   2.317   2.882   0.854  0.5694 -0.2421  0.1209
   78MOL   H58145395   2.188   2.767   0.828 -1.1800 -1.4527  0.6363
   78MOL   H58245396   2.402   2.698   0.997  0.2714  0.6744  0.7157
   79MOL     C145397   2.636   0.948   6.270 -0.4912  0.3426  0.3790
   79MOL     C245398   2.667   1.027   6.144 -0.6810  0.4679 -0.3888
   79MOL     O345399   2.799   1.067   6.144  0.3385  0.1170 -0.4931
   79MOL     C445400   2.646   0.945   6.010 -0.2270  0.0095 -0.0776
   79MOL     O545401   2.706   0.813   6.006 -0.4514 -0.6987  0.4585
   79MOL     C645402   2.831   0.802   5.944  0.3700  0.0320  0.1190
   79MOL     C745403   2.895   0.664   5.976 -0.7275  0.2498  0.4167
   79MOL     C845404   2.814   0.541   5.930 -0.1982  0.3301 -0.3818
   79MOL     O945405   2.887   0.429   5.983  0.2827 -0.2406 -0.0578
   79MOL    C1045406   2.857   0.300   5.916 -0.2355 -0.5111  1.2844
   79MOL    O1145407   2.722   0.260   5.922  0.2652  0.4328  0.0315
   79MOL    C1245408   2.945   0.184   5.973  0.1428  0.1866 -0.2789
   79MOL    O1345409   2.937   0.181   6.118  0.1932  0.6078 -0.0649
   79MOL    H1445410   2.696   0.859   6.292 -3.0411 -1.5029  0.0920
   79MOL    H1545411   2.533   0.912   6.273 -0.3823 -0.2209 -1.6544
   79MOL    H1645412   2.612   1.121   6.149  0.4259  1.1244 -0.2456
   79MOL    H1745413   2.841   0.993   6.104  1.2020  0.9004 -1.0373
   79MOL    H1845414   2.539   0.930   5.994 -0.1943  1.2619 -1.5973
   79MOL    H1945415   2.669   1.005   5.922 -0.7463 -1.0232 -0.9348
   79MOL    H2045416   2.897   0.882   5.977 -0.3627  0.6785  0.0463
   79MOL    H2145417   2.827   0.806   5.835 -0.5490  0.6253  0.1638
   79MOL    H2245418   2.890   0.668   6.084  0.9189  0.1501  0.5122
   79MOL    H2345419   2.994   0.668   5.930 -0.6809  2.8713  0.6516
   79MOL    H2445420   2.712   0.551   5.968  0.2735 -0.9397  1.2874
   79MOL    H2545421   2.811   0.538   5.821  5.2774  0.0956 -0.6452
   79MOL    H2645422   2.876   0.320   5.810 -1.3434  1.6332  1.4789
   79MOL    H2745423   2.716   0.217   6.005 -1.9064 -1.1866 -0.9404
   79MOL    H2845424   2.912   0.085   5.940  1.3262 -0.0526 -0.7577
   79MOL    H2945425   3.051   0.187   5.949 -0.0184  1.8497 -0.8347
   79MOL    H3045426   2.636   1.015   6.355 -2.7727  2.5441 -1.2713
   79MOL    C3145427   3.045   0.098   6.177  0.1929 -0.4328 -0.1040
   79MOL    C3245428   3.012   0.079   6.330 -0.2245 -0.6490  0.0806
   79MOL    O3345429   2.895   0.003   6.349 -0.3048  0.2086  0.3683
   79MOL    C3445430   3.012   0.216   6.402  0.3709  0.3331 -0.6054
   79MOL    O3545431   3.147   0.259   6.400 -0.1196  0.1368  0.2016
   79MOL    C3645432   3.170   0.390   6.443 -0.0383 -0.2481  1.0862
   79MOL    C3745433   3.316   0.408   6.482 -0.2441 -0.2672  0.1710
   79MOL    C3845434   3.347   0.555   6.526 -0.7372  0.0927 -0.4788
   79MOL    O3945435   3.487   0.578   6.539  0.4475  0.2081 -1.1203
   79MOL    C4045436   3.525   0.697   6.608  0.5551 -0.0537  0.3867
   79MOL    O4145437   3.481   0.812   6.539 -0.1551 -0.1885 -0.5060
   79MOL    C4245438   3.677   0.690   6.624 -0.2267  0.5072 -0.7462
   79MOL    O4345439   3.718   0.617   6.735 -0.7269  0.0789 -0.1735
   79MOL    H4445440   3.046   7.693   6.133  1.4926  0.2668 -1.7468
   79MOL    H4545441   3.151   0.121   6.159  0.8756 -3.7656 -0.6129
   79MOL    H4645442   3.092   0.020   6.375  1.0305 -0.1953 -1.5281
   79MOL    H4745443   2.832   0.050   6.401 -2.0106 -1.9446  0.3560
   79MOL    H4845444   2.941   0.281   6.351 -0.8912  1.2225  2.1429
   79MOL    H4945445   2.979   0.208   6.506 -0.5240 -0.0832 -0.9195
   79MOL    H5045446   3.106   0.413   6.528 -2.3789  1.2958 -0.9964
   79MOL    H5145447   3.144   0.460   6.364  1.2863 -0.6344  0.2999
   79MOL    H5245448   3.367   0.388   6.387 -0.2312  0.5728 -0.0061
   79MOL    H5345449   3.350   0.336   6.557  0.7784  0.2339  0.1975
   79MOL    H5445450   3.292   0.629   6.468 -1.3305  0.7514  0.8987
   79MOL    H5545451   3.307   0.567   6.626  1.4894 -1.7051  0.6865
   79MOL    H5645452   3.481   0.698   6.708  2.0243  0.7008  1.0274
   79MOL    H5745453   3.475   0.873   6.611  0.0190 -0.7532 -0.0133
   79MOL    H5845454   3.730   0.670   6.531  1.5878  0.1388  0.3468
   79MOL    H5945455   3.709   0.788   6.663 -0.3416  0.0872  0.4415
   79MOL    C6045456   3.854   0.601   6.745  0.5420  0.2304 -0.3051
   79MOL    C6145457   3.899   0.470   6.707 -0.1329  0.2884  0.8218
   79MOL    O6245458   3.993   0.413   6.796 -0.3498 -0.0505 -0.5295
   79MOL    C6345459   3.950   0.463   6.554  0.5154  0.6198  0.0355
   79MOL    O6445460   3.927   0.331   6.498 -0.0605 -0.1325 -0.8152
   79MOL    C6545461   3.950   0.316   6.355 -0.2402  0.1628  0.1421
   79MOL    C6645462   3.818   0.285   6.292  0.0289 -0.2663  0.4824
   79MOL    C6745463   3.825   0.260   6.140  0.1332  0.1461 -0.1153
   79MOL    O6845464   3.698   0.222   6.098 -0.8701 -0.1158 -0.0775
   79MOL    C6945465   3.679   0.169   5.972  0.1885  0.1516 -0.4522
   79MOL    O7045466   3.728   0.041   5.969 -0.2016 -0.3859  0.0474
   79MOL    C7145467   3.530   0.165   5.943  0.5183 -0.0134 -0.8832
   79MOL    O7245468   3.492   0.284   5.883  0.3022  0.2668  0.1208
   79MOL    H7345469   3.878   0.605   6.852 -2.9044  1.0245  0.4997
   79MOL    H7445470   3.916   0.682   6.706  1.1930 -0.7309 -1.2664
   79MOL    H7545471   3.812   0.405   6.707 -0.4321  0.6889  0.5985
   79MOL    H7645472   4.081   0.417   6.762 -0.1796 -0.0133 -0.0914
   79MOL    H7745473   3.888   0.525   6.489 -1.8900 -1.3632  0.3559
   79MOL    H7845474   4.055   0.493   6.551  0.7015 -0.1073 -1.8231
   79MOL    H7945475   4.020   0.236   6.329 -0.5431  0.6108 -2.2127
   79MOL    H8045476   3.983   0.409   6.308  0.9032 -1.0432 -1.5244
   79MOL    H8145477   3.759   0.376   6.304  1.5680  0.6543  1.1970
   79MOL    H8245478   3.771   0.196   6.332  2.0192 -1.6258 -0.1393
   79MOL    H8345479   3.893   0.177   6.120 -1.3183 -1.2335  0.6440
   79MOL    H8445480   3.867   0.349   6.092 -0.9276 -0.3137 -1.9579
   79MOL    H8545481   3.726   0.225   5.891 -0.8173  0.5325 -0.7801
   79MOL    H8645482   3.714   7.689   6.050  0.0295 -0.8324 -0.1645
   79MOL    H8745483   3.509   0.092   5.865  0.4687 -0.7450 -0.1927
   79MOL    H8845484   3.479   0.135   6.034 -0.2111  0.2203 -1.2145
   79MOL    C8945485   3.359   0.314   5.887  0.5235  0.2853  0.1538
   79MOL    C9045486   3.322   0.373   5.748  0.5442 -0.2383 -1.1122
   79MOL    O9145487   3.342   0.284   5.641 -0.0949  0.2085 -0.3118
   79MOL    C9245488   3.174   0.400   5.742  0.3130 -0.4404 -0.2559
   79MOL    O9345489   3.147   0.465   5.617  0.5201  0.2315 -0.2423
   79MOL    C9445490   3.021   0.527   5.606 -0.2957 -0.2431 -0.2336
   79MOL    C9545491   3.007   0.575   5.464  0.0828 -0.4820  0.2787
   79MOL    C9645492   2.877   0.647   5.420  0.6546 -0.0205  0.2994
   79MOL    O9745493   2.886   0.780   5.459  0.0753 -0.4386  0.3528
   79MOL    C9845494   2.779   0.856   5.438  0.6034  0.0594 -0.4876
   79MOL    O9945495   2.672   0.831   5.529 -0.2394 -0.1265  0.4525
   79MOL   C10045496   2.815   1.006   5.441 -0.2272 -0.8339  0.4150
   79MOL   O10145497   2.882   1.032   5.560 -0.0027 -0.7954  0.9404
   79MOL   H10245498   3.329   0.370   5.975  2.2591  0.8508  0.3861
   79MOL   H10345499   3.310   0.216   5.888 -3.1525  2.0581  0.5743
   79MOL   H10445500   3.384   0.459   5.727  1.9332 -1.0294 -0.3153
   79MOL   H10545501   3.292   0.309   5.564  0.1503 -0.8259 -0.8166
   79MOL   H10645502   3.124   0.304   5.741 -0.0552 -0.2567  0.3396
   79MOL   H10745503   3.125   0.456   5.822 -1.4740 -1.4657 -0.6183
   79MOL   H10845504   3.005   0.608   5.677 -0.3919 -1.1401  0.7784
   79MOL   H10945505   2.937   0.458   5.617 -1.8197  1.5383 -0.4972
   79MOL   H11045506   3.007   0.488   5.397 -0.7983 -0.8333  0.7368
   79MOL   H11145507   3.094   0.631   5.430 -1.3964  0.5098 -2.0464
   79MOL   H11245508   2.879   0.637   5.312  2.9119  0.2910  0.2815
   79MOL   H11345509   2.791   0.588   5.454 -0.1731  0.3036 -1.2132
   79MOL   H11445510   2.734   0.831   5.342 -1.6944  0.7982  0.3754
   79MOL   H11545511   2.698   0.869   5.612 -1.9603 -0.0310  0.9695
   79MOL   H11645512   2.873   1.040   5.356 -2.2484  1.2775 -0.1838
   79MOL   H11745513   2.724   1.065   5.431  0.2070 -0.0569  0.9544
   79MOL   C11845514   2.825   1.136   5.643  0.0392  0.1389 -0.6194
   79MOL   C11945515   2.934   1.153   5.751  0.1745  0.0779  0.0588
   79MOL   O12045516   2.975   1.031   5.813 -0.4333  0.0197  0.2481
   79MOL   C12145517   2.895   1.251   5.863 -0.0054  0.4705 -0.1861
   79MOL   O12245518   2.866   1.380   5.814 -0.3597 -0.2456 -0.1285
   79MOL   C12345519   2.789   1.461   5.905 -0.5477 -0.1656 -0.5618
   79MOL   C12445520   2.763   1.601   5.851  0.2070  0.2124  0.0634
   79MOL   C12545521   2.882   1.676   5.801 -0.0497  0.2799  0.1623
   79MOL   O12645522   2.853   1.801   5.736  0.6403  0.3269  0.0863
   79MOL   C12745523   2.969   1.839   5.675 -0.2328 -0.1374  0.3816
   79MOL   O12845524   3.077   1.856   5.759 -0.0346  0.3794 -0.1390
   79MOL   C12945525   2.947   1.975   5.606  0.3533  0.4425  0.0831
   79MOL   O13045526   3.048   1.983   5.509 -0.1583 -0.1853  0.2196
   79MOL   H13145527   2.824   1.228   5.585  0.5649 -0.2211 -1.2037
   79MOL   H13245528   2.729   1.107   5.684 -0.4891  2.1858 -0.3354
   79MOL   H13345529   3.018   1.188   5.691 -0.7886 -1.8164 -2.4898
   79MOL   H13445530   3.029   0.984   5.751 -0.2221 -0.3767  0.7234
   79MOL   H13545531   2.813   1.199   5.911  3.0084 -2.0343  2.5163
   79MOL   H13645532   2.979   1.255   5.932  0.0587  0.8511 -0.2870
   79MOL   H13745533   2.849   1.475   5.995 -0.0058  2.6379 -1.2832
   79MOL   H13845534   2.697   1.404   5.919 -1.3923  1.3512  0.2321
   79MOL   H13945535   2.697   1.660   5.914 -0.5927 -0.4760 -0.1130
   79MOL   H14045536   2.709   1.586   5.757  0.3715  0.5664 -0.0858
   79MOL   H14145537   2.951   1.687   5.885  0.2994 -0.4762 -0.0163
   79MOL   H14245538   2.938   1.613   5.731  0.2469  1.3548 -0.5677
   79MOL   H14345539   3.005   1.770   5.599  1.3952  1.7083 -0.5763
   79MOL   H14445540   3.139   1.905   5.708  0.3594  0.5721  0.5250
   79MOL   H14545541   2.850   1.992   5.559  1.1296 -2.2318 -2.6160
   79MOL   H14645542   2.964   2.050   5.683  1.0918  0.4091 -0.0466
   79MOL   C14745543   3.064   2.118   5.458  0.9953  0.5372 -0.4780
   79MOL   C14845544   3.113   2.100   5.311 -0.4026 -0.0772  0.0393
   79MOL   O14945545   3.027   2.018   5.249  0.6391  0.0480 -0.2851
   79MOL   C15045546   3.252   2.050   5.291  0.1569 -0.5748  0.1436
   79MOL   O15145547   3.279   1.946   5.377 -0.3141 -0.3141  0.3237
   79MOL   C15245548   3.395   1.873   5.340 -0.0174 -0.2233 -0.1205
   79MOL   C15345549   3.421   1.755   5.438 -0.1780  0.2273 -0.4556
   79MOL   C15445550   3.474   1.778   5.578 -0.1686  0.2464 -0.0483
   79MOL   O15545551   3.544   1.661   5.628  0.0898 -0.2011  0.1201
   79MOL   C15645552   3.611   1.689   5.755  0.5630 -0.0593 -0.1870
   79MOL   O15745553   3.732   1.769   5.734  0.0119 -0.4965 -0.0924
   79MOL   C15845554   3.655   1.551   5.813  0.0241 -0.1470 -0.5608
   79MOL   O15945555   3.664   1.555   5.951 -0.1778 -0.4969  0.3528
   79MOL   H16045556   3.124   2.185   5.520  0.6252 -0.6756  1.2463
   79MOL   H16145557   2.968   2.168   5.455  0.7877  0.0943 -1.4430
   79MOL   H16245558   3.097   2.190   5.252  0.0821  0.3785  0.5872
   79MOL   H16345559   3.025   1.942   5.305 -1.1475  0.2278 -0.0835
   79MOL   H16445560   3.268   2.025   5.186 -0.4918 -2.4223  0.4625
   79MOL   H16545561   3.318   2.136   5.306 -0.2950 -0.1210 -0.4959
   79MOL   H16645562   3.472   1.947   5.362 -0.0135 -0.6707  1.4571
   79MOL   H16745563   3.395   1.851   5.234 -0.3242 -1.8719  0.2127
   79MOL   H16845564   3.494   1.692   5.387 -0.2075  0.2001 -0.4635
   79MOL   H16945565   3.330   1.697   5.450  1.5160 -2.0566  1.8156
   79MOL   H17045566   3.546   1.859   5.569 -0.6752  0.6534 -0.4943
   79MOL   H17145567   3.399   1.799   5.655 -0.7271 -2.4276  0.1887
   79MOL   H17245568   3.550   1.746   5.825  0.6188  1.6819 -1.5108
   79MOL   H17345569   3.709   1.859   5.719  0.9936 -0.2935 -0.4302
   79MOL   H17445570   3.573   1.487   5.782 -0.4747  1.1986 -2.0912
   79MOL   H17545571   3.753   1.525   5.774 -0.0295 -1.1472 -0.0548
   79MOL   C17645572   3.693   1.433   6.016 -0.1868 -0.0991 -0.1657
   79MOL   C17745573   3.698   1.440   6.164  0.0087  1.0430 -0.2162
   79MOL   O17845574   3.817   1.501   6.219 -0.3972 -1.0006 -0.2787
   79MOL   C17945575   3.672   1.300   6.227  0.1955 -0.4479  0.3328
   79MOL   O18045576   3.744   1.196   6.162  0.4429  0.2742 -0.4520
   79MOL   C18145577   3.704   1.067   6.207  0.0669 -0.0631  0.0529
   79MOL   C18245578   3.788   0.950   6.157 -0.2931 -1.1845 -0.0856
   79MOL   C18345579   3.737   0.824   6.229 -0.1201 -0.2454  0.1157
   79MOL   O18445580   3.616   0.789   6.165  0.2724 -0.1638 -0.0589
   79MOL   C18545581   3.557   0.678   6.217  0.4499  0.6048  0.3959
   79MOL   O18645582   3.627   0.563   6.173 -0.7092 -0.3139  0.2877
   79MOL   C18745583   3.404   0.668   6.166  0.7215 -0.1226  0.1862
   79MOL   O18845584   3.325   0.748   6.244  0.6497 -0.4776  0.3117
   79MOL   H18945585   3.792   1.404   5.982 -1.5756 -2.0790 -2.7766
   79MOL   H19045586   3.621   1.358   5.981 -0.6058 -0.0416  0.5665
   79MOL   H19145587   3.620   1.501   6.210 -0.9025 -1.7727  2.0829
   79MOL   H19245588   3.852   1.565   6.159  0.9223 -0.7708  0.7152
   79MOL   H19345589   3.689   1.293   6.334 -3.2399 -1.8716  0.8339
   79MOL   H19445590   3.565   1.285   6.209  0.1041  0.4509  0.0990
   79MOL   H19545591   3.599   1.052   6.182  0.3768  0.7194 -1.7649
   79MOL   H19645592   3.696   1.066   6.316 -3.0931 -1.9534 -0.1453
   79MOL   H19745593   3.893   0.962   6.185 -0.3736  2.0993 -0.9321
   79MOL   H19845594   3.787   0.947   6.048  0.5973  3.1762 -0.3402
   79MOL   H19945595   3.799   0.738   6.204 -2.1789 -1.3486 -1.4144
   79MOL   H20045596   3.725   0.842   6.336  0.0895  0.3445  0.0432
   79MOL   H20145597   3.558   0.682   6.326 -0.6227  0.1988  0.4314
   79MOL   H20245598   3.616   0.552   6.080 -1.0714 -0.0209  0.2900
   79MOL   H20345599   3.409   0.701   6.062 -2.5208  0.5155  0.1943
   79MOL   H20445600   3.368   0.565   6.164 -0.4722  0.2964 -0.8197
   79MOL   C20545601   3.302   0.886   6.203  1.0621  0.7032 -0.0297
   79MOL   C20645602   3.248   0.969   6.321 -0.9360 -0.4946  0.2589
   79MOL   O20745603   3.274   1.103   6.288 -0.4721 -0.7843  0.3309
   79MOL   C20845604   3.102   0.963   6.332 -0.0215 -0.0727 -0.3673
   79MOL   O20945605   3.062   0.997   6.466 -0.5387  0.3031  0.2374
   79MOL   C21045606   2.939   0.940   6.504 -0.1778  0.0049  0.5677
   79MOL   C21145607   2.933   0.973   6.654 -0.1332  0.5534  0.5385
   79MOL   C21245608   2.814   0.916   6.729  0.2037  0.6477  0.2714
   79MOL   O21345609   2.825   0.774   6.746 -0.4984  0.1433 -0.2128
   79MOL   C21445610   2.709   0.711   6.792 -0.1600  0.5324  1.2878
   79MOL   O21545611   2.681   0.765   6.919  0.1709  0.0531  0.3530
   79MOL   C21645612   2.730   0.555   6.798 -0.4600  0.0743  0.2632
   79MOL   O21745613   2.851   0.532   6.862  0.6619  0.6770  0.2159
   79MOL   H21845614   3.242   0.903   6.114 -0.6415 -2.2338  0.4985
   79MOL   H21945615   3.398   0.926   6.170  1.2793  0.0496 -0.1849
   79MOL   H22045616   3.296   0.943   6.415 -0.8584  0.6094  0.5292
   79MOL   H22145617   3.243   1.150   6.364 -2.4285  0.4880 -1.2152
   79MOL   H22245618   3.048   1.022   6.258  0.7364  1.3471  0.1770
   79MOL   H22345619   3.079   0.862   6.301 -1.2992  0.5044 -1.3431
   79MOL   H22445620   2.930   0.833   6.487  2.0044 -0.4371  2.0006
   79MOL   H22545621   2.857   0.993   6.455  1.9398  2.0260 -0.8822
   79MOL   H22645622   2.918   1.081   6.661 -0.9598  0.5552 -0.9832
   79MOL   H22745623   3.023   0.929   6.697 -1.2742 -2.7392 -0.3077
   79MOL   H22845624   2.809   0.961   6.828  1.2166  1.1410  0.1120
   79MOL   H22945625   2.723   0.940   6.674  0.9472 -1.4973 -2.0088
   79MOL   H23045626   2.628   0.735   6.724  0.1542 -0.2289  0.6474
   79MOL   H23145627   2.760   0.766   6.971 -1.3464  1.8096  2.7765
   79MOL   H23245628   2.640   0.516   6.845 -0.7521 -0.4899 -0.7599
   79MOL   H23345629   2.738   0.522   6.694  1.1359 -1.4213  0.8398
   79MOL   C23445630   2.849   0.408   6.926  0.1828 -0.0738  0.8729
   79MOL   C23545631   2.989   0.361   6.960 -0.0282 -0.3722  0.4248
   79MOL   O23645632   3.025   0.453   7.059 -0.6936 -0.1529 -0.5713
   79MOL   C23745633   3.088   0.356   6.841  0.0838  0.3212  0.4741
   79MOL   O23845634   3.214   0.296   6.865 -0.5630 -0.0185 -0.0732
   79MOL   C23945635   3.309   0.391   6.921 -0.2498 -0.4096  0.1671
   79MOL   C24045636   3.438   0.317   6.948  0.1504  0.5967 -0.7577
   79MOL   C24145637   3.556   0.408   6.972  0.0303 -0.7050  0.0886
   79MOL   O24245638   3.530   0.514   7.068 -0.1763  0.6555  0.5769
   79MOL   C24345639   3.644   0.605   7.093 -0.1185 -0.4524 -0.1334
   79MOL   O24445640   3.742   0.536   7.176  0.1749 -0.2195  0.1097
   79MOL   C24545641   3.580   0.719   7.174  1.1897  0.4386 -0.6148
   79MOL   O24645642   3.656   0.838   7.156 -0.5144  0.4349  0.7278
   79MOL   H24745643   2.778   0.395   7.007  0.1790 -3.3621  0.4188
   79MOL   H24845644   2.827   0.339   6.845 -0.3949  1.8850 -0.6996
   79MOL   H24945645   2.982   0.261   7.002 -0.4310 -0.2245  0.7124
   79MOL   H25045646   3.053   0.533   7.017 -0.5883 -1.0421 -2.2470
   79MOL   H25145647   3.046   0.297   6.759  1.4728 -2.3616  1.6451
   79MOL   H25245648   3.098   0.455   6.796 -2.2317 -0.4076 -1.7792
   79MOL   H25345649   3.275   0.432   7.017  1.3807 -0.0500  0.6007
   79MOL   H25445650   3.329   0.481   6.862 -0.7221  0.8885  1.9254
   79MOL   H25545651   3.469   0.252   6.866  0.1473 -3.0259  2.0012
   79MOL   H25645652   3.409   0.251   7.030  0.2143 -0.6642 -1.7344
   79MOL   H25745653   3.641   0.348   7.002 -0.2194 -1.8060 -1.3401
   79MOL   H25845654   3.593   0.455   6.881 -1.3307  1.4649  0.6070
   79MOL   H25945655   3.682   0.638   6.997  1.3600  0.4444  0.7264
   79MOL   H26045656   3.805   0.497   7.118 -0.8303 -0.2702 -0.9834
   79MOL   H26145657   3.481   0.745   7.138  1.4788  2.0230 -0.3055
   79MOL   H26245658   3.575   0.687   7.278 -0.1235 -2.2516 -1.4560
   79MOL   C26345659   3.612   0.946   7.239 -0.3032  0.5092  0.1389
   79MOL   C26445660   3.713   1.064   7.212  0.4478 -0.1250 -0.1096
   79MOL   O26545661   3.639   1.168   7.156  0.2646  0.1428 -0.2546
   79MOL   C26645662   3.773   1.137   7.332 -0.1247 -0.0706  0.0870
   79MOL   O26745663   3.861   1.238   7.284 -0.6999  0.7398 -0.0763
   79MOL   C26845664   3.910   1.305   7.401  0.4644 -0.1185  1.1027
   79MOL   C26945665   3.987   1.425   7.345  0.3834  0.2986  0.2096
   79MOL   C27045666   4.026   1.523   7.460 -0.2621 -0.2007  0.1030
   79MOL   O27145667   3.930   1.626   7.476 -0.0299 -0.0357 -0.2335
   79MOL   C27245668   3.965   1.707   7.584  0.1780  0.7167 -0.3012
   79MOL   O27345669   4.089   1.777   7.561  0.1101 -0.2371  0.3055
   79MOL   C27445670   3.858   1.815   7.610 -0.1170 -0.3399 -0.0449
   79MOL   O27545671   3.740   1.763   7.679 -0.4547 -0.1019  0.3326
   79MOL   H27645672   3.619   0.923   7.345 -0.6360  0.4220  0.1401
   79MOL   H27745673   3.515   0.983   7.209 -1.5986 -2.3999  0.5616
   79MOL   H27845674   3.797   1.037   7.147  1.0152 -0.2430  0.6704
   79MOL   H27945675   3.697   1.242   7.157  0.1083  0.2597  0.2109
   79MOL   H28045676   3.691   1.191   7.380 -0.1952 -0.0866 -0.0159
   79MOL   H28145677   3.825   1.067   7.398 -0.7132 -0.9156 -0.3348
   79MOL   H28245678   3.976   1.244   7.463 -0.5829 -0.8972  1.4819
   79MOL   H28345679   3.836   1.344   7.472  0.7633  2.0599  0.2389
   79MOL   H28445680   3.923   1.466   7.267 -0.7549  2.9289  2.4205
   79MOL   H28545681   4.077   1.389   7.297  1.9064  1.5786  2.0444
   79MOL   H28645682   4.030   1.476   7.558  0.3776  1.4845  0.9141
   79MOL   H28745683   4.121   1.573   7.439  0.3019 -0.8594  1.0799
   79MOL   H28845684   3.984   1.654   7.678 -2.2774 -1.5941 -1.0678
   79MOL   H28945685   4.091   1.799   7.469 -1.0433 -0.4343  0.2258
   79MOL   H29045686   3.899   1.886   7.681 -0.1280  1.3725 -1.7310
   79MOL   H29145687   3.834   1.865   7.517 -0.4180 -2.6336 -1.2551
   79MOL   C29245688   3.636   1.721   7.595  0.2236  0.5561  0.4842
   79MOL   C29345689   3.543   1.630   7.667  0.5847  0.5590 -0.5164
   79MOL   O29445690   3.414   1.645   7.615  0.2442  0.0592 -0.4412
   79MOL   C29545691   3.581   1.485   7.640 -0.4564  0.2246  0.0115
   79MOL   O29645692   3.510   1.403   0.040  0.3170  0.2790  0.6038
   79MOL   C29745693   3.531   1.266   0.035 -0.0074 -0.0995  0.5907
   79MOL   C29845694   3.448   1.190   0.136 -0.5183  0.1920 -0.2346
   79MOL   C29945695   3.468   1.031   0.134 -0.4165 -0.6563 -0.0646
   79MOL   O30045696   3.378   0.973   0.237 -0.2469 -0.3129 -0.2007
   79MOL   C30145697   3.377   0.835   0.232  0.7609  0.4042  0.4703
   79MOL   O30245698   3.485   0.771   0.288  0.6629  0.4965  0.5431
   79MOL   C30345699   3.239   0.793   0.293  0.5071  0.3311 -0.2214
   79MOL   O30445700   3.148   0.814   0.191  0.2555  0.3131 -0.2008
   79MOL   H30545701   3.591   1.814   7.558  1.8612  1.4414  0.6650
   79MOL   H30645702   3.689   1.679   7.510  0.1501  2.8583 -0.7527
   79MOL   H30745703   3.544   1.649   0.080  1.0209  1.2759 -0.6459
   79MOL   H30845704   3.387   1.558   7.590  2.7101 -0.2666 -2.2296
   79MOL   H30945705   3.558   1.459   7.536 -0.6690  1.1736 -0.1831
   79MOL   H31045706   3.688   1.471   7.648 -0.6392 -1.5019 -0.4495
   79MOL   H31145707   3.635   1.247   0.063 -0.3450 -0.4738  1.5826
   79MOL   H31245708   3.519   1.238   7.625  3.4564  2.7461 -0.6678
   79MOL   H31345709   3.342   1.214   0.135 -0.7858 -0.9688 -0.6224
   79MOL   H31445710   3.469   1.218   0.239  0.2843  0.7454 -0.5388
   79MOL   H31545711   3.432   0.995   0.037 -0.8804  0.7905 -0.4419
   79MOL   H31645712   3.569   0.989   0.136 -0.2037 -0.1067  0.6856
   79MOL   H31745713   3.380   0.803   0.128  0.4273 -2.9701  1.4518
   79MOL   H31845714   3.473   0.763   0.381  0.7308 -0.9177  0.4414
   79MOL   H31945715   3.246   0.851   0.385  3.3441  0.9040 -0.7559
   79MOL   H32045716   3.236   0.689   0.325  0.5006 -0.0295 -1.3879
   79MOL   C32145717   3.054   0.918   0.232  0.2158 -0.3587 -0.0627
   79MOL   C32245718   2.943   0.950   0.136  0.3602 -0.4015  0.2272
   79MOL   O32345719   2.984   1.031   0.030  0.2112  0.0160  0.2487
   79MOL   C32445720   2.868   0.831   0.074 -0.1690  0.3489 -0.1859
   79MOL   O32545721   2.735   0.878   0.060 -0.6667 -0.6144 -0.4040
   79MOL   C32645722   2.653   0.783   7.692  0.4108 -0.9786  0.2621
   79MOL   C32745723   2.519   0.852   7.678 -0.0479 -0.1779 -0.3382
   79MOL   C32845724   2.414   0.764   7.614  0.1732 -0.1986 -0.2078
   79MOL   O32945725   2.289   0.826   7.608  0.9052 -0.5267 -0.7225
   79MOL   C33045726   2.198   0.764   7.520 -0.3029 -0.0182 -0.0978
   79MOL   O33145727   2.132   0.654   7.582  0.1639  0.1638  0.5273
   79MOL   C33245728   2.098   0.868   7.474  0.4892  0.2232 -0.0106
   79MOL   O33345729   2.022   0.923   7.575 -0.0027 -0.1113  0.0232
   79MOL   H33445730   3.126   0.995   0.258 -0.7858  0.0564  1.5230
   79MOL   H33545731   3.004   0.883   0.322 -2.3932  1.3141 -0.8054
   79MOL   H33645732   2.869   1.010   0.188  0.1299 -1.7465  1.4753
   79MOL   H33745733   2.914   1.085   7.690  0.1292  0.1645  0.6410
   79MOL   H33845734   2.878   0.750   0.146  0.9894 -0.9071 -1.7489
   79MOL   H33945735   2.908   0.790   7.676  0.8826  1.1427 -0.0917
   79MOL   H34045736   2.663   0.682   0.037  1.3115 -0.4912  1.2953
   79MOL   H34145737   2.691   0.776   7.590  0.7834  1.1143  0.2324
   79MOL   H34245738   2.473   0.893   0.073 -0.1631 -0.3788 -0.3062
   79MOL   H34345739   2.538   0.938   7.613 -3.6260  2.8004  2.3310
   79MOL   H34445740   2.452   0.753   7.513 -1.3507  1.4878 -0.9978
   79MOL   H34545741   2.407   0.676   7.678  1.5551  0.9855  1.6209
   79MOL   H34645742   2.243   0.720   7.431 -0.4612 -0.0352 -0.1693
   79MOL   H34745743   2.065   0.693   7.636 -0.2322  0.1935  0.0116
   79MOL   H34845744   2.146   0.944   7.413  2.3635 -2.3615 -1.8832
   79MOL   H34945745   2.040   0.826   7.392 -0.5592  2.7520 -0.5868
   79MOL   C35045746   1.899   0.972   7.525  0.2552  0.3239 -0.9106
   79MOL   C35145747   1.865   1.093   7.617  0.2207  0.1016  0.7826
   79MOL   O35245748   1.945   1.213   7.582 -0.3440 -0.0301 -0.1677
   79MOL   C35345749   1.718   1.138   7.593  0.3258  0.5315  0.3048
   79MOL   O35445750   1.669   1.229   7.691 -0.2489 -0.0700 -0.5477
   79MOL   C35545751   1.538   1.267   7.670  0.7227 -0.4396 -0.5924
   79MOL   C35645752   1.507   1.378   0.071 -0.3857 -0.2912 -0.1937
   79MOL   C35745753   1.360   1.422   0.080  0.4553  0.1967  0.1806
   79MOL   O35845754   1.358   1.550   0.153  0.1408 -0.6710  0.0512
   79MOL   C35945755   1.250   1.584   0.222  0.2706 -0.0082 -0.4139
   79MOL   O36045756   1.250   1.506   0.340 -0.2188  0.4488 -0.2107
   79MOL   C36145757   1.250   1.734   0.254  0.2461  0.1747 -0.5682
   79MOL   O36245758   1.179   1.811   0.151 -0.2798 -0.7377  0.0302
   79MOL   H36345759   1.830   0.888   7.531  2.2829 -1.5223 -2.6945
   79MOL   H36445760   1.898   0.998   7.419  1.7900 -2.7432 -1.7267
   79MOL   H36545761   1.873   1.065   0.028  0.1767 -1.6271  0.3432
   79MOL   H36645762   1.910   1.270   7.649 -2.3039 -2.2011  0.7595
   79MOL   H36745763   1.707   1.167   7.488  3.9189  0.7101 -0.0628
   79MOL   H36845764   1.654   1.050   7.592 -0.0888  0.8074  1.8005
   79MOL   H36945765   1.475   1.184   0.008 -0.0329  0.0701 -0.7309
   79MOL   H37045766   1.517   1.296   7.567 -0.0579 -2.4590 -1.0461
   79MOL   H37145767   1.569   1.463   0.042 -1.0716  1.0504  2.1086
   79MOL   H37245768   1.536   1.342   0.170  2.0899  0.1856 -0.7194
   79MOL   H37345769   1.321   1.435   7.673  5.3313  1.0504 -1.7027
   79MOL   H37445770   1.304   1.346   0.135  0.3279  0.1857  0.0348
   79MOL   H37545771   1.163   1.561   0.162  0.5630  0.4075 -1.0068
   79MOL   H37645772   1.215   1.418   0.335  1.7513 -0.3990  0.4406
   79MOL   H37745773   1.194   1.755   0.345  1.9751  2.9977 -0.1067
   79MOL   H37845774   1.352   1.758   0.282  1.1254 -2.8976 -0.9914
   79MOL   C37945775   1.252   1.818   0.028  0.4468  0.4130 -0.3458
   79MOL   C38045776   1.183   1.907   7.621 -0.2841 -0.0821  0.0321
   79MOL   O38145777   1.276   1.922   7.519  0.4187  0.1432 -0.7489
   79MOL   C38245778   1.048   1.853   7.580 -0.4332  0.3482 -0.7567
   79MOL   O38345779   0.994   1.941   7.480 -0.1900  0.2067  0.0542
   79MOL   C38445780   0.878   1.899   7.415  0.3593  0.2258 -0.6015
   79MOL   C38545781   0.826   2.010   7.335 -0.3422 -0.5260 -0.0048
   79MOL   C38645782   0.690   1.984   7.266 -0.5468 -0.3448  0.2900
   79MOL   O38745783   0.700   1.881   7.170 -0.1412 -0.4858 -0.5601
   79MOL   C38845784   0.586   1.845   7.095 -0.0737  0.5906 -0.1247
   79MOL   O38945785   0.528   1.947   7.021 -0.1160  0.1493  0.1268
   79MOL   C39045786   0.622   1.734   6.997 -0.3722  0.4510 -0.1394
   79MOL   O39145787   0.593   1.614   7.064 -0.0533  0.6367  0.0634
   79MOL   H39245788   1.265   1.722   7.671  1.1569  0.0685  0.4517
   79MOL   H39345789   1.356   1.844   0.047  0.9802 -1.0168 -1.1743
   79MOL   H39445790   1.168   2.007   7.660  0.9071 -0.1361  0.6711
   79MOL   H39545791   1.222   1.931   7.442  1.7507 -1.7577 -1.9526
   79MOL   H39645792   1.058   1.749   7.548  0.3037  0.1999 -0.0762
   79MOL   H39745793   0.975   1.851   7.661  1.0863 -0.2355  0.6225
   79MOL   H39845794   0.810   1.879   7.499  1.4310 -2.3786 -0.3061
   79MOL   H39945795   0.898   1.808   7.358  0.1635  0.7695 -1.5476
   79MOL   H40045796   0.901   2.037   7.260 -0.8204  0.2440 -0.2113
   79MOL   H40145797   0.823   2.101   7.394  1.7798  0.8517 -1.9327
   79MOL   H40245798   0.634   1.946   7.351  0.0054  0.8391  1.1935
   79MOL   H40345799   0.647   2.072   7.218 -0.1110  0.0234  0.5665
   79MOL   H40445800   0.513   1.811   7.169  1.9577 -0.7209  1.3346
   79MOL   H40545801   0.597   1.975   6.963  0.8056  0.7104  1.4749
   79MOL   H40645802   0.564   1.750   6.906  0.6859  1.7837 -0.6094
   79MOL   H40745803   0.725   1.749   6.964  0.0130 -1.8293  0.0043
   79MOL   C40845804   0.625   1.492   6.993 -0.2112 -0.8162  0.6493
   79MOL   C40945805   0.570   1.380   7.088 -0.6816  0.1239  0.4412
   79MOL   O41045806   0.438   1.411   7.134 -0.3427 -0.1068  0.0278
   79MOL   C41145807   0.665   1.349   7.203  0.3579 -0.2314  0.1070
   79MOL   O41245808   0.762   1.246   7.168  0.1956 -0.1849 -0.7052
   79MOL   C41345809   0.871   1.228   7.256 -0.2863 -0.1763  0.4135
   79MOL   C41445810   0.925   1.091   7.213 -0.9419  0.0072  0.9427
   79MOL   C41545811   0.999   1.093   7.078  1.0982 -0.6063 -0.4257
   79MOL   O41645812   1.033   0.959   7.030 -0.3849  0.0256 -0.4942
   79MOL   C41745813   1.085   0.936   6.909  0.0812  0.2418 -0.1630
   79MOL   O41845814   1.160   1.051   6.866  0.0280 -0.4043 -0.6082
   79MOL   C41945815   0.978   0.890   6.809 -0.1878  0.4432 -0.2686
   79MOL   O42045816   0.878   0.998   6.797 -0.1207  0.3670  1.1479
   79MOL   H42145817   0.733   1.483   6.984 -0.2937 -0.5803 -0.5711
   79MOL   H42245818   0.576   1.484   6.896 -1.6656  2.4688  1.0351
   79MOL   H42345819   0.564   1.291   7.025 -0.1178  2.9863 -3.8887
   79MOL   H42445820   0.451   1.496   7.173  4.0519 -0.9120  0.6055
   79MOL   H42545821   0.708   1.441   7.241  0.9795 -2.1755  4.4349
   79MOL   H42645822   0.609   1.304   7.285  1.1724 -0.4727  0.5376
   79MOL   H42745823   0.947   1.305   7.241  0.7994 -0.9378  1.8779
   79MOL   H42845824   0.844   1.222   7.362 -0.2108 -0.8675  0.3974
   79MOL   H42945825   0.846   1.017   7.204 -0.0616 -0.6365 -1.8840
   79MOL   H43045826   0.995   1.062   7.292 -0.2859 -0.0766  0.3370
   79MOL   H43145827   0.946   1.138   6.993  0.8148 -1.3178 -0.6254
   79MOL   H43245828   1.098   1.137   7.094  0.4258  2.3497 -3.6368
   79MOL   H43345829   1.161   0.858   6.922  0.7220  0.7998 -0.5787
   79MOL   H43445830   1.094   1.109   6.833 -1.8198 -2.3214 -0.4133
   79MOL   H43545831   1.017   0.864   6.711  2.7204 -0.4237  1.0699
   79MOL   H43645832   0.936   0.795   6.844  0.7739  0.0092 -0.2913
   79MOL   C43745833   0.792   0.993   6.687 -0.0125 -0.0560 -0.5145
   79MOL   C43845834   0.684   1.103   6.686 -0.0478  0.2910  0.4417
   79MOL   O43945835   0.732   1.225   6.634 -0.0922  0.1415  0.2888
   79MOL   C44045836   0.623   1.135   6.827  0.2582  0.5199  0.6527
   79MOL   O44145837   0.529   1.239   6.813  0.3939  0.0156  0.4698
   79MOL   C44245838   0.393   1.193   6.782  0.0169 -0.1188 -0.9407
   79MOL   C44345839   0.300   1.308   6.746 -0.4445  0.1517  0.3331
   79MOL   C44445840   0.275   1.396   6.866  0.0698  0.0046 -0.5331
   79MOL   O44545841   0.171   1.491   6.846  0.2933 -0.0957 -0.1740
   79MOL   C44645842   0.133   1.569   6.953  0.7384  0.0400  0.0867
   79MOL   O44745843   0.238   1.630   7.029  0.3953 -0.0474  0.4201
   79MOL   C44845844   0.045   1.495   7.057  0.0047  0.2878 -0.1408
   79MOL   O44945845   0.125   1.402   7.136  0.1264 -0.1042  0.4076
   79MOL   H45045846   0.852   1.005   6.596 -0.4129  1.2425 -0.6096
   79MOL   H45145847   0.744   0.896   6.674  0.6001 -0.4101 -0.1590
   79MOL   H45245848   0.609   1.057   6.623  0.3313 -1.4648  1.2349
   79MOL   H45345849   0.655   1.279   6.644 -0.8058 -1.1489  2.0934
   79MOL   H45445850   0.582   1.045   6.871  1.7853  0.2059  1.4737
   79MOL   H45545851   0.710   1.165   6.886 -2.1335  3.1640  3.0193
   79MOL   H45645852   0.358   1.137   6.869 -0.6354 -0.3415 -1.3403
   79MOL   H45745853   0.394   1.116   6.705 -0.2812 -0.4100 -0.6518
   79MOL   H45845854   0.206   1.268   6.709  0.1121 -1.2317  0.3935
   79MOL   H45945855   0.335   1.377   6.669  0.6673  0.1034  0.7822
   79MOL   H46045856   0.255   1.341   6.958 -1.8994  1.3125 -0.1289
   79MOL   H46145857   0.366   1.455   6.876 -0.8998  1.4021  0.2210
   79MOL   H46245858   0.075   1.652   6.912 -0.0279  0.5708  2.1681
   79MOL   H46345859   0.266   1.557   7.083  0.7515 -0.1905  0.0374
   79MOL   H46445860   7.684   1.554   7.130  2.1432 -1.0358  2.6177
   79MOL   H46545861   7.670   1.443   6.991 -2.3782  1.3371  1.4560
   79MOL   C46645862   0.052   1.288   7.187 -0.0534 -0.7573 -0.5250
   79MOL   C46745863   0.154   1.205   7.271  0.5862  0.6031 -0.8498
   79MOL   O46845864   0.088   1.165   7.396 -0.2061  0.6115  0.7166
   79MOL   C46945865   0.211   1.072   7.219 -0.3305  0.3246 -0.0786
   79MOL   O47045866   0.318   1.038   7.305  0.5811 -0.1939  0.5419
   79MOL   C47145867   0.387   0.923   7.280  0.1390 -0.7623 -0.4866
   79MOL   C47245868   0.476   0.934   7.156 -0.2462  0.2821 -0.4115
   79MOL   C47345869   0.608   0.845   7.140 -0.5155  0.8770  0.2897
   79MOL   O47445870   0.572   0.712   7.124  0.0723  0.7389 -0.6853
   79MOL   C47545871   0.578   0.669   6.991  0.0497 -0.1259 -0.2373
   79MOL   O47645872   0.449   0.640   6.947 -0.4698  0.0578 -0.2295
   79MOL   C47745873   0.662   0.540   6.974 -0.3708  0.5836  0.0995
   79MOL   O47845874   0.796   0.571   6.988 -0.5142  0.1451 -0.3495
   79MOL   H47945875   0.008   1.232   7.105  1.2724 -0.0442 -1.7273
   79MOL   H48045876   7.660   1.335   7.236  0.0874  0.6934 -1.6470
   79MOL   H48145877   0.237   1.274   7.285 -0.3877  1.3761  1.4117
   79MOL   H48245878   0.140   1.089   7.417  0.4249  0.9156  0.2674
   79MOL   H48345879   0.137   0.992   7.220  0.8954 -0.8084  1.1545
   79MOL   H48445880   0.237   1.090   7.114  0.8701 -0.2788  0.1096
   79MOL   H48545881   0.323   0.836   7.261  1.5815 -1.6086 -1.6070
   79MOL   H48645882   0.456   0.902   7.362 -0.8621  0.9918  0.8489
   79MOL   H48745883   0.500   1.039   7.140 -0.7438  0.2727 -1.2477
   79MOL   H48845884   0.416   0.909   7.069  0.4601 -1.6731 -0.3530
   79MOL   H48945885   0.672   0.887   7.062 -2.1929  0.4877 -1.3589
   79MOL   H49045886   0.666   0.860   7.231 -1.9656 -1.2264  1.5973
   79MOL   H49145887   0.613   0.750   6.926  0.5957 -1.4456 -1.6180
   79MOL   H49245888   0.412   0.579   7.008 -1.5495  1.3088  0.3893
   79MOL   H49345889   0.645   0.478   7.062  0.0300  0.9144  0.4136
   79MOL   H49445890   0.630   0.475   6.893  0.7469  0.7970 -0.5219
   79MOL   C49545891   0.877   0.480   6.924  0.8492 -1.0227  0.5870
   79MOL   C49645892   0.860   0.337   6.989  0.3203  0.6153 -0.1474
   79MOL   O49745893   0.757   0.267   6.915  0.6365 -0.3239  0.1413
   79MOL   C49845894   0.988   0.263   6.960  0.2236  0.5207  0.0955
   79MOL   O49945895   0.986   0.146   7.037 -0.2007  0.6083  0.2256
   79MOL   C50045896   1.103   0.068   7.017 -0.1747  0.4751 -0.4373
   79MOL   C50145897   1.089   7.632   7.098  1.0321 -0.4518  0.2246
   79MOL   C50245898   1.220   7.561   7.135  0.2464  0.2014  0.5703
   79MOL   O50345899   1.189   7.451   7.212 -0.4117  0.1131 -0.2546
   79MOL   C50445900   1.312   7.391   7.249  0.6488 -0.2670  0.2824
   79MOL   O50545901   1.363   7.321   7.143 -0.6284 -0.2422 -0.1194
   79MOL   C50645902   1.279   7.292   7.365  0.4260  0.2282 -0.2416
   79MOL   O50745903   1.305   7.354   7.494 -0.2414 -0.4141 -0.4900
   79MOL   H50845904   0.975   0.528   6.922  0.2753  0.1427 -0.1690
   79MOL   H50945905   0.862   0.471   6.817  0.2689  0.6164  0.5253
   79MOL   H51045906   0.833   0.333   7.094  1.2323  0.4677  0.0788
   79MOL   H51145907   0.761   0.178   6.947 -1.5553 -0.1957  0.8602
   79MOL   H51245908   0.994   0.241   6.854  1.5399  0.2584  0.2263
   79MOL   H51345909   1.072   0.330   6.978  0.8616  0.0680 -1.1376
   79MOL   H51445910   1.196   0.117   7.046  0.5061 -1.2372  0.3984
   79MOL   H51545911   1.122   0.041   6.913  0.2536 -1.8209  0.1954
   79MOL   H51645912   1.026   7.562   7.042  0.0451 -0.3501  1.2079
   79MOL   H51745913   1.029   7.657   7.185 -0.4453  2.6868 -1.6144
   79MOL   H51845914   1.284   7.538   7.050  3.4139 -3.0135  3.6329
   79MOL   H51945915   1.288   7.630   7.186  1.9416 -2.3227  1.8296
   79MOL   H52045916   1.389   7.457   7.289  1.0533 -1.2285  1.1240
   79MOL   H52145917   1.313   7.244   7.122 -1.2481 -0.0927  0.7652
   79MOL   H52245918   1.175   7.261   7.356  0.4794 -0.6581  1.9297
   79MOL   H52345919   1.339   7.202   7.354  1.4615  0.4888  2.9479
   79MOL   C52445920   1.217   7.444   7.556  0.1853 -0.7026 -0.2226
   79MOL   C52545921   1.243   7.421   0.016  0.0651 -0.2150  0.1576
   79MOL   O52645922   1.201   7.291   0.060 -0.2652 -0.2534  0.4185
   79MOL   C52745923   1.159   7.530   0.090  0.7232  0.2190  0.7081
   79MOL   O52845924   1.214   7.521   0.223 -0.2221  0.1580  0.1660
   79MOL   C52945925   1.135   7.550   0.334  1.3782 -0.6662 -0.5574
   79MOL   C53045926   1.203   7.522   0.464 -0.4171 -1.2817  0.2239
   79MOL   C53145927   1.258   7.377   0.465 -0.2165 -0.6925 -0.1060
   79MOL   O53245928   1.267   7.339   0.599 -0.4388 -0.1557  0.4585
   79MOL   C53345929   1.399   7.337   0.650  0.7725 -0.3354  0.1426
   79MOL   O53445930   1.456   7.460   0.661 -0.0916 -0.4988  0.4002
   79MOL   C53545931   1.400   7.268   0.787  0.3396  0.6741 -0.8369
   79MOL   O53645932   1.286   7.295   0.861  0.5370  0.5023 -0.1704
   79MOL   H53745933   1.114   7.413   7.536 -0.0350 -0.2942  0.2729
   79MOL   H53845934   1.223   7.546   7.518 -0.8576  0.0182  1.4910
   79MOL   H53945935   1.349   7.441   0.033  0.7287  0.5833 -4.2815
   79MOL   H54045936   1.250   7.229   0.007 -1.8968 -0.3470 -1.0469
   79MOL   H54145937   1.170   7.633   0.058 -1.3076  0.1347 -0.3579
   79MOL   H54245938   1.055   7.507   0.113  0.8876 -0.9323  0.3404
   79MOL   H54345939   1.049   7.483   0.330 -0.2725  1.3614  0.4128
   79MOL   H54445940   1.102   7.654   0.336 -0.3887 -1.1053 -3.8836
   79MOL   H54545941   1.126   7.531   0.541 -1.0111 -2.4355 -0.2298
   79MOL   H54645942   1.282   7.596   0.477 -0.3203 -0.7232 -3.2039
   79MOL   H54745943   1.177   7.318   0.419  0.9351 -0.8976 -1.9441
   79MOL   H54845944   1.341   7.370   0.395 -0.0229 -0.0787  0.0640
   79MOL   H54945945   1.462   7.282   0.581  0.6130  2.1186 -2.0322
   79MOL   H55045946   1.548   7.450   0.680 -0.2748  1.2194  2.2829
   79MOL   H55145947   1.392   7.166   0.750 -2.1270  0.2925  0.6033
   79MOL   H55245948   1.496   7.283   0.836  0.5661 -0.2125 -1.0051
   79MOL   C55345949   1.292   7.408   0.934 -0.1885  0.3174 -0.2024
   79MOL   C55445950   1.155   7.436   0.992 -0.1085  0.0140  0.0859
   79MOL   O55545951   1.070   7.505   0.903 -0.1265 -0.1071  0.4336
   79MOL   C55645952   1.153   7.518   1.126  0.3197  0.7911 -0.2141
   79MOL   O55745953   1.204   7.439   1.232 -0.0316 -0.6339  0.5331
   79MOL   C55845954   1.198   7.517   1.346 -0.8148  0.3034 -0.5653
   79MOL   C55945955   1.249   7.440   1.467 -0.6291 -0.0539  0.0460
   79MOL   C56045956   1.195   7.299   1.476  0.5197 -0.7152  0.0534
   79MOL   O56145957   1.236   7.240   1.589  0.4705 -0.1040 -0.2340
   79MOL   C56245958   1.207   7.100   1.585  0.5193 -0.1633  0.0311
   79MOL   O56345959   1.279   7.028   1.490  0.1696  0.6745  0.0925
   79MOL   C56445960   1.235   7.044   1.722  0.4667  0.3076 -0.8290
   79MOL   O56545961   1.155   7.098   1.826 -0.2628  0.3224 -0.0168
   79MOL   H56645962   1.319   7.501   0.884  0.0925 -0.5227 -1.6375
   79MOL   H56745963   1.365   7.403   1.015  0.8151 -0.0584 -1.1327
   79MOL   H56845964   1.115   7.336   1.012 -1.7289  0.5651 -0.3004
   79MOL   H56945965   1.106   7.480   0.818  0.2036 -0.6660  0.7294
   79MOL   H57045966   1.221   7.602   1.113  3.4141 -1.1673  2.5837
   79MOL   H57145967   1.054   7.558   1.147  0.3579  1.3934 -1.1522
   79MOL   H57245968   1.265   7.601   1.331  0.2695  0.0143  2.3743
   79MOL   H57345969   1.099   7.559   1.363 -0.5603  1.1111 -1.0866
   79MOL   H57445970   1.235   7.504   1.555  1.4474  0.5726 -0.0432
   79MOL   H57545971   1.357   7.428   1.459 -0.8605 -1.0735 -1.7351
   79MOL   H57645972   1.090   7.321   1.492  1.4462  2.1865  2.5881
   79MOL   H57745973   1.217   7.242   1.386  1.7508  0.7229 -0.5792
   79MOL   H57845974   1.102   7.083   1.561  0.3507  0.8275  0.0646
   79MOL   H57945975   1.245   6.941   1.491 -3.0118  1.8639  0.6021
   79MOL   H58045976   1.236   6.935   1.726  3.1418  0.3314  0.4463
   79MOL   H58145977   1.341   7.064   1.734  0.4975 -0.7061  0.7046
   79MOL   H58245978   1.063   7.091   1.806  0.2727 -0.2580 -2.4850
   80MOL     C145979   5.759   3.442   5.915 -0.1920  0.4228 -0.1714
   80MOL     C245980   5.676   3.560   5.868  0.5711 -0.7650  0.1761
   80MOL     O345981   5.665   3.528   5.734  0.0381 -0.1332  0.5238
   80MOL     C445982   5.536   3.562   5.917 -0.2930  0.2832  0.0177
   80MOL     O545983   5.518   3.589   6.055  0.3258  0.1316  0.2742
   80MOL     C645984   5.511   3.476   6.143 -0.4198 -0.3861  0.2376
   80MOL     C745985   5.547   3.518   6.278  0.0555  0.4573 -0.3086
   80MOL     C845986   5.550   3.394   6.376 -0.0276  0.4036  0.3347
   80MOL     O945987   5.667   3.316   6.340 -0.1395  0.2107 -0.3518
   80MOL    C1045988   5.668   3.185   6.387 -0.4175  0.0549  0.1800
   80MOL    O1145989   5.713   3.184   6.516  0.0537 -0.3958  0.5284
   80MOL    C1245990   5.764   3.106   6.295 -0.2558  0.7431  0.3686
   80MOL    O1345991   5.712   2.975   6.259  0.3275  0.2591 -0.2382
   80MOL    H1445992   5.704   3.349   5.900  0.0420  0.2033  0.3174
   80MOL    H1545993   5.796   3.450   6.018 -0.5885 -0.2175  0.0258
   80MOL    H1645994   5.719   3.658   5.889 -1.0298 -0.1915  0.7780
   80MOL    H1745995   5.585   3.478   5.730 -1.1309  1.5275  2.4831
   80MOL    H1845996   5.491   3.637   5.851 -0.1283 -0.5491 -1.0643
   80MOL    H1945997   5.473   3.477   5.888 -0.0807  0.4545 -0.9621
   80MOL    H2045998   5.570   3.394   6.103  1.1604 -0.2653  2.2869
   80MOL    H2145999   5.411   3.432   6.150  0.2091 -1.9436 -0.4130
   80MOL    H2246000   5.475   3.590   6.317 -0.4682 -0.8761  1.1879
   80MOL    H2346001   5.644   3.568   6.270 -0.4038  1.5588  0.8680
   80MOL    H2446002   5.557   3.440   6.474 -0.4097  3.0708 -0.8478
   80MOL    H2546003   5.460   3.333   6.372  0.2091 -0.0927  2.0112
   80MOL    H2646004   5.566   3.146   6.386 -0.4382 -0.0206  2.3315
   80MOL    H2746005   5.732   3.097   6.546  0.1823 -0.1213  1.2432
   80MOL    H2846006   5.772   3.158   6.200 -0.7694 -0.8489 -0.5670
   80MOL    H2946007   5.857   3.102   6.351 -0.9362  1.0984  1.5547
   80MOL    H3046008   5.850   3.437   5.855  0.0816  3.0236 -0.0312
   80MOL    C3146009   5.759   2.866   6.332 -0.1368  0.6520 -0.0833
   80MOL    C3246010   5.692   2.859   6.474 -0.4300 -0.2405 -0.1051
   80MOL    O3346011   5.765   2.938   6.562 -0.4242  0.4302 -0.6827
   80MOL    C3446012   5.678   2.714   6.532  0.4808 -0.3665  0.2320
   80MOL    O3546013   5.549   2.708   6.583 -0.1319 -0.1496  0.1882
   80MOL    C3646014   5.541   2.605   6.680 -0.3476  0.4734 -0.0793
   80MOL    C3746015   5.405   2.608   6.750 -0.3879 -0.2098 -0.1361
   80MOL    C3846016   5.360   2.471   6.797 -0.7548  0.6592 -0.2267
   80MOL    O3946017   5.406   2.476   6.928 -0.2521  0.4791 -0.0244
   80MOL    C4046018   5.392   2.347   6.996  0.2852 -0.2933  0.4483
   80MOL    O4146019   5.258   2.310   7.006  0.6035  0.9754 -0.3865
   80MOL    C4246020   5.463   2.370   7.128  0.1703  0.2584 -0.1261
   80MOL    O4346021   5.594   2.311   7.131 -0.6191 -0.3175  0.1119
   80MOL    H4446022   5.737   2.783   6.264  0.4395 -0.6600  1.2947
   80MOL    H4546023   5.867   2.854   6.331 -0.4001 -2.1417 -0.1556
   80MOL    H4646024   5.591   2.897   6.456  0.4044  1.0850 -2.0757
   80MOL    H4746025   5.855   2.908   6.561 -0.2245  1.0072 -0.1352
   80MOL    H4846026   5.696   2.636   6.459  0.9074 -1.9160  1.9690
   80MOL    H4946027   5.761   2.703   6.603  1.1489  2.0107 -0.1060
   80MOL    H5046028   5.609   2.626   6.762 -1.8817  0.7970  1.1265
   80MOL    H5146029   5.567   2.508   6.638 -0.6035  0.5563 -0.4279
   80MOL    H5246030   5.338   2.625   6.666 -1.6417  0.3627  0.9527
   80MOL    H5346031   5.381   2.683   6.826 -1.2612 -1.5206  0.9206
   80MOL    H5446032   5.253   2.453   6.790 -0.3387 -1.6897 -1.2385
   80MOL    H5546033   5.403   2.395   6.731 -0.5716  1.4606 -1.0312
   80MOL    H5646034   5.437   2.261   6.946  2.3749  0.4990  0.8991
   80MOL    H5746035   5.224   2.349   7.085 -0.7547  0.0289 -0.4774
   80MOL    H5846036   5.446   2.472   7.161 -1.0542  0.4381 -1.2591
   80MOL    H5946037   5.413   2.305   7.200 -0.2641  0.2643 -0.4229
   80MOL    C6046038   5.690   2.350   7.040  0.1938  0.4492  0.0058
   80MOL    C6146039   5.734   2.497   7.050  0.1921  0.5160 -0.3186
   80MOL    O6246040   5.835   2.517   6.952  0.2501  0.2087 -0.4436
   80MOL    C6346041   5.800   2.524   7.185  0.1890 -0.0482 -0.1978
   80MOL    O6446042   5.823   2.656   7.230 -0.2978 -0.1937  0.5382
   80MOL    C6546043   5.855   2.659   7.367  0.3689 -0.4157  0.0420
   80MOL    C6646044   5.914   2.797   7.389  0.0197  0.0713  0.2283
   80MOL    C6746045   6.006   2.817   7.516 -0.4206 -0.8863  0.0079
   80MOL    O6846046   6.030   2.958   7.538  0.0562 -0.2067 -0.3272
   80MOL    C6946047   6.132   2.995   7.627 -0.0315  0.4120  0.5436
   80MOL    O7046048   6.265   2.965   7.578 -0.0889  0.2034  0.5473
   80MOL    C7146049   6.107   3.139   7.664  0.5485  0.0367 -0.0360
   80MOL    O7246050   6.053   3.209   7.549  0.7112 -0.0471  0.3500
   80MOL    H7346051   5.666   2.319   6.938  2.0843 -4.0700  0.8239
   80MOL    H7446052   5.779   2.300   7.080 -0.9129  0.0145  1.9624
   80MOL    H7546053   5.648   2.563   7.040 -0.6405 -0.6872 -1.3582
   80MOL    H7646054   5.869   2.600   6.980 -0.6568  0.2837  0.4798
   80MOL    H7746055   5.748   2.476   7.268 -0.0226  2.3688  1.1224
   80MOL    H7846056   5.891   2.464   7.178 -1.3412 -2.5279  0.2298
   80MOL    H7946057   5.917   2.576   7.399  0.0664 -0.6465  0.0306
   80MOL    H8046058   5.762   2.652   7.423  2.1475 -2.0481  2.9589
   80MOL    H8146059   5.830   2.866   7.397 -1.5855 -1.9978  1.5905
   80MOL    H8246060   5.963   2.837   7.300 -1.2135  2.6024  0.6336
   80MOL    H8346061   6.098   2.761   7.506 -0.5225 -0.8787 -1.1130
   80MOL    H8446062   5.944   2.790   7.601 -1.1172  2.3416  0.6228
   80MOL    H8546063   6.112   2.931   0.018 -0.0499 -0.5209 -0.1504
   80MOL    H8646064   6.262   2.982   7.485  1.2147  0.3576  0.5316
   80MOL    H8746065   6.049   3.136   0.062  1.2884 -0.6295  0.4088
   80MOL    H8846066   6.201   3.193   7.681  0.6026 -0.6525  2.0933
   80MOL    C8946067   5.927   3.264   7.585  0.6622  0.0714  0.7653
   80MOL    C9046068   5.864   3.336   7.460  0.3563 -0.2423 -0.5165
   80MOL    O9146069   5.826   3.231   7.368  0.0316  0.0485 -0.1075
   80MOL    C9246070   5.747   3.419   7.508 -0.0385 -0.3215 -0.2823
   80MOL    O9346071   5.785   3.551   7.522  0.2401  0.2998  0.2949
   80MOL    C9446072   5.833   3.580   7.652 -0.6980 -0.8736 -0.1480
   80MOL    C9546073   5.851   3.728   7.693 -0.9739 -0.2895 -0.3651
   80MOL    C9646074   5.923   3.742   0.130  0.1740  0.5821 -1.0818
   80MOL    O9746075   5.840   3.690   0.241  0.4199 -0.2090 -0.2637
   80MOL    C9846076   5.904   3.702   0.366 -0.2564 -0.3965 -0.5334
   80MOL    O9946077   5.915   3.837   0.406  0.0521  0.2091 -0.7297
   80MOL   C10046078   5.819   3.629   0.467  0.3537  0.1277  0.3181
   80MOL   O10146079   5.866   3.502   0.483  0.0616  0.6974 -0.0923
   80MOL   H10246080   5.944   3.333   7.668 -0.6862  1.3982 -0.0389
   80MOL   H10346081   5.855   3.193   7.624  1.7806 -2.1558 -1.1052
   80MOL   H10446082   5.939   3.394   7.405 -0.0638 -0.0188 -0.8525
   80MOL   H10546083   5.859   3.162   7.424 -0.2825  0.8364  1.0801
   80MOL   H10646084   5.677   3.416   7.425  0.5589  0.9185 -0.8359
   80MOL   H10746085   5.695   3.385   7.598  1.9940  1.0338  1.4456
   80MOL   H10846086   5.934   3.539   7.661  0.1994  0.8535 -1.9412
   80MOL   H10946087   5.772   3.531   0.033 -0.4579 -1.3871 -0.2803
   80MOL   H11046088   5.754   3.776   0.012 -1.5177 -1.1834 -0.9635
   80MOL   H11146089   5.891   3.777   7.604 -0.1023 -0.8932 -0.3161
   80MOL   H11246090   6.018   3.689   0.141  1.1092  2.4699  0.3470
   80MOL   H11346091   5.951   3.847   0.142  2.5139 -0.0209 -1.0047
   80MOL   H11446092   6.001   3.653   0.359 -0.8109 -1.6819  0.6194
   80MOL   H11546093   5.828   3.874   0.406  0.1439  0.4306 -1.3524
   80MOL   H11646094   5.831   3.662   0.570 -2.1079 -1.0338  1.0043
   80MOL   H11746095   5.711   3.639   0.451  0.4927  1.4320  0.1156
   80MOL   C11846096   5.839   3.410   0.375  0.2380  0.0182 -0.3494
   80MOL   C11946097   5.905   3.281   0.423  0.3118  0.5798  0.2906
   80MOL   O12046098   5.940   3.192   0.317  0.5463  0.2434 -0.3392
   80MOL   C12146099   5.814   3.201   0.514 -0.2736  0.1529  0.2575
   80MOL   O12246100   5.898   3.097   0.578  0.1723 -0.3138  0.0936
   80MOL   C12346101   5.828   2.995   0.652  0.3987  0.1113 -0.3402
   80MOL   C12446102   5.929   2.889   0.699 -0.1763  0.3304  0.2450
   80MOL   C12546103   5.964   2.788   0.590 -1.0388 -0.3241 -0.2473
   80MOL   O12646104   6.043   2.676   0.630  0.5956  0.2892  0.0835
   80MOL   C12746105   6.095   2.597   0.532 -0.1368 -0.2887  0.0792
   80MOL   O12846106   5.999   2.507   0.485  0.2913 -0.1457 -0.2875
   80MOL   C12946107   6.209   2.516   0.602  0.4987  0.1171 -0.2154
   80MOL   O13046108   6.324   2.591   0.626 -0.8219 -0.4636  0.6748
   80MOL   H13146109   5.736   3.408   0.342  0.3240  0.9162 -0.6649
   80MOL   H13246110   5.896   3.444   0.288  0.2584  0.9457  0.0218
   80MOL   H13346111   5.994   3.318   0.474  1.1500  0.5216 -1.1118
   80MOL   H13446112   6.012   3.140   0.351  0.6055  0.8002  0.3996
   80MOL   H13546113   5.763   3.261   0.589 -0.8776  0.5584 -0.4773
   80MOL   H13646114   5.733   3.152   0.459  0.9930 -1.0779 -0.5421
   80MOL   H13746115   5.750   2.955   0.586 -1.2316  0.3614  1.3881
   80MOL   H13846116   5.769   3.039   0.733  0.1233  0.4120 -0.6983
   80MOL   H13946117   5.873   2.826   0.769 -1.6307  2.4112  1.0271
   80MOL   H14046118   6.011   2.927   0.759  1.0985  0.5284 -1.6159
   80MOL   H14146119   5.876   2.760   0.533 -0.7169 -3.3769  0.6616
   80MOL   H14246120   6.013   2.849   0.514  0.1348 -0.3240  0.4984
   80MOL   H14346121   6.132   2.650   0.444  0.9622 -0.2862  0.5437
   80MOL   H14446122   6.001   2.428   0.537  2.4130  0.9472  1.3769
   80MOL   H14546123   6.158   2.458   0.679 -0.5375  0.3525 -0.7131
   80MOL   H14646124   6.241   2.441   0.529  2.2978 -0.4911  1.1816
   80MOL   C14746125   6.419   2.514   0.696  0.8268  0.1401 -0.0083
   80MOL   C14846126   6.543   2.601   0.708  0.2924 -0.3115  0.0626
   80MOL   O14946127   6.640   2.542   0.792 -0.5062  0.0604  0.1359
   80MOL   C15046128   6.513   2.746   0.767  0.3506  0.6058  0.3403
   80MOL   O15146129   6.584   2.857   0.715  0.5501  0.3917  0.1610
   80MOL   C15246130   6.727   2.848   0.744 -0.5408 -0.0169 -0.9056
   80MOL   C15346131   6.768   2.839   0.886 -0.3707 -0.2257  0.1998
   80MOL   C15446132   6.922   2.862   0.914 -0.1138 -0.1489  0.2275
   80MOL   O15546133   7.000   2.781   0.828 -0.4051  0.0224  0.9788
   80MOL   C15646134   6.980   2.643   0.853  0.1969  0.2393 -0.1104
   80MOL   O15746135   7.059   2.607   0.962 -0.1618  0.4349 -0.9900
   80MOL   C15846136   7.039   2.569   0.725  0.6361  0.1668 -0.0951
   80MOL   O15946137   6.938   2.575   0.625 -0.6209 -0.8792  0.5183
   80MOL   H16046138   6.447   2.419   0.650  1.1851  0.9640 -1.4945
   80MOL   H16146139   6.382   2.493   0.797  2.0028  3.3040  1.1421
   80MOL   H16246140   6.594   2.609   0.612 -1.8403 -4.1457 -1.4719
   80MOL   H16346141   6.592   2.469   0.828 -0.3359  0.0081  0.2542
   80MOL   H16446142   6.411   2.775   0.741 -0.9214 -4.8677 -1.6081
   80MOL   H16546143   6.512   2.741   0.876  0.4900  0.7132  0.3470
   80MOL   H16646144   6.774   2.931   0.690  0.3304  1.3181  1.7869
   80MOL   H16746145   6.772   2.761   0.698  0.0617 -0.6226  0.7674
   80MOL   H16846146   6.733   2.751   0.941 -0.2227  0.8871  2.1310
   80MOL   H16946147   6.718   2.917   0.943  0.7826 -0.9742  2.3111
   80MOL   H17046148   6.956   2.965   0.902  0.6377 -0.6100 -1.8927
   80MOL   H17146149   6.947   2.846   1.019  0.0579  0.5701  0.3016
   80MOL   H17246150   6.877   2.611   0.865  0.7738 -1.2877  0.9128
   80MOL   H17346151   7.118   2.538   0.935  0.4460 -0.0052  1.4033
   80MOL   H17446152   7.136   2.608   0.695  0.8797 -0.5203 -0.2147
   80MOL   H17546153   7.051   2.467   0.761 -2.3737  0.2971  1.4518
   80MOL   C17646154   6.968   2.517   0.498 -0.4070 -0.3088 -0.1158
   80MOL   C17746155   6.828   2.514   0.426 -0.1702  0.2206 -0.0034
   80MOL   O17846156   6.833   2.413   0.323 -0.2768  0.0697  0.0688
   80MOL   C17946157   6.765   2.646   0.367  0.0035  0.2985 -0.1714
   80MOL   O18046158   6.629   2.627   0.349  0.6963  0.3213 -0.1426
   80MOL   C18146159   6.560   2.739   0.281 -0.5671  0.3199  0.5272
   80MOL   C18246160   6.411   2.700   0.254 -0.5888 -0.1555 -0.3083
   80MOL   C18346161   6.374   2.716   0.103  0.5389 -0.1535 -0.2955
   80MOL   O18446162   6.445   2.616   0.031  0.0392  0.5394 -0.0578
   80MOL   C18546163   6.417   2.606   7.587  0.2978  0.7447 -0.2264
   80MOL   O18646164   6.284   2.561   7.560  0.6677 -0.0603  0.2150
   80MOL   C18746165   6.521   2.513   7.527 -0.4128  0.5905 -0.0080
   80MOL   O18846166   6.598   2.585   7.430 -0.7537 -0.0587 -0.8366
   80MOL   H18946167   6.995   2.412   0.512 -0.1458 -0.7751 -3.7084
   80MOL   H19046168   7.035   2.587   0.448  0.6121  0.2094  1.9248
   80MOL   H19146169   6.758   2.463   0.491 -0.6294  0.1710 -0.5351
   80MOL   H19246170   6.751   2.404   0.276  1.0301  1.6859 -2.6637
   80MOL   H19346171   6.762   2.727   0.439  0.2458 -1.4797  1.8644
   80MOL   H19446172   6.812   2.681   0.274  0.6193  1.3379  0.5134
   80MOL   H19546173   6.613   2.770   0.191 -0.3185  2.0091  1.2397
   80MOL   H19646174   6.564   2.825   0.348 -2.5485 -0.6894  1.9718
   80MOL   H19746175   6.340   2.753   0.316  0.4858  0.7810  0.1466
   80MOL   H19846176   6.399   2.599   0.292  1.9392 -0.6873 -0.8153
   80MOL   H19946177   6.266   2.707   0.090  0.1423  1.8596  1.3208
   80MOL   H20046178   6.409   2.815   0.074  0.3237 -0.4465 -1.5809
   80MOL   H20146179   6.420   2.704   7.539  0.2498  1.5356  1.3444
   80MOL   H20246180   6.268   2.482   7.611  0.8042  0.0428  0.4174
   80MOL   H20346181   6.589   2.469   7.600 -0.5518 -0.1930 -0.3397
   80MOL   H20446182   6.468   2.426   7.487  0.7245 -0.9701  1.7742
   80MOL   C20546183   6.655   2.494   7.330  0.3664 -0.5109  0.7015
   80MOL   C20646184   6.770   2.571   7.259  0.4495  0.0407 -0.2219
   80MOL   O20746185   6.880   2.565   7.349  0.1971  0.0992 -0.0322
   80MOL   C20846186   6.828   2.484   7.142 -0.1352  0.3964  0.2056
   80MOL   O20946187   6.919   2.558   7.057  0.2821  0.1505  0.1553
   80MOL   C21046188   6.986   2.461   6.983  0.7339  0.0508 -0.1142
   80MOL   C21146189   7.104   2.532   6.920  0.3306  0.2655 -0.5030
   80MOL   C21246190   7.220   2.440   6.876 -0.3351  0.5777  0.6701
   80MOL   O21346191   7.188   2.369   6.757  0.3734 -0.3654  0.2796
   80MOL   C21446192   7.287   2.286   6.721  0.1938  0.3617 -0.3630
   80MOL   O21546193   7.372   2.354   6.636  0.7469  0.2215  0.4111
   80MOL   C21646194   7.215   2.176   6.645  0.5087 -0.6786 -0.1066
   80MOL   O21746195   7.156   2.094   6.741  0.1068  0.2563 -0.1644
   80MOL   H21846196   6.570   2.474   7.265 -0.4457  0.6256  1.3875
   80MOL   H21946197   6.684   2.407   7.389  0.6773  0.8933  2.6972
   80MOL   H22046198   6.729   2.668   7.230 -2.1114  0.0080  2.9749
   80MOL   H22146199   6.850   2.593   7.434  0.3161  0.5342 -0.1325
   80MOL   H22246200   6.860   2.386   7.178 -2.4701 -0.5749 -0.2798
   80MOL   H22346201   6.741   2.460   7.080  0.6875 -1.9993 -0.0600
   80MOL   H22446202   6.918   2.418   6.909 -0.4172  1.7684 -0.0919
   80MOL   H22546203   7.017   2.376   7.044 -0.8572  0.7082  1.6644
   80MOL   H22646204   7.139   2.610   6.988 -0.5525  1.0401 -0.9258
   80MOL   H22746205   7.081   2.595   6.834 -0.8971  0.4308 -0.0711
   80MOL   H22846206   7.309   2.501   6.859 -0.5609  0.1199 -2.4821
   80MOL   H22946207   7.227   2.369   6.958 -1.1913 -2.7827 -2.0798
   80MOL   H23046208   7.350   2.244   6.800  0.4764  3.0557  0.9036
   80MOL   H23146209   7.340   2.361   6.548 -1.2834 -0.6176  1.0478
   80MOL   H23246210   7.142   2.218   6.576  0.6193 -0.4633 -0.0907
   80MOL   H23346211   7.287   2.121   6.583  2.2497  1.9606 -0.4752
   80MOL   C23446212   7.040   2.031   6.683 -0.3124 -0.3943  0.3200
   80MOL   C23546213   7.008   1.905   6.765 -0.0363  0.2894  0.1194
   80MOL   O23646214   6.882   1.858   6.724 -0.1334  0.3405 -0.3592
   80MOL   C23746215   6.980   1.923   6.914 -0.1492 -0.2276 -1.0800
   80MOL   O23846216   6.886   2.024   6.952  0.5991  0.2432 -0.3664
   80MOL   C23946217   6.810   2.007   7.073  0.9133  0.1386  0.2688
   80MOL   C24046218   6.690   2.108   7.058 -0.3507  0.3676  0.6435
   80MOL   C24146219   6.579   2.088   7.168  0.1334 -1.2310  0.0772
   80MOL   O24246220   6.473   2.189   7.148 -0.4684  0.1970  0.7788
   80MOL   C24346221   6.407   2.222   7.259 -0.1828  0.0789  0.7453
   80MOL   O24446222   6.362   2.108   7.325  0.9210 -0.4538  0.3585
   80MOL   C24546223   6.286   2.307   7.223 -0.4574  0.3047 -0.2141
   80MOL   O24646224   6.327   2.437   7.178 -0.0331  0.0405 -0.2117
   80MOL   H24746225   6.955   2.098   6.678 -0.9181 -1.0025  2.0107
   80MOL   H24846226   7.056   2.002   6.579 -0.4266 -2.1315  0.7663
   80MOL   H24946227   7.086   1.830   6.753 -0.4848 -0.1366 -0.1282
   80MOL   H25046228   6.829   1.903   6.789 -1.2879 -0.6538 -0.5969
   80MOL   H25146229   6.948   1.823   6.943  1.7747 -0.9998 -1.5143
   80MOL   H25246230   7.069   1.946   6.972 -0.3186 -0.6325 -0.6575
   80MOL   H25346231   6.877   2.034   7.155 -0.5328 -0.3275  1.6269
   80MOL   H25446232   6.776   1.903   7.077  1.0499  0.1220  0.9744
   80MOL   H25546233   6.646   2.096   6.959  1.3823  1.0306 -0.2246
   80MOL   H25646234   6.729   2.209   7.068  0.1291  0.1059  1.3714
   80MOL   H25746235   6.532   1.990   7.161 -2.2094 -0.0506 -1.4825
   80MOL   H25846236   6.623   2.104   7.267  0.1595  0.1386 -0.1375
   80MOL   H25946237   6.477   2.275   7.323 -0.9114  2.4718 -0.3724
   80MOL   H26046238   6.328   2.054   7.254 -0.8591  0.3422  0.5744
   80MOL   H26146239   6.225   2.262   7.145  1.7418  1.5445 -2.7234
   80MOL   H26246240   6.224   2.310   7.313  1.4441  0.0650  1.1373
   80MOL   C26346241   6.231   2.524   7.129  0.0649 -0.2438 -0.3496
   80MOL   C26446242   6.292   2.664   7.121  0.6864  0.2943 -0.3276
   80MOL   O26546243   6.206   2.753   7.052  0.3171  0.4532  0.0701
   80MOL   C26646244   6.337   2.720   7.251 -0.2813  0.5904  0.6561
   80MOL   O26746245   6.388   2.855   7.235 -0.1946  0.2517 -0.2418
   80MOL   C26846246   6.529   2.863   7.229 -0.3072  0.4161 -0.2684
   80MOL   C26946247   6.571   3.001   7.170 -0.2777  0.7227 -0.2014
   80MOL   C27046248   6.724   2.999   7.148 -1.1618  0.3534 -0.2904
   80MOL   O27146249   6.762   2.920   7.029 -0.3478  0.6209 -0.1200
   80MOL   C27246250   6.897   2.909   7.010  0.2900  0.4473 -0.2176
   80MOL   O27346251   6.948   2.835   7.117 -0.2577  0.3981  0.1188
   80MOL   C27446252   6.934   2.845   6.879 -0.0428 -0.3686  0.5147
   80MOL   O27546253   6.910   2.934   6.776  0.2718 -0.0129  0.3612
   80MOL   H27646254   6.139   2.528   7.187  0.5460  0.2670  0.3870
   80MOL   H27746255   6.214   2.488   7.028 -0.1823 -1.7453  0.2205
   80MOL   H27846256   6.377   2.649   7.054  1.4103 -0.0104  0.6339
   80MOL   H27946257   6.259   2.831   7.053  1.6810 -0.4382 -0.1836
   80MOL   H28046258   6.240   2.730   7.299  0.0538  0.6365  1.3317
   80MOL   H28146259   6.402   2.648   7.301  3.0367  2.6474 -0.5731
   80MOL   H28246260   6.565   2.782   7.165  1.3905  1.2128 -0.3472
   80MOL   H28346261   6.562   2.853   7.332 -2.0234 -3.3842  0.0024
   80MOL   H28446262   6.549   3.083   7.239 -1.2350  0.1697  0.1503
   80MOL   H28546263   6.530   3.021   7.071  0.0063  2.1952 -0.0355
   80MOL   H28646264   6.764   3.099   7.132 -2.5757  1.1615  1.1813
   80MOL   H28746265   6.771   2.969   7.242  0.3129  0.7443 -0.8856
   80MOL   H28846266   6.933   3.011   7.025 -0.2694  0.7042 -0.6053
   80MOL   H28946267   6.962   2.746   7.089  0.6389  0.9971 -1.3885
   80MOL   H29046268   7.042   2.832   6.885  0.1665  0.8509 -0.3161
   80MOL   H29146269   6.884   2.749   6.873 -0.2232 -0.2318 -0.3047
   80MOL   C29246270   6.958   2.894   6.650 -0.3991 -0.2037 -0.0746
   80MOL   C29346271   7.051   2.999   6.600 -0.1885 -0.1368  0.2277
   80MOL   O29446272   7.165   3.008   6.696  0.1334  0.2265  0.1779
   80MOL   C29546273   7.107   2.984   6.457  0.6774  0.8068  0.5308
   80MOL   O29646274   7.097   3.090   6.366  0.0571  0.0275  0.2280
   80MOL   C29746275   7.176   3.204   6.394  0.3508 -0.2559  0.0956
   80MOL   C29846276   7.143   3.314   6.296 -0.0734 -0.4927  0.0040
   80MOL   C29946277   7.221   3.440   6.318  0.0615  0.4568 -0.3444
   80MOL   O30046278   7.234   3.513   6.200 -0.6397 -0.5993  0.0776
   80MOL   C30146279   7.125   3.589   6.174 -0.0670 -0.1933  0.3621
   80MOL   O30246280   7.101   3.690   6.266 -0.3599  0.1940  0.5471
   80MOL   C30346281   7.153   3.661   6.037  1.1005 -0.4465 -0.0870
   80MOL   O30446282   7.235   3.773   6.056  0.2701 -0.2615  0.5715
   80MOL   H30546283   7.012   2.799   6.645  0.2859  0.2009 -0.5675
   80MOL   H30646284   6.883   2.880   6.573  0.6922 -0.7084 -1.0743
   80MOL   H30746285   6.994   3.091   6.618 -1.9635 -1.0032 -0.9133
   80MOL   H30846286   7.188   2.919   6.719 -1.3881  0.1015  1.3308
   80MOL   H30946287   7.214   2.963   6.462  0.2983 -1.3496  0.3055
   80MOL   H31046288   7.062   2.899   6.406  1.1935  2.1851 -2.3272
   80MOL   H31146289   7.281   3.173   6.392  0.2679 -0.6012  0.9345
   80MOL   H31246290   7.155   3.245   6.492 -1.4488  0.4684 -0.5882
   80MOL   H31346291   7.036   3.333   6.290  0.3000  1.6151 -0.2533
   80MOL   H31446292   7.170   3.281   6.196 -0.3942 -1.4131  0.2177
   80MOL   H31546293   7.183   3.476   6.414  0.7813 -1.5749  0.7445
   80MOL   H31646294   7.323   3.412   6.343 -0.7218 -1.8534  0.3898
   80MOL   H31746295   7.038   3.525   6.160 -0.5546  0.1902  1.5760
   80MOL   H31846296   7.168   3.756   6.256  1.1028 -1.1171  1.5590
   80MOL   H31946297   7.055   3.687   5.997  1.1461 -1.9370 -1.2555
   80MOL   H32046298   7.201   3.591   5.969 -1.0910 -1.4857 -0.6366
   80MOL   C32146299   7.323   3.794   5.944  0.4631  0.0423  0.7728
   80MOL   C32246300   7.390   3.922   5.977 -0.7443  0.1713 -0.0388
   80MOL   O32346301   7.455   3.901   6.093  0.1093  0.1709 -0.2593
   80MOL   C32446302   7.501   3.969   5.874  0.2234  0.1818  0.5578
   80MOL   O32546303   7.465   3.941   5.736 -0.0712  0.0469  0.0384
   80MOL   C32646304   7.368   4.036   5.693 -0.0206  0.6472 -0.0133
   80MOL   C32746305   7.310   3.972   5.566  0.0463  0.2333 -0.5094
   80MOL   C32846306   7.197   4.060   5.505  0.0326  0.4175  0.4663
   80MOL   O32946307   7.149   4.006   5.386  0.1792 -0.5522 -0.3607
   80MOL   C33046308   7.039   4.074   5.337 -0.3541  0.2140  0.2666
   80MOL   O33146309   7.072   4.202   5.292 -0.2387  0.3854  0.4305
   80MOL   C33246310   6.967   3.993   5.230 -0.0486 -0.6939 -0.2100
   80MOL   O33346311   7.046   3.892   5.170 -0.0450 -0.3678  0.3823
   80MOL   H33446312   7.263   3.805   5.854  1.7749 -2.0191 -0.3613
   80MOL   H33546313   7.387   3.709   5.925  0.4043 -0.1407  1.3666
   80MOL   H33646314   7.310   3.993   5.997  0.1331  1.5718 -1.3172
   80MOL   H33746315   7.394   3.887   6.163  0.9723  0.9910  0.6755
   80MOL   H33846316   7.598   3.919   5.878  0.0424 -0.5470 -2.5085
   80MOL   H33946317   7.521   4.076   5.883 -1.3843  0.5363  0.1508
   80MOL   H34046318   7.404   4.138   5.678 -2.2456  1.8491  2.4555
   80MOL   H34146319   7.289   4.058   5.765  0.0958 -3.1384  1.3931
   80MOL   H34246320   7.384   3.951   5.489 -0.4173  1.0797 -1.2036
   80MOL   H34346321   7.260   3.885   5.608 -1.8196  1.9743  0.9819
   80MOL   H34446322   7.124   4.086   5.581  0.4173  0.6067  0.7741
   80MOL   H34546323   7.238   4.156   5.473 -0.2087 -0.4760 -2.7454
   80MOL   H34646324   6.973   4.087   5.423  0.9451  0.4110  1.2557
   80MOL   H34746325   7.130   4.189   5.218  0.7213  2.3476  0.8119
   80MOL   H34846326   6.881   3.940   5.270  0.1813 -1.0616 -0.2042
   80MOL   H34946327   6.909   4.058   5.164 -0.8899 -1.2174  0.0007
   80MOL   C35046328   7.114   3.944   5.061  0.0383  0.6542 -0.2508
   80MOL   C35146329   7.262   3.904   5.066 -0.3959 -0.2538 -0.1925
   80MOL   O35246330   7.317   3.981   5.164  0.6602 -0.0318 -0.2310
   80MOL   C35346331   7.285   3.760   5.103  0.1206  0.5400  0.0462
   80MOL   O35446332   7.423   3.724   5.085  0.8046 -0.0153 -0.1007
   80MOL   C35546333   7.449   3.584   5.125  0.0462 -0.6042 -0.5412
   80MOL   C35646334   7.478   3.578   5.280  0.8945 -0.2019  0.4470
   80MOL   C35746335   7.604   3.645   5.337 -0.3496  0.3778 -0.2831
   80MOL   O35846336   7.609   3.605   5.474  0.5195  0.5003 -0.3432
   80MOL   C35946337   7.694   3.680   5.555 -0.3910 -0.0498  0.7136
   80MOL   O36046338   7.655   3.815   5.568 -0.4212  0.7536  0.6688
   80MOL   C36146339   0.009   3.612   5.700  0.1431 -0.7840 -0.3668
   80MOL   O36246340   7.577   3.554   5.738 -0.1568  0.5617 -0.1900
   80MOL   H36346341   7.105   4.051   5.042 -1.5069  0.4684 -0.6513
   80MOL   H36446342   7.078   3.913   4.963  2.1655 -1.9564 -0.2589
   80MOL   H36546343   7.304   3.932   4.969 -2.1643 -0.3790 -1.0085
   80MOL   H36646344   7.257   3.964   5.236 -1.9598 -2.6989 -2.8893
   80MOL   H36746345   7.248   3.733   5.202  0.7239 -1.6817 -0.3074
   80MOL   H36846346   7.220   3.704   5.035  2.9824 -3.3474  0.3248
   80MOL   H36946347   7.532   3.534   5.076 -0.3931 -1.9047  0.0215
   80MOL   H37046348   7.365   3.525   5.088 -1.1898  1.1525 -0.6560
   80MOL   H37146349   7.481   3.470   5.299 -0.1341 -0.2174  0.5613
   80MOL   H37246350   7.391   3.604   5.340 -0.7783 -1.9937 -1.1348
   80MOL   H37346351   7.694   3.610   5.287 -0.0920  4.4993 -2.9939
   80MOL   H37446352   7.597   3.754   5.329 -3.3683  0.1774 -0.7907
   80MOL   H37546353   0.093   3.682   5.499 -0.7076 -0.8448  0.1553
   80MOL   H37646354   7.592   3.831   5.636  1.4261  0.5991  2.4888
   80MOL   H37746355   0.076   3.528   5.684 -1.4864 -1.9660 -1.1895
   80MOL   H37846356   0.050   3.686   5.769  0.3241  0.7842 -2.1074
   80MOL   C37946357   7.584   3.457   5.845 -0.4741 -0.0052  0.6238
   80MOL   C38046358   7.445   3.398   5.865  0.8594  0.9561  0.9439
   80MOL   O38146359   7.429   3.291   5.775 -0.0277  0.2766  0.6012
   80MOL   C38246360   7.431   3.342   6.003  1.1782  0.3817  0.0021
   80MOL   O38346361   7.543   3.266   6.032 -0.2401 -0.3504 -0.3189
   80MOL   C38446362   7.516   3.182   6.146  0.0423 -0.9148  0.8662
   80MOL   C38546363   7.629   3.084   6.165  0.0617  0.5513  0.0273
   80MOL   C38646364   7.602   2.968   6.266 -0.2662  0.1645  0.3567
   80MOL   O38746365   7.590   3.021   6.398  0.0858 -0.2171 -0.0533
   80MOL   C38846366   0.014   3.008   6.469 -0.4103 -0.6733 -0.6221
   80MOL   O38946367   0.116   3.093   6.420 -0.3844  0.0979  0.0458
   80MOL   C39046368   7.665   3.051   6.615  0.4777 -0.8112  0.3841
   80MOL   O39146369   7.630   2.928   6.680 -0.0983 -0.0793  0.3451
   80MOL   H39246370   7.618   3.509   5.935  2.9233  0.8141 -1.0068
   80MOL   H39346371   7.662   3.385   5.822  0.0481  0.2930  1.4265
   80MOL   H39446372   7.381   3.483   5.844  2.1311  1.1936 -2.2524
   80MOL   H39546373   7.472   3.217   5.816 -0.5624 -0.8639 -0.8261
   80MOL   H39646374   7.437   3.427   6.070  0.1010  1.2145 -0.9381
   80MOL   H39746375   7.335   3.293   6.012  1.3681  0.2159  1.1370
   80MOL   H39846376   7.419   3.134   6.135 -0.6769  0.5735  0.6367
   80MOL   H39946377   7.504   3.256   6.225 -1.0949 -0.0036 -0.1231
   80MOL   H40046378   0.027   3.137   6.187  0.2003 -0.0165  0.8219
   80MOL   H40146379   7.644   3.059   6.060 -1.7746 -0.3079 -0.0608
   80MOL   H40246380   7.518   2.911   6.225 -0.9109 -0.9248  3.0812
   80MOL   H40346381   7.685   2.899   6.260  2.9343  3.9198 -0.5662
   80MOL   H40446382   0.054   2.906   6.473  0.8510 -0.1266  2.1327
   80MOL   H40546383   0.116   3.178   6.463  2.2496  0.2230 -0.1050
   80MOL   H40646384   0.055   3.080   6.678  1.6605 -1.6858 -0.7519
   80MOL   H40746385   7.590   3.130   6.616 -0.5676 -1.7422 -1.4719
   80MOL   C40846386   7.504   2.891   6.649  0.2483  0.6556  0.6974
   80MOL   C40946387   7.464   2.785   6.748 -0.5081 -0.3145 -0.6622
   80MOL   O41046388   7.325   2.759   6.727  0.3274 -0.1823 -0.5585
   80MOL   C41146389   7.485   2.843   6.890  0.3194 -0.1747  0.4715
   80MOL   O41246390   7.479   2.730   6.967 -0.2483  0.5791 -0.2746
   80MOL   C41346391   7.549   2.740   7.091 -0.6659 -0.4931 -0.2162
   80MOL   C41446392   7.517   2.621   7.189 -0.5896 -0.1364  0.2345
   80MOL   C41546393   7.364   2.614   7.220  0.8629 -0.2437  0.2388
   80MOL   O41646394   7.326   2.503   7.298 -0.3874  0.0913 -0.2447
   80MOL   C41746395   7.194   2.476   7.322  0.3504 -0.2479 -0.1331
   80MOL   O41846396   7.140   2.557   7.422  0.1604  0.5349 -0.3582
   80MOL   C41946397   7.178   2.327   7.365 -0.8780  0.3886 -0.4339
   80MOL   O42046398   7.189   2.229   7.255 -0.0586 -0.6425  0.0963
   80MOL   H42146399   7.498   2.841   6.552 -1.2607 -0.9898  1.6094
   80MOL   H42246400   7.433   2.973   6.656  0.0586  0.5295  0.2894
   80MOL   H42346401   7.519   2.691   6.743 -1.8564 -1.0907 -1.3145
   80MOL   H42446402   7.314   2.665   6.719  0.4857 -0.6963  3.9463
   80MOL   H42546403   7.585   2.882   6.908 -0.3870  1.5149  0.8560
   80MOL   H42646404   7.422   2.927   6.919  2.1855  0.9595  1.3604
   80MOL   H42746405   7.652   2.761   7.065 -0.4355 -0.4154  0.7275
   80MOL   H42846406   7.525   2.835   7.141  0.8415  0.5256 -1.4104
   80MOL   H42946407   7.587   2.626   7.273 -0.2202 -0.6832 -0.0317
   80MOL   H43046408   7.546   2.536   7.127  4.1531  1.8010 -0.5072
   80MOL   H43146409   7.346   2.708   7.274 -1.4936 -1.0431  0.9347
   80MOL   H43246410   7.314   2.604   7.124  0.3198 -1.3301  0.6189
   80MOL   H43346411   7.134   2.493   7.232 -0.4665  1.4160  0.7021
   80MOL   H43446412   7.047   2.572   7.417 -0.2032 -1.2466  0.7394
   80MOL   H43546413   7.209   2.295   7.464 -1.1079  1.4418 -0.0178
   80MOL   H43646414   7.069   2.322   7.369 -1.0061 -1.5923 -3.6036
   80MOL   C43746415   7.320   2.216   7.201 -0.0787  0.0682 -0.8240
   80MOL   C43846416   7.337   2.072   7.154  0.0416 -0.0319  0.4332
   80MOL   O43946417   7.283   2.079   7.021 -0.2765  0.8071  0.6010
   80MOL   C44046418   7.296   1.953   7.253  0.9175  0.0650 -0.0964
   80MOL   O44146419   7.362   1.836   7.219  0.0197  0.2959  0.2668
   80MOL   C44246420   7.317   1.726   7.302  0.2974 -0.1813  0.0655
   80MOL   C44346421   7.398   1.603   7.283 -0.0031  0.1186  0.3695
   80MOL   C44446422   7.322   1.478   7.322  0.1353 -0.1057  0.1379
   80MOL   O44546423   7.387   1.358   7.285 -0.1524  0.4697 -0.2334
   80MOL   C44646424   7.307   1.244   7.306 -0.2430  0.0958 -0.3143
   80MOL   O44746425   7.287   1.218   7.448 -0.0076 -0.1584  0.2029
   80MOL   C44846426   7.387   1.129   7.249 -0.0070 -0.5485 -0.2659
   80MOL   O44946427   7.373   1.128   7.106  0.1096 -0.0087  0.3752
   80MOL   H45046428   7.326   2.290   7.121  1.6137  2.3882  1.3372
   80MOL   H45146429   7.406   2.242   7.263 -0.9374  0.3011  0.2928
   80MOL   H45246430   7.444   2.059   7.137 -0.3555 -0.0206 -2.3545
   80MOL   H45346431   7.194   2.107   7.033 -0.7755 -1.3376  2.2686
   80MOL   H45446432   7.338   1.970   7.353 -1.2783 -1.9078  1.2301
   80MOL   H45546433   7.188   1.940   7.259  0.7397  1.1793 -0.7629
   80MOL   H45646434   7.212   1.701   7.292 -0.0279  0.3276  1.9053
   80MOL   H45746435   7.332   1.747   7.408  0.7794  0.3230 -0.0973
   80MOL   H45846436   7.498   1.611   7.326 -0.2303 -0.3449  0.9888
   80MOL   H45946437   7.426   1.583   7.179 -0.3000 -0.6025  0.4238
   80MOL   H46046438   7.291   1.481   7.427  0.2008  0.4996  0.1439
   80MOL   H46146439   7.222   1.473   7.277 -0.2586 -2.8598  1.2344
   80MOL   H46246440   7.210   1.249   7.257 -1.4807 -1.5202  1.8314
   80MOL   H46346441   7.372   1.227   7.490 -1.3420  2.6689  2.4684
   80MOL   H46446442   7.492   1.140   7.276  0.2341 -2.4152 -0.4182
   80MOL   H46546443   7.338   1.037   7.282  1.6048 -1.1829  0.4107
   80MOL   C46646444   7.380   0.999   7.049 -0.1125 -0.4264  0.6308
   80MOL   C46746445   7.382   1.012   6.898  0.1975  0.1057 -0.5557
   80MOL   O46846446   7.376   0.876   6.852  0.0087  0.2791  0.2924
   80MOL   C46946447   7.266   1.096   6.834 -0.8724 -0.3618  0.0240
   80MOL   O47046448   7.313   1.220   6.776 -0.2583 -0.0321 -0.3518
   80MOL   C47146449   7.333   1.335   6.860  0.2592  0.1553  0.0920
   80MOL   C47246450   7.387   1.449   6.761  0.0887  0.3703 -0.8743
   80MOL   C47346451   7.389   1.587   6.828  0.1452  0.6002  0.8262
   80MOL   O47446452   7.396   1.702   6.744 -0.0809 -0.6277  0.0198
   80MOL   C47546453   7.416   1.817   6.816 -0.1433  0.9528 -0.0882
   80MOL   O47646454   7.298   1.844   6.889  0.9520 -0.2449 -0.6452
   80MOL   C47746455   7.455   1.929   6.723 -0.0761  0.0971 -0.3420
   80MOL   O47846456   7.587   1.902   6.681  0.8672  0.3903  0.8070
   80MOL   H47946457   7.294   0.947   7.090 -1.1957  1.0951  0.3273
   80MOL   H48046458   7.471   0.945   7.076  1.7571  1.5150 -1.5165
   80MOL   H48146459   7.472   1.056   6.854 -0.4114 -0.4818 -2.4326
   80MOL   H48246460   7.366   0.862   6.759  0.0513  0.2570  0.2906
   80MOL   H48346461   7.231   1.038   6.749 -1.5527  0.0246  0.0355
   80MOL   H48446462   7.185   1.109   6.906 -0.6685 -0.3340  0.2480
   80MOL   H48546463   7.414   1.327   6.933 -0.3225  0.1233  0.7296
   80MOL   H48646464   7.235   1.346   6.906 -1.3123  0.3580 -3.1429
   80MOL   H48746465   7.327   1.446   6.670 -0.1038 -0.5836 -0.7187
   80MOL   H48846466   7.488   1.423   6.730  0.1882 -0.2965 -0.0243
   80MOL   H48946467   7.295   1.597   6.883 -2.0723 -1.5149 -2.3359
   80MOL   H49046468   7.469   1.586   6.901 -0.6060  3.3869  1.7607
   80MOL   H49146469   7.499   1.795   6.884  0.9879  0.6796 -1.5382
   80MOL   H49246470   7.305   1.926   6.935  2.3186  0.5065 -2.1434
   80MOL   H49346471   7.394   1.925   6.633  1.5401 -0.7581 -1.4325
   80MOL   H49446472   7.447   2.021   6.779  1.5321  0.5798 -0.8754
   80MOL   C49546473   7.640   2.009   6.607  0.8428 -0.1688  0.2245
   80MOL   C49646474   0.071   1.980   6.531 -0.1594  0.0281 -0.0454
   80MOL   O49746475   0.098   2.092   6.455  0.5665 -0.9986  0.7459
   80MOL   C49846476   0.184   1.941   6.614 -0.5083  0.8052 -0.1568
   80MOL   O49946477   0.171   2.015   6.734 -0.0085 -0.2054  0.6336
   80MOL   C50046478   0.265   1.980   6.838 -0.0238  0.0244  0.4481
   80MOL   C50146479   0.201   2.007   6.974  0.4712  0.2166 -0.5674
   80MOL   C50246480   0.042   1.986   6.987 -0.4053 -0.2165 -0.4382
   80MOL   O50346481   7.681   2.016   7.125 -0.2087  0.6182 -0.0706
   80MOL   C50446482   0.009   1.917   7.220  0.2825  0.2320 -0.2171
   80MOL   O50546483   7.621   1.806   7.187 -0.0074  0.3121  1.0468
   80MOL   C50646484   7.669   1.986   7.351  0.0047  0.1914 -0.2917
   80MOL   O50746485   0.076   1.973   7.449  0.1378 -0.0580  0.5533
   80MOL   H50846486   7.636   2.078   6.691 -0.6775 -2.7052  2.3164
   80MOL   H50946487   7.566   2.045   6.535  2.4186  0.0831 -1.2896
   80MOL   H51046488   0.040   1.902   6.461 -0.4758  1.2964 -1.3501
   80MOL   H51146489   0.125   2.166   6.507  0.9212 -0.7932  0.2782
   80MOL   H51246490   0.178   1.836   6.641  2.2145  0.8818  0.9208
   80MOL   H51346491   0.281   1.944   6.564 -1.6158 -1.3923 -2.5422
   80MOL   H51446492   0.362   2.028   6.822  0.8672 -1.5029  1.1993
   80MOL   H51546493   0.274   1.872   6.828 -0.1504  0.0719 -0.2626
   80MOL   H51646494   0.239   2.105   7.001 -0.4688  0.2366  0.7406
   80MOL   H51746495   0.242   1.938   7.048 -0.4487 -0.3700 -0.5982
   80MOL   H51846496   7.682   2.061   6.929 -2.5517 -0.1623  1.5704
   80MOL   H51946497   0.018   1.883   6.962  1.0634 -0.7269  0.1782
   80MOL   H52046498   0.112   1.885   7.205  0.4357 -0.9353  2.8897
   80MOL   H52146499   7.531   1.832   7.185 -0.4170 -1.1115  0.5200
   80MOL   H52246500   7.647   2.092   7.341 -2.8004 -0.4350 -1.4054
   80MOL   H52346501   7.583   1.941   7.401  1.4285 -0.4099  1.6953
   80MOL   C52446502   0.053   2.043   7.580  0.4694  0.9565  0.4280
   80MOL   C52546503   0.166   2.028   7.687 -0.3305  0.6354  0.0209
   80MOL   O52646504   0.132   2.091   0.114 -0.7285 -0.4181  0.4764
   80MOL   C52746505   0.300   2.076   7.618 -0.5208 -0.4947 -0.6200
   80MOL   O52846506   0.396   2.041   0.024 -0.5540 -0.0312 -0.1897
   80MOL   C52946507   0.531   2.047   7.676  0.0484  0.0595 -0.2612
   80MOL   C53046508   0.615   2.086   0.095 -0.6669 -0.3731 -0.7063
   80MOL   C53146509   0.759   2.111   0.043  0.5126  0.0244  0.1560
   80MOL   O53246510   0.854   2.145   0.146  0.4290  0.2913 -0.1942
   80MOL   C53346511   0.889   2.057   0.244  0.4176 -0.2842  0.2522
   80MOL   O53446512   0.900   1.925   0.192  0.3569  0.1339 -0.1923
   80MOL   C53546513   1.021   2.108   0.301 -0.4716  0.1654  0.2827
   80MOL   O53646514   1.118   2.101   0.194 -0.3454 -0.2657 -0.0357
   80MOL   H53746515   7.659   2.006   7.631  1.5313 -0.8697  1.0030
   80MOL   H53846516   0.046   2.151   7.568  2.1704  0.8527 -1.8117
   80MOL   H53946517   0.167   1.924   0.023 -2.5021  1.7730  4.4185
   80MOL   H54046518   0.133   2.184   0.099  3.1085 -0.4411 -0.1459
   80MOL   H54146519   0.315   2.029   7.521 -0.0262  1.5826 -1.5725
   80MOL   H54246520   0.292   2.184   7.605  0.3659 -0.2478  0.8026
   80MOL   H54346521   0.546   2.113   7.591  1.2844 -2.0495 -1.7200
   80MOL   H54446522   0.558   1.954   7.626  0.3169  0.6763 -1.2757
   80MOL   H54546523   0.612   2.018   0.180  0.8562 -1.5538 -1.5669
   80MOL   H54646524   0.582   2.181   0.137  1.7045  0.4527 -0.6137
   80MOL   H54746525   0.803   2.027   7.684 -3.1578 -1.1191 -1.2090
   80MOL   H54846526   0.761   2.194   7.666  0.2467 -0.4312 -0.3878
   80MOL   H54946527   0.812   2.057   0.322 -1.0970  0.8935 -1.2102
   80MOL   H55046528   0.990   1.915   0.167  0.2183 -0.5221 -0.4226
   80MOL   H55146529   0.997   2.211   0.328 -1.8651 -0.1546  0.3084
   80MOL   H55246530   1.049   2.044   0.385 -0.5831 -1.8262 -1.1677
   80MOL   C55346531   1.236   2.177   0.211 -0.0669 -0.4048 -0.3619
   80MOL   C55446532   1.313   2.116   0.327  0.1608 -0.3355 -0.0827
   80MOL   O55546533   1.302   2.175   0.452  0.5416  0.2703  0.2139
   80MOL   C55646534   1.458   2.118   0.291 -0.3163 -0.6307  0.1005
   80MOL   O55746535   1.499   2.253   0.298 -0.1648  1.0705  0.1785
   80MOL   C55846536   1.637   2.258   0.291  0.4508 -0.2550  0.2541
   80MOL   C55946537   1.675   2.402   0.279  0.4045  0.8477 -0.4823
   80MOL   C56046538   1.834   2.440   0.272 -0.2943  0.1002 -0.0780
   80MOL   O56146539   1.889   2.360   0.168  0.3718 -0.0359  0.0659
   80MOL   C56246540   2.023   2.378   0.140  0.5924 -0.2406 -0.8015
   80MOL   O56346541   2.105   2.300   0.216 -0.2858  0.1434  0.7767
   80MOL   C56446542   2.034   2.344   7.682  0.1035  0.4933  0.1070
   80MOL   O56546543   2.011   2.205   7.653  1.0117  0.8035  0.0730
   80MOL   H56646544   1.219   2.284   0.229  0.9531 -0.1494 -0.8789
   80MOL   H56746545   1.300   2.169   0.124 -1.3121 -1.0525 -1.2269
   80MOL   H56846546   1.280   2.013   0.341  0.5217 -0.4967 -0.3928
   80MOL   H56946547   1.316   2.268   0.449 -1.9368  0.7866  2.8019
   80MOL   H57046548   1.510   2.046   0.354  1.0680 -1.4339 -1.8833
   80MOL   H57146549   1.473   2.077   0.191  0.1328 -1.1325  0.3712
   80MOL   H57246550   1.670   2.227   0.390 -1.7611 -0.7438  0.8634
   80MOL   H57346551   1.677   2.204   0.205 -0.4722 -0.3922 -0.0951
   80MOL   H57446552   1.630   2.469   0.352 -0.3026  0.6298 -0.7184
   80MOL   H57546553   1.636   2.430   0.181 -0.4789  0.2539 -0.2969
   80MOL   H57646554   1.854   2.544   0.247 -0.0262  0.6078  2.1737
   80MOL   H57746555   1.877   2.416   0.369  0.6626  0.3528 -0.4347
   80MOL   H57846556   2.057   2.481   0.148 -1.9239  0.5623 -0.1576
   80MOL   H57946557   2.080   2.216   0.182 -1.2941 -0.0819  2.0273
   80MOL   H58046558   1.952   2.399   7.636 -1.2081 -2.8893 -1.8168
   80MOL   H58146559   2.127   2.368   7.630  1.4908  1.8593  3.0684
   80MOL   H58246560   1.924   2.183   7.682  0.1102  0.7155 -2.5235
   81MOL     C146561   0.116   2.211   3.793  0.1373  0.3477 -0.5646
   81MOL     C246562   0.219   2.104   3.808 -0.3673 -0.2269 -0.1284
   81MOL     O346563   0.246   2.084   3.944 -0.5038 -0.2458 -0.9071
   81MOL     C446564   0.171   1.973   3.743 -0.4516 -0.1169 -0.1410
   81MOL     O546565   0.286   1.887   3.737 -0.1054  0.2465 -0.1504
   81MOL     C646566   0.269   1.765   3.665  0.3625 -0.9449 -0.2329
   81MOL     C746567   0.404   1.691   3.664 -0.1399  0.0885 -0.1976
   81MOL     C846568   0.407   1.570   3.571 -0.4042  0.2446 -0.2855
   81MOL     O946569   0.519   1.498   3.614 -0.1633 -0.0211 -0.2459
   81MOL    C1046570   0.565   1.388   3.545  0.5727 -0.2622 -0.1864
   81MOL    O1146571   0.469   1.279   3.548 -0.5711  0.6499  0.2609
   81MOL    C1246572   0.696   1.340   3.612 -0.0101  0.5676  0.0948
   81MOL    O1346573   0.788   1.283   3.518  0.4587  0.1011 -0.2221
   81MOL    H1446574   0.172   2.302   3.815  1.3752 -0.4529 -0.3727
   81MOL    H1546575   0.045   2.197   3.874  1.3466  2.6767  0.9330
   81MOL    H1646576   0.315   2.133   3.765  0.5038 -0.8596  1.3556
   81MOL    H1746577   0.305   2.011   3.956  1.2114  1.3029  0.4808
   81MOL    H1846578   0.081   1.929   3.787  0.1123 -2.2526 -1.0579
   81MOL    H1946579   0.141   1.993   3.640  0.3585  2.1796  0.0431
   81MOL    H2046580   0.228   1.780   3.565 -1.5635 -0.9240  0.5359
   81MOL    H2146581   0.205   1.702   3.728  0.1650  0.1353  0.6648
   81MOL    H2246582   0.421   1.662   3.768 -1.9447  1.7390  0.5991
   81MOL    H2346583   0.485   1.760   3.640  2.2913 -2.7194 -0.3040
   81MOL    H2446584   0.316   1.511   3.583  0.4361 -0.6610  1.8422
   81MOL    H2546585   0.413   1.608   3.469 -0.8916 -2.2248 -1.2712
   81MOL    H2646586   0.594   1.414   3.443 -1.3094  0.7218 -0.4962
   81MOL    H2746587   0.413   1.286   3.473  0.3752  0.8742 -0.4391
   81MOL    H2846588   0.728   1.425   3.672 -2.2319  3.2809 -2.4039
   81MOL    H2946589   0.673   1.261   3.683 -0.8963  0.4664 -0.2961
   81MOL    H3046590   0.066   2.228   3.697  1.1657  1.0230 -0.9958
   81MOL    C3146591   0.922   1.297   3.569 -0.3206 -0.0590 -0.2039
   81MOL    C3246592   1.027   1.196   3.499  0.4377  0.3476 -1.0579
   81MOL    O3346593   1.144   1.190   3.582 -0.1005  0.1924  0.4613
   81MOL    C3446594   1.079   1.230   3.357  0.5541  0.3663 -0.0063
   81MOL    O3546595   1.137   1.358   3.376 -0.1659  0.1840 -0.4162
   81MOL    C3646596   1.114   1.442   3.266 -0.1382 -0.6147  0.0683
   81MOL    C3746597   1.197   1.571   3.280 -0.1923 -0.0302 -0.5944
   81MOL    C3846598   1.168   1.664   3.159  0.2716  0.0221 -0.5205
   81MOL    O3946599   1.166   1.600   3.034  0.3670  0.0914  0.3536
   81MOL    C4046600   1.254   1.655   2.933  0.0001  0.0640 -0.5241
   81MOL    O4146601   1.219   1.775   2.870 -0.0319  0.7122  0.1157
   81MOL    C4246602   1.263   1.553   2.820 -0.5398  0.1018 -0.6082
   81MOL    O4346603   1.136   1.534   2.763 -0.0393 -0.2811 -0.2185
   81MOL    H4446604   0.961   1.396   3.547  0.4016 -0.3494 -0.2295
   81MOL    H4546605   0.929   1.292   3.678 -1.6247 -1.0280 -0.1545
   81MOL    H4646606   0.976   1.099   3.501  1.5038 -0.2389  4.5561
   81MOL    H4746607   1.193   1.269   3.562 -1.6325  0.5397 -2.1704
   81MOL    H4846608   1.150   1.156   3.322  0.0658 -0.9807  1.7677
   81MOL    H4946609   0.988   1.230   3.297  0.8279 -0.3203 -0.4213
   81MOL    H5046610   1.006   1.461   3.266  0.0162  0.4017  1.5276
   81MOL    H5146611   1.130   1.391   3.171  1.6132 -0.3614  0.2096
   81MOL    H5246612   1.302   1.541   3.275 -0.8433 -2.1769 -1.7548
   81MOL    H5346613   1.190   1.613   3.381  0.3622  0.9681 -0.9579
   81MOL    H5446614   1.063   1.693   3.166 -0.0954 -0.9331 -1.8264
   81MOL    H5546615   1.233   1.751   3.166  1.3512 -0.4328 -3.7990
   81MOL    H5646616   1.348   1.670   2.987 -0.3500 -0.1744  0.1649
   81MOL    H5746617   1.145   1.753   2.815 -1.5110  0.1670  2.2745
   81MOL    H5846618   1.335   1.585   2.745 -0.3040 -1.6075 -1.1426
   81MOL    H5946619   1.299   1.461   2.866 -3.2557 -0.2502  0.9376
   81MOL    C6046620   1.144   1.505   2.626  0.2386 -0.3292  0.4256
   81MOL    C6146621   1.007   1.461   2.569  0.1679 -0.2471 -0.5759
   81MOL    O6246622   0.986   1.319   2.571 -0.1674 -0.2142 -0.1970
   81MOL    C6346623   0.995   1.503   2.421 -0.3393 -0.2150 -0.1241
   81MOL    O6446624   0.866   1.521   2.384 -0.1624 -0.1986  0.5371
   81MOL    C6546625   0.845   1.547   2.246 -0.0437 -0.2629  0.5098
   81MOL    C6646626   0.708   1.494   2.210  0.4166  0.2788 -0.6970
   81MOL    C6746627   0.664   1.508   2.068 -0.0684  0.0647 -0.5037
   81MOL    O6846628   0.595   1.631   2.053 -0.4304 -0.4855 -0.5585
   81MOL    C6946629   0.563   1.651   1.924  0.7068 -0.4931 -0.1296
   81MOL    O7046630   0.444   1.592   1.887 -0.0508 -0.1308  0.6091
   81MOL    C7146631   0.561   1.803   1.898  0.1698 -0.3459 -1.0191
   81MOL    O7246632   0.628   1.834   1.778 -0.7134  0.1231 -0.0793
   81MOL    H7346633   1.221   1.434   2.595  1.6462  0.0396  3.0304
   81MOL    H7446634   1.182   1.591   2.572 -0.1658  0.9584  2.1779
   81MOL    H7546635   0.927   1.512   2.624 -0.5772 -0.1326 -1.7492
   81MOL    H7646636   0.972   1.290   2.660 -0.7791 -1.4405 -0.6951
   81MOL    H7746637   1.038   1.601   2.400 -0.5929  0.0352  0.5015
   81MOL    H7846638   1.054   1.432   2.363  0.3987  1.6474 -1.6879
   81MOL    H7946639   0.910   1.477   2.193  0.6959  1.8973 -1.4983
   81MOL    H8046640   0.852   1.649   2.210  1.1186 -0.8752 -1.0279
   81MOL    H8146641   0.633   1.531   2.279  1.0192 -3.2728  2.0372
   81MOL    H8246642   0.713   1.387   2.232 -1.3756 -0.0186 -1.6386
   81MOL    H8346643   0.595   1.428   2.043 -2.4426  1.3058  1.8907
   81MOL    H8446644   0.744   1.486   1.997 -0.4302 -3.3520  0.0649
   81MOL    H8546645   0.641   1.613   1.857  1.0228 -2.1754  1.1469
   81MOL    H8646646   0.380   1.599   1.956 -1.5105 -0.0455 -0.7262
   81MOL    H8746647   0.459   1.840   1.900 -0.0812 -1.0877  0.0807
   81MOL    H8846648   0.619   1.851   1.977 -1.5582  2.6411 -1.4742
   81MOL    C8946649   0.684   1.962   1.764 -0.0860 -0.8965 -0.1824
   81MOL    C9046650   0.570   2.060   1.721  0.4480 -0.8019  0.2478
   81MOL    O9146651   0.629   2.192   1.722 -0.2915 -0.0861 -0.1249
   81MOL    C9246652   0.514   2.015   1.583  0.4486 -0.1617 -0.0470
   81MOL    O9346653   0.394   2.098   1.558  0.6332 -0.5519  0.4987
   81MOL    C9446654   0.343   2.090   1.426 -0.5242 -0.2196  0.0144
   81MOL    C9546655   0.195   2.126   1.413  0.7706 -0.1292 -0.1440
   81MOL    C9646656   0.131   2.113   1.275 -0.0172 -0.3243 -0.4560
   81MOL    O9746657   7.682   2.130   1.295  0.3680  0.5638  0.0984
   81MOL    C9846658   7.621   2.128   1.167 -0.0935  0.2235 -0.3766
   81MOL    O9946659   7.628   1.998   1.105 -0.2369 -0.0297  0.3983
   81MOL   C10046660   7.472   2.154   1.189 -0.0799  0.1035  0.8064
   81MOL   O10146661   7.405   2.188   1.065 -0.0207 -0.2947 -0.4927
   81MOL   H10246662   0.747   1.968   1.675 -0.7406  0.6992 -0.5531
   81MOL   H10346663   0.740   1.990   1.853  0.5753 -1.3666 -0.4387
   81MOL   H10446664   0.492   2.057   1.797 -0.7069  1.6934 -0.7768
   81MOL   H10546665   0.558   2.253   1.734  0.4620  1.0378 -1.1557
   81MOL   H10646666   0.597   2.032   1.514 -0.1481 -0.4639 -0.8502
   81MOL   H10746667   0.491   1.908   1.580 -0.4242  0.0195  0.2440
   81MOL   H10846668   0.343   1.987   1.391  0.4930  0.5773 -2.4555
   81MOL   H10946669   0.404   2.157   1.365 -1.1898  0.8669  0.5280
   81MOL   H11046670   0.185   2.229   1.447 -0.2678  0.0072 -0.8201
   81MOL   H11146671   0.133   2.065   1.478 -0.5620  0.2672 -1.0229
   81MOL   H11246672   0.169   2.196   1.216 -0.3809  1.5546  1.8280
   81MOL   H11346673   0.152   2.014   1.235 -1.1268 -0.5550 -0.5042
   81MOL   H11446674   7.654   2.201   1.093  0.3255 -0.4184 -0.8366
   81MOL   H11546675   7.563   1.982   1.038 -0.3196 -0.4212  0.5729
   81MOL   H11646676   7.426   2.062   1.226 -0.7902  0.4797  0.8709
   81MOL   H11746677   7.453   2.228   1.267 -0.1560 -0.4128  1.2865
   81MOL   C11846678   7.257   2.193   1.086 -0.3469  0.2880  0.4149
   81MOL   C11946679   7.193   2.244   0.958  0.2008 -1.1736  0.7293
   81MOL   O12046680   7.229   2.377   0.949 -0.3085 -0.1878 -0.6473
   81MOL   C12146681   7.042   2.236   0.980  0.1408 -0.5841  0.4054
   81MOL   O12246682   6.984   2.246   0.855 -0.2886  0.1087  0.4032
   81MOL   C12346683   6.845   2.236   0.857  0.2016  0.2702 -0.1371
   81MOL   C12446684   6.805   2.251   0.709  0.5895  0.5555  0.5272
   81MOL   C12546685   6.853   2.128   0.622  0.7070 -0.3788 -0.6346
   81MOL   O12646686   6.769   2.011   0.636  0.4608  0.0112 -0.2037
   81MOL   C12746687   6.800   1.911   0.541  0.3940  0.0314  0.1348
   81MOL   O12846688   6.694   1.819   0.541  0.6294 -0.1985 -0.1253
   81MOL   C12946689   6.933   1.840   0.571  0.1910  0.0882 -0.1945
   81MOL   O13046690   7.026   1.918   0.506 -0.7842 -0.3350  0.3323
   81MOL   H13146691   7.228   2.090   1.104 -1.3031  0.6771  1.2128
   81MOL   H13246692   7.228   2.262   1.165 -2.5805 -0.8012  0.6071
   81MOL   H13346693   7.224   2.185   0.872 -1.2811 -1.8629  0.6559
   81MOL   H13446694   7.317   2.375   0.916  0.1876 -0.4874  0.6604
   81MOL   H13546695   7.006   2.141   1.020  1.4430 -1.8723 -1.4193
   81MOL   H13646696   7.016   2.317   1.049  0.5198 -1.8532  2.0695
   81MOL   H13746697   6.794   2.317   0.909 -4.0426 -0.3500 -2.9875
   81MOL   H13846698   6.810   2.139   0.893  1.0021  0.6936  1.8358
   81MOL   H13946699   6.859   2.337   0.670  1.5650 -0.8195 -1.2097
   81MOL   H14046700   6.698   2.268   0.696  0.5579 -0.9873 -1.3877
   81MOL   H14146701   6.853   2.169   0.521 -3.6854 -1.7515 -1.2714
   81MOL   H14246702   6.953   2.109   0.662  0.3109 -1.6929 -0.2267
   81MOL   H14346703   6.807   1.959   0.443  0.1914  0.9178  0.5477
   81MOL   H14446704   6.710   1.758   0.611  0.3457  0.0747  0.1830
   81MOL   H14546705   6.943   1.812   0.676 -0.8469  1.1572  0.2031
   81MOL   H14646706   6.931   1.749   0.511 -1.9507 -0.4942  0.7346
   81MOL   C14746707   7.157   1.865   0.530 -0.2586  0.1478  0.8202
   81MOL   C14846708   7.247   1.926   0.430 -0.5302  0.0523 -0.4609
   81MOL   O14946709   7.377   1.870   0.446 -0.1952 -0.3541 -0.4981
   81MOL   C15046710   7.272   2.069   0.457  0.4432  0.3066 -0.3218
   81MOL   O15146711   7.356   2.127   0.360  0.3706 -0.0635  0.5131
   81MOL   C15246712   7.414   2.256   0.391  0.3696  0.6598 -0.8020
   81MOL   C15346713   7.301   2.358   0.389  0.1886  0.1693 -0.0725
   81MOL   C15446714   7.338   2.487   0.322 -0.0277  1.3266 -0.0834
   81MOL   O15546715   7.370   2.464   0.191  0.0622  0.2907 -0.1685
   81MOL   C15646716   7.367   2.581   0.115 -0.2071  0.4889  0.2521
   81MOL   O15746717   7.237   2.595   0.058 -0.3647 -0.1276  0.0231
   81MOL   C15846718   7.475   2.560   0.006  0.5299  0.4652 -0.2118
   81MOL   O15946719   7.587   2.532   0.071  0.1318 -0.0803 -0.0494
   81MOL   H16046720   7.161   1.756   0.525  1.5003  0.2747 -1.5378
   81MOL   H16146721   7.194   1.902   0.626  2.5365  0.8499 -0.4791
   81MOL   H16246722   7.206   1.910   0.331  0.6383  1.1545 -1.1351
   81MOL   H16346723   7.434   1.927   0.396  1.0019 -0.8660  0.2588
   81MOL   H16446724   7.173   2.115   0.451  0.9009  1.4275  0.6057
   81MOL   H16546725   7.319   2.072   0.555 -0.2332  2.6506 -0.0362
   81MOL   H16646726   7.496   2.277   0.323  2.6981  0.3636  1.8093
   81MOL   H16746727   7.472   2.251   0.483 -1.6570 -0.7872  0.4496
   81MOL   H16846728   7.279   2.374   0.495 -1.6940  2.7733 -0.8064
   81MOL   H16946729   7.212   2.319   0.340  0.1234  0.8205 -0.4781
   81MOL   H17046730   7.249   2.550   0.334 -1.1605  0.2851 -2.5730
   81MOL   H17146731   7.427   2.536   0.362  0.8049 -1.0880  1.1093
   81MOL   H17246732   7.388   2.672   0.170 -0.6350  1.1268 -0.6168
   81MOL   H17346733   7.229   2.527   7.687  0.6112 -1.0020  0.7986
   81MOL   H17446734   7.437   2.477   7.641 -0.4183  0.5644  0.2528
   81MOL   H17546735   7.475   2.647   7.635 -3.1795  0.8609  0.1769
   81MOL   C17646736   7.683   2.498   7.669 -0.0264 -0.2622 -0.3753
   81MOL   C17746737   0.125   2.473   0.039 -0.3566 -0.7198  0.2795
   81MOL   O17846738   0.099   2.364   0.126  0.7421  0.2206  0.3208
   81MOL   C17946739   0.164   2.597   0.120 -0.4912  0.3247 -0.4917
   81MOL   O18046740   0.297   2.564   0.161 -0.0472  0.1761 -0.2694
   81MOL   C18146741   0.363   2.671   0.234 -0.0639  0.3313 -0.1274
   81MOL   C18246742   0.483   2.614   0.312 -0.0498 -0.2494  0.0387
   81MOL   C18346743   0.592   2.717   0.353 -0.1746  0.5561 -0.9066
   81MOL   O18446744   0.662   2.764   0.240  0.0051 -0.4455  0.1440
   81MOL   C18546745   0.740   2.878   0.259  1.0958 -0.3690  0.0551
   81MOL   O18646746   0.660   2.991   0.249 -0.8483 -0.0599 -0.2875
   81MOL   C18746747   0.845   2.880   0.151 -0.5010 -0.5138  0.5891
   81MOL   O18846748   0.978   2.904   0.197  0.2615 -0.0732 -0.5376
   81MOL   H18946749   0.007   2.583   7.604  0.2096  0.2136  0.3025
   81MOL   H19046750   7.647   2.412   7.612  0.1191  0.1911 -1.1503
   81MOL   H19146751   0.201   2.427   7.671 -2.9426 -2.1005 -1.9391
   81MOL   H19246752   0.147   2.382   0.205  0.0983  0.0972  0.7461
   81MOL   H19346753   0.165   2.688   0.059 -0.7246  0.1514 -0.7560
   81MOL   H19446754   0.092   2.628   0.196 -1.9253 -0.2824 -1.5730
   81MOL   H19546755   0.305   2.716   0.315 -0.8390 -1.0234  0.0752
   81MOL   H19646756   0.400   2.742   0.159 -1.2530 -0.5810 -1.6018
   81MOL   H19746757   0.533   2.547   0.243 -0.8349 -0.0114 -0.7671
   81MOL   H19846758   0.452   2.555   0.399  0.3236 -1.7367 -0.8240
   81MOL   H19946759   0.538   2.798   0.403 -2.5930 -0.4724 -1.7663
   81MOL   H20046760   0.654   2.678   0.433 -0.3933  1.9065 -0.0429
   81MOL   H20146761   0.787   2.878   0.358 -1.0848 -0.6893  1.1281
   81MOL   H20246762   0.698   3.043   0.181 -1.2996 -0.5508 -0.9171
   81MOL   H20346763   0.844   2.783   0.100 -0.2541 -0.6535  0.8465
   81MOL   H20446764   0.810   2.941   0.068 -0.1125 -2.2575 -0.8931
   81MOL   C20546765   1.001   3.041   0.202 -0.4552 -0.0069  0.3939
   81MOL   C20646766   1.146   3.071   0.258 -0.2746  0.0988  0.1058
   81MOL   O20746767   1.247   3.086   0.161  0.2979 -0.6294  0.1957
   81MOL   C20846768   1.133   3.190   0.339 -0.1362  0.3155  0.2534
   81MOL   O20946769   1.103   3.301   0.255 -0.6096  0.4295 -0.0338
   81MOL   C21046770   1.061   3.419   0.328  0.7499 -0.1528 -0.3680
   81MOL   C21146771   1.049   3.533   0.235 -0.6040  0.0876 -0.1782
   81MOL   C21246772   1.016   3.669   0.294 -0.1408 -0.7027  0.2153
   81MOL   O21346773   0.873   3.670   0.301 -0.3410  0.4946  0.5676
   81MOL   C21446774   0.821   3.795   0.282  0.1881  0.2016 -0.7077
   81MOL   O21546775   0.874   3.888   0.373 -0.2189  0.1055 -0.1011
   81MOL   C21646776   0.662   3.791   0.292  0.5470  0.9963  0.6903
   81MOL   O21746777   0.609   3.687   0.201 -0.1600  0.8638 -0.2806
   81MOL   H21846778   0.930   3.076   0.276  1.3052  1.3094  1.5034
   81MOL   H21946779   0.980   3.081   0.103 -0.0638 -1.1615 -0.1714
   81MOL   H22046780   1.166   2.990   0.328 -1.8841 -2.0799 -1.8731
   81MOL   H22146781   1.236   3.170   0.119  0.6319 -0.8738 -0.3832
   81MOL   H22246782   1.052   3.179   0.411 -1.0446 -0.4504 -0.8645
   81MOL   H22346783   1.222   3.210   0.398 -0.8292  2.5568  0.6108
   81MOL   H22446784   1.114   3.441   0.421 -0.3303  2.8407 -0.3995
   81MOL   H22546785   0.961   3.389   0.359  0.0256  1.2155 -1.3556
   81MOL   H22646786   0.980   3.513   0.153 -1.4502  1.3403  0.2042
   81MOL   H22746787   1.143   3.542   0.181  0.3586  2.4229  1.7901
   81MOL   H22846788   1.072   3.683   0.386 -2.2092 -0.8425  1.5275
   81MOL   H22946789   1.046   3.750   0.226  0.1568 -0.9214  0.0853
   81MOL   H23046790   0.850   3.837   0.186  4.5127 -0.6642  0.1337
   81MOL   H23146791   0.845   3.975   0.350 -3.9733 -1.2476 -0.7922
   81MOL   H23246792   0.634   3.775   0.396 -1.0869 -1.0050 -0.0168
   81MOL   H23346793   0.621   3.891   0.279 -1.7657 -0.1939 -1.7460
   81MOL   C23446794   0.604   3.727   0.067  0.0768 -0.8695 -0.3208
   81MOL   C23546795   0.483   3.821   0.029 -0.2081 -0.1764  0.8996
   81MOL   O23646796   0.355   3.765   0.051  0.0365  0.0880  0.4408
   81MOL   C23746797   0.485   3.866   7.575 -0.0577  0.3057 -0.2396
   81MOL   O23846798   0.526   3.755   7.492  0.0289 -0.3928 -0.0129
   81MOL   C23946799   0.583   3.793   7.365  0.1240  0.4563  0.1113
   81MOL   C24046800   0.606   3.669   7.283  0.5844 -0.0649  0.4074
   81MOL   C24146801   0.711   3.571   7.346  0.3161 -0.2816  0.0187
   81MOL   O24246802   0.772   3.486   7.248 -0.5651 -0.4695  0.0750
   81MOL   C24346803   0.887   3.424   7.285 -0.1213 -0.2396 -0.1642
   81MOL   O24446804   1.006   3.504   7.268  0.2020  0.5915 -0.6393
   81MOL   C24546805   0.903   3.301   7.198 -0.2730 -0.8383  0.2723
   81MOL   O24646806   0.949   3.345   7.065 -0.0760 -0.2121 -0.4036
   81MOL   H24746807   0.701   3.767   0.037  0.0868 -1.0969 -0.5843
   81MOL   H24846808   0.588   3.630   0.020  0.8829 -0.1537 -2.0942
   81MOL   H24946809   0.488   3.914   0.086 -1.5523  0.6129 -0.2198
   81MOL   H25046810   0.347   3.739   0.142  0.3216 -2.2313 -0.1829
   81MOL   H25146811   0.392   3.910   7.541 -0.4461 -0.1058  0.2842
   81MOL   H25246812   0.550   3.952   7.560 -1.0357  0.7860 -1.8148
   81MOL   H25346813   0.677   3.848   7.370 -0.4831  1.4958  0.2589
   81MOL   H25446814   0.513   3.852   7.305  0.4267 -1.5667 -2.3315
   81MOL   H25546815   0.630   3.703   7.182 -0.2418 -3.2867 -0.9366
   81MOL   H25646816   0.509   3.620   7.275  1.1268 -1.2007  0.6877
   81MOL   H25746817   0.794   3.627   7.389  1.9461 -2.6025 -0.0562
   81MOL   H25846818   0.666   3.519   7.430  1.8243 -0.2986  0.8335
   81MOL   H25946819   0.889   3.390   7.389 -2.6300  0.1876  0.0427
   81MOL   H26046820   1.032   3.497   7.178  0.3112  0.1368 -0.5734
   81MOL   H26146821   0.983   3.245   7.246 -0.1253  0.1953  1.2528
   81MOL   H26246822   0.810   3.246   7.183 -0.4128 -0.5878  0.2177
   81MOL   C26346823   0.979   3.242   6.970  0.3830  0.1642  0.1215
   81MOL   C26446824   0.961   3.298   6.831 -0.8470 -0.1712 -0.5065
   81MOL   O26546825   1.056   3.397   6.811 -0.7178 -0.1775  0.1762
   81MOL   C26646826   0.975   3.200   6.719 -0.0166 -0.0895 -0.8475
   81MOL   O26746827   0.895   3.089   6.749 -0.3426 -0.1152 -0.1564
   81MOL   C26846828   0.759   3.102   6.718 -0.4655 -0.3016 -0.2590
   81MOL   C26946829   0.680   2.985   6.791  0.3258 -0.6643 -0.1098
   81MOL   C27046830   0.524   2.982   6.762  0.0552  0.0209 -1.0442
   81MOL   O27146831   0.465   2.869   6.836 -0.4881  0.0414  0.3126
   81MOL   C27246832   0.325   2.870   6.842 -0.6681  0.0889 -0.4712
   81MOL   O27346833   0.271   2.835   6.721  0.5727 -0.4464  0.5569
   81MOL   C27446834   0.273   2.786   6.958 -0.3060 -0.2561 -0.2698
   81MOL   O27546835   0.304   2.829   7.087  0.6326  0.2512 -0.1386
   81MOL   H27646836   0.923   3.150   6.985 -0.2825  0.4960 -0.3354
   81MOL   H27746837   1.080   3.201   6.976  0.8469  0.8325 -2.4218
   81MOL   H27846838   0.867   3.352   6.819 -0.6335  0.4627  0.6123
   81MOL   H27946839   1.072   3.439   6.894  0.6682  2.1287 -1.2040
   81MOL   H28046840   0.945   3.257   6.631 -2.1019  2.4274  1.3802
   81MOL   H28146841   1.078   3.167   6.712  0.5889  1.6033 -0.2063
   81MOL   H28246842   0.750   3.096   6.609 -0.4787  1.5341 -0.3754
   81MOL   H28346843   0.714   3.195   6.754 -0.2564 -0.5806  0.7346
   81MOL   H28446844   0.698   2.986   6.899  0.9704  0.5825 -0.2233
   81MOL   H28546845   0.722   2.889   6.761 -3.5562 -2.2804 -0.7307
   81MOL   H28646846   0.476   3.073   6.799  2.0110 -0.3665  2.6242
   81MOL   H28746847   0.508   2.972   6.655 -1.7552  1.4523 -0.9393
   81MOL   H28846848   0.285   2.969   6.863 -1.8055 -0.3246 -0.6457
   81MOL   H28946849   0.311   2.752   6.699  0.6707 -0.2191 -0.1388
   81MOL   H29046850   0.164   2.788   6.957 -0.3103  1.0216  1.3027
   81MOL   H29146851   0.307   2.685   6.934  1.4388  0.4779 -0.9937
   81MOL   C29246852   0.284   2.726   7.180  0.0889 -0.3072 -0.1953
   81MOL   C29346853   0.275   2.780   7.319 -0.0398  0.0345  0.3936
   81MOL   O29446854   0.169   2.868   7.309  0.0722  0.2625 -0.3885
   81MOL   C29546855   0.246   2.675   7.425 -0.4536 -0.7785 -0.4006
   81MOL   O29646856   0.345   2.569   7.439 -0.0887  0.5139 -0.0895
   81MOL   C29746857   0.434   2.591   7.544  0.2165 -0.0007 -0.5009
   81MOL   C29846858   0.561   2.499   7.545 -0.6250 -0.0468 -0.1560
   81MOL   C29946859   0.672   2.558   7.627 -0.3066 -0.6370 -0.5287
   81MOL   O30046860   0.782   2.468   7.615  0.7757  0.4459  0.2121
   81MOL   C30146861   0.880   2.476   0.020 -0.0216  0.3576 -0.3705
   81MOL   O30246862   0.826   2.429   0.139 -0.2962 -0.1230 -0.1428
   81MOL   C30346863   1.015   2.388   7.689  0.0345 -1.2684  0.0168
   81MOL   O30446864   1.069   2.421   7.559  0.4575 -0.1265  0.0207
   81MOL   H30546865   0.193   2.668   7.167 -0.0774  0.1175 -0.9564
   81MOL   H30646866   0.376   2.670   7.162 -0.0636 -0.0837 -1.6837
   81MOL   H30746867   0.370   2.829   7.342 -0.2596  0.5839  0.1608
   81MOL   H30846868   0.164   2.924   7.233 -0.5932  0.7801  0.0251
   81MOL   H30946869   0.222   2.718   7.522  2.9846 -2.5203  1.2919
   81MOL   H31046870   0.156   2.621   7.395  0.2163 -1.6221 -0.9242
   81MOL   H31146871   0.378   2.574   7.636  2.6423  0.4562  1.1377
   81MOL   H31246872   0.463   2.696   7.546 -0.7600  0.2773 -0.5288
   81MOL   H31346873   0.602   2.475   7.446 -0.9532  1.5145 -0.6736
   81MOL   H31446874   0.539   2.404   7.594 -1.0671  0.3236  0.3603
   81MOL   H31546875   0.687   2.658   7.586  0.0189  0.4407  2.1200
   81MOL   H31646876   0.639   2.564   0.037 -1.3815  1.9910 -0.9765
   81MOL   H31746877   0.904   2.582   0.032  2.8412 -0.1509 -1.1886
   81MOL   H31846878   0.855   2.340   0.153  1.8768  0.6338  0.3827
   81MOL   H31946879   0.985   2.284   7.678 -0.2037 -1.2860  0.8337
   81MOL   H32046880   1.085   2.387   0.078 -1.6479  1.8601  1.5597
   81MOL   C32146881   0.983   2.383   7.450 -0.6517  0.1165  0.2392
   81MOL   C32246882   1.052   2.328   7.327  0.3073 -0.1683 -0.2576
   81MOL   O32346883   1.129   2.436   7.275 -0.8422  0.6274 -0.3399
   81MOL   C32446884   1.139   2.205   7.364  0.3434  0.2577 -0.5536
   81MOL   O32546885   1.168   2.106   7.265  0.6797 -0.3770 -0.3090
   81MOL   C32646886   1.258   2.152   7.169  0.2884  0.0306  0.2133
   81MOL   C32746887   1.183   2.170   7.038  0.6318  0.8089  0.3215
   81MOL   C32846888   1.281   2.213   6.919 -0.1013  0.1045 -0.6357
   81MOL   O32946889   1.210   2.223   6.796 -0.3612 -0.7472 -0.0371
   81MOL   C33046890   1.150   2.351   6.787 -0.3849  0.2008 -0.6505
   81MOL   O33146891   1.241   2.452   6.768  0.2363 -0.5988 -0.0767
   81MOL   C33246892   1.045   2.337   6.684 -0.1412  0.6047  0.0336
   81MOL   O33346893   0.913   2.297   6.731 -0.0527 -0.4067 -0.1049
   81MOL   H33446894   0.925   2.468   7.415 -1.0155  0.3425  1.3682
   81MOL   H33546895   0.909   2.307   7.476 -2.9159  2.1005 -0.2158
   81MOL   H33646896   0.974   2.301   7.255  0.0913 -0.9816  0.2765
   81MOL   H33746897   1.182   2.465   7.348 -1.5363  1.4701 -0.1652
   81MOL   H33846898   1.090   2.151   7.444  1.7188  0.0336  0.1480
   81MOL   H33946899   1.230   2.245   7.408  0.6661  1.1044 -1.9309
   81MOL   H34046900   1.348   2.091   7.160 -0.4200 -0.9422 -0.3185
   81MOL   H34146901   1.305   2.245   7.203  1.0024 -0.2059 -0.1389
   81MOL   H34246902   1.121   2.083   7.016  0.2478  0.9011  1.0421
   81MOL   H34346903   1.111   2.250   7.057 -0.0003  0.1326  0.7808
   81MOL   H34446904   1.350   2.290   6.952 -0.7374 -0.3467  1.8697
   81MOL   H34546905   1.343   2.127   6.894 -1.1647  0.1142 -3.4326
   81MOL   H34646906   1.096   2.372   6.879  0.9985  0.8172  0.0395
   81MOL   H34746907   1.200   2.534   6.792 -1.1997 -0.7189 -2.0112
   81MOL   H34846908   1.044   2.437   6.641  0.9442  0.8765  0.6209
   81MOL   H34946909   1.073   2.268   6.604  3.1704 -0.0267  1.6842
   81MOL   C35046910   0.898   2.162   6.768  0.3870 -0.5165  0.2093
   81MOL   C35146911   0.763   2.168   6.857 -0.5756 -1.3556 -0.3500
   81MOL   O35246912   0.747   2.029   6.885  0.5549  0.6493  0.2684
   81MOL   C35346913   0.789   2.240   6.989  0.8784  0.0693 -0.7695
   81MOL   O35446914   0.662   2.299   7.025 -0.4039 -0.0084  0.1383
   81MOL   C35546915   0.667   2.382   7.135 -0.6179  0.3292  1.0988
   81MOL   C35646916   0.524   2.428   7.149  0.3113 -0.0433 -0.5278
   81MOL   C35746917   0.423   2.318   7.179 -0.2598 -0.2391 -0.0557
   81MOL   O35846918   0.284   2.364   7.169  0.1094  0.5155 -0.2205
   81MOL   C35946919   0.178   2.302   7.234  0.0057  0.9166 -0.5384
   81MOL   O36046920   0.189   2.317   7.375  0.3344 -0.5855  0.5431
   81MOL   C36146921   0.045   2.369   7.191 -0.2888  0.3230  0.0395
   81MOL   O36246922   0.052   2.439   7.072 -0.2698 -0.1131  0.1336
   81MOL   H36346923   0.983   2.111   6.813  0.6617  1.1736  1.6776
   81MOL   H36446924   0.867   2.106   6.680 -0.7546 -0.1177  0.3405
   81MOL   H36546925   0.687   2.215   6.795  1.1150 -0.0780 -1.5093
   81MOL   H36646926   0.823   1.992   6.929  1.5514  0.4907 -1.5054
   81MOL   H36746927   0.814   2.174   7.072  1.6811 -0.3466 -1.3411
   81MOL   H36846928   0.868   2.315   6.982 -0.7503  1.9465  0.1256
   81MOL   H36946929   0.732   2.467   7.115 -0.6611  0.0300 -0.3928
   81MOL   H37046930   0.707   2.322   7.216 -1.0379 -1.7954 -0.2138
   81MOL   H37146931   0.504   2.483   7.057 -0.6864 -0.2653 -0.4476
   81MOL   H37246932   0.522   2.496   7.235 -0.9059 -0.3334 -0.3188
   81MOL   H37346933   0.423   2.233   7.110 -0.2359 -1.5188  1.4850
   81MOL   H37446934   0.450   2.271   7.274 -0.5130  0.9328  0.6058
   81MOL   H37546935   0.179   2.194   7.217 -2.8523  0.5291  1.2590
   81MOL   H37646936   0.235   2.399   7.387 -0.0715 -0.6920  3.1763
   81MOL   H37746937   7.658   2.296   7.201  1.4676 -1.7794 -0.6537
   81MOL   H37846938   0.034   2.450   7.263 -2.1948 -0.0346  0.1887
   81MOL   C37946939   0.013   2.374   6.954  0.3658  0.0182 -0.3675
   81MOL   C38046940   0.090   2.446   6.842 -0.5544 -0.0586 -0.3344
   81MOL   O38146941   0.224   2.400   6.848 -0.0249  0.4918 -0.0769
   81MOL   C38246942   0.023   2.403   6.711  0.1636 -0.5377 -0.3674
   81MOL   O38346943   0.092   2.473   6.610 -0.0127 -0.0838  0.8101
   81MOL   C38446944   0.025   2.476   6.485 -0.8158 -1.0490  0.0595
   81MOL   C38546945   0.064   2.608   6.422  0.0650  0.8022 -0.0518
   81MOL   C38646946   0.216   2.622   6.390  0.3287  0.3767  0.9903
   81MOL   O38746947   0.242   2.743   6.321  0.0430  0.3029  0.2584
   81MOL   C38846948   0.377   2.760   6.299  0.6835  0.0018  0.1654
   81MOL   O38946949   0.437   2.661   6.219  0.7733  0.5600 -0.3791
   81MOL   C39046950   0.404   2.901   6.231 -0.2818  0.3745  0.3728
   81MOL   O39146951   0.510   2.964   6.292 -0.5942 -0.4297 -0.1457
   81MOL   H39246952   7.602   2.391   6.934  0.1266 -0.1717  0.7505
   81MOL   H39346953   0.038   2.268   6.959 -0.5275 -0.3186 -2.4066
   81MOL   H39446954   0.087   2.555   6.848 -1.3750 -0.0790 -0.3243
   81MOL   H39546955   0.236   2.408   6.941  1.1084  1.0993 -0.2651
   81MOL   H39646956   0.022   2.295   6.693  0.5236 -0.4073 -1.1931
   81MOL   H39746957   7.616   2.443   6.706  0.1372 -0.6794 -1.0655
   81MOL   H39846958   7.611   2.468   6.490 -0.7196 -3.0672 -0.6420
   81MOL   H39946959   0.060   2.393   6.424  1.5397 -0.6904  0.8789
   81MOL   H40046960   0.038   2.685   6.494  0.2336  0.1773  0.6882
   81MOL   H40146961   0.016   2.630   6.326 -0.4298  1.5867  0.3701
   81MOL   H40246962   0.269   2.630   6.484  0.6357 -0.6300  0.9131
   81MOL   H40346963   0.261   2.536   6.339  0.4084  0.5788  0.7188
   81MOL   H40446964   0.426   2.759   6.397  0.6155  0.3361  0.2028
   81MOL   H40546965   0.411   2.682   6.130 -1.3005  0.6410  0.2224
   81MOL   H40646966   0.427   2.885   6.126  0.8598  1.3935  0.4680
   81MOL   H40746967   0.310   2.956   6.241  0.8260  2.0329  1.8901
   81MOL   C40846968   0.520   3.097   6.248  0.1319 -0.5495 -0.0434
   81MOL   C40946969   0.643   3.158   6.308  0.6850 -0.1699 -0.5448
   81MOL   O41046970   0.627   3.296   6.339  0.1639  0.5055 -0.6106
   81MOL   C41146971   0.773   3.151   6.228 -0.5114  0.3956  0.2290
   81MOL   O41246972   0.821   3.015   6.204 -0.2452 -0.1039 -0.3574
   81MOL   C41346973   0.758   2.937   6.102  0.3818 -0.0804  0.4708
   81MOL   C41446974   0.861   2.873   6.001 -0.6196  0.3946 -0.2049
   81MOL   C41546975   0.797   2.790   5.886  0.4932 -0.1309  0.2032
   81MOL   O41646976   0.726   2.672   5.936  0.8518  0.0812 -0.2552
   81MOL   C41746977   0.667   2.602   5.831  0.9530 -0.3593  0.6540
   81MOL   O41846978   0.564   2.676   5.774 -0.2055  0.0223  0.3145
   81MOL   C41946979   0.618   2.475   5.900 -0.0299 -1.0754  0.5881
   81MOL   O42046980   0.720   2.379   5.905 -0.3556 -0.1731  0.0427
   81MOL   H42146981   0.436   3.151   6.289 -0.4848  0.7523 -2.9132
   81MOL   H42246982   0.512   3.115   6.141 -2.7047  4.2039  0.8709
   81MOL   H42346983   0.650   3.098   6.399  1.6777  1.6689  0.6192
   81MOL   H42446984   0.611   3.339   6.256  1.3996  0.9423 -0.6395
   81MOL   H42546985   0.757   3.208   6.136 -0.0514 -0.2388 -0.2436
   81MOL   H42646986   0.852   3.203   6.281 -0.4441 -1.1858  1.7071
   81MOL   H42746987   0.703   2.851   6.142 -0.6739 -0.2919 -1.3854
   81MOL   H42846988   0.686   3.000   6.050  1.4042  2.1871  1.7548
   81MOL   H42946989   0.921   2.808   6.064  1.5624  1.5305 -1.0757
   81MOL   H43046990   0.946   2.935   5.972 -0.0538 -0.1297  0.3259
   81MOL   H43146991   0.724   2.858   5.843  1.7546  3.3157  3.2173
   81MOL   H43246992   0.869   2.750   5.814  0.8162  0.8651 -0.0317
   81MOL   H43346993   0.745   2.583   5.757  1.0880  0.6365  0.5287
   81MOL   H43446994   0.554   2.651   5.683  0.5126 -0.6328  0.4108
   81MOL   H43546995   0.573   2.497   5.997 -2.3117 -3.1482  0.0422
   81MOL   H43646996   0.531   2.441   5.844  0.7689  0.9870 -2.0470
   81MOL   C43746997   0.724   2.303   6.026 -0.1707  0.8927  0.0237
   81MOL   C43846998   0.813   2.386   6.127 -0.0689 -0.0741  0.4274
   81MOL   O43946999   0.951   2.350   6.099 -0.3909  0.2025 -0.3274
   81MOL   C44047000   0.790   2.347   6.274  0.1925  0.0322  0.0954
   81MOL   O44147001   0.765   2.210   6.274 -0.3586 -1.0406 -0.0114
   81MOL   C44247002   0.756   2.158   6.406 -0.1695  0.2836 -0.4629
   81MOL   C44347003   0.700   2.018   6.398  0.6961 -0.0462 -0.2033
   81MOL   C44447004   0.679   1.949   6.537 -0.0027 -0.0120  0.0903
   81MOL   O44547005   0.617   1.823   6.514 -0.1090 -0.5005  0.0304
   81MOL   C44647006   0.580   1.756   6.625  1.0004  0.8470  0.6414
   81MOL   O44747007   0.689   1.715   6.696  0.1517  0.1543  0.3896
   81MOL   C44847008   0.490   1.635   6.590 -0.7323 -0.8323 -0.2946
   81MOL   O44947009   0.525   1.583   6.462 -0.0159  0.1312  0.2936
   81MOL   H45047010   0.624   2.274   6.056 -0.1892  2.2237  1.2789
   81MOL   H45147011   0.775   2.209   6.007  1.0649  1.0526  2.4298
   81MOL   H45247012   0.792   2.493   6.115  0.0680 -0.2737 -1.7851
   81MOL   H45347013   0.956   2.356   6.005 -2.3113  1.0705 -0.3932
   81MOL   H45447014   0.868   2.386   6.340  1.3795 -0.2891 -1.1007
   81MOL   H45547015   0.704   2.398   6.318  1.7525  4.3107 -1.5814
   81MOL   H45647016   0.694   2.226   6.464 -0.1523 -1.8989  2.2436
   81MOL   H45747017   0.852   2.177   6.456 -0.1288 -0.9655 -0.0490
   81MOL   H45847018   0.764   1.956   6.336 -0.7831  0.4514 -2.3062
   81MOL   H45947019   0.600   2.020   6.354  1.5321  2.9474 -2.1139
   81MOL   H46047020   0.774   1.945   6.589  0.0644 -0.4250 -0.0657
   81MOL   H46147021   0.622   2.008   6.609  0.3412 -0.7482  0.9697
   81MOL   H46247022   0.521   1.816   6.695 -0.5447 -0.6215  0.6234
   81MOL   H46347023   0.728   1.657   6.632 -2.4006 -1.0367 -0.1425
   81MOL   H46447024   0.499   1.567   6.675  0.1661  1.2177  1.2956
   81MOL   H46547025   0.388   1.669   6.607  0.1531  0.1382  3.4376
   81MOL   C46647026   0.430   1.495   6.404  0.2543 -0.1763 -0.0906
   81MOL   C46747027   0.305   1.568   6.359 -0.1560 -0.2968 -0.5779
   81MOL   O46847028   0.260   1.530   6.231 -0.2560 -0.5502 -0.2095
   81MOL   C46947029   0.181   1.559   6.448 -0.5683  0.8958 -0.0402
   81MOL   O47047030   0.094   1.665   6.414 -0.5768  0.1041  0.0445
   81MOL   C47147031   7.649   1.629   6.399  0.1310  0.2433  0.1835
   81MOL   C47247032   7.607   1.572   6.261 -0.6503 -1.1213  0.2680
   81MOL   C47347033   7.624   1.672   6.140 -0.7728  0.6137 -0.1198
   81MOL   O47447034   0.071   1.708   6.147 -0.3293  0.1263  0.0896
   81MOL   C47547035   0.104   1.833   6.105  0.3272  0.2956  0.3392
   81MOL   O47647036   0.099   1.842   5.964  0.2645  0.6770 -0.0029
   81MOL   C47747037   0.240   1.886   6.149 -0.3379  0.1965 -0.1325
   81MOL   O47847038   0.326   1.783   6.101 -0.7745 -0.2430 -0.3391
   81MOL   H47947039   0.412   1.406   6.464 -0.8005 -0.8015 -1.3326
   81MOL   H48047040   0.490   1.457   6.321 -0.4723 -0.2320 -0.5910
   81MOL   H48147041   0.344   1.668   6.338 -0.6735  0.3531  1.4686
   81MOL   H48247042   0.188   1.586   6.207 -0.3462 -0.0920  1.0894
   81MOL   H48347043   0.134   1.461   6.438  1.2949 -0.0579  0.3759
   81MOL   H48447044   0.203   1.576   6.554 -2.7454  1.3890  0.3562
   81MOL   H48547045   7.599   1.726   6.397 -2.5694 -1.1012 -0.6986
   81MOL   H48647046   7.605   1.574   6.482 -0.3044  2.5356  1.4835
   81MOL   H48747047   7.501   1.549   6.264 -0.3932 -2.1986  1.7869
   81MOL   H48847048   7.663   1.482   6.233  3.3544  1.3292  0.0327
   81MOL   H48947049   7.599   1.630   6.043 -1.9866  5.2515 -1.9607
   81MOL   H49047050   7.556   1.756   6.157 -1.3539 -0.1389  1.3590
   81MOL   H49147051   0.026   1.904   6.131  0.3381  0.3219  0.3001
   81MOL   H49247052   0.151   1.767   5.938  0.2509  0.1974  1.2913
   81MOL   H49347053   0.269   1.985   6.113 -0.4130 -0.3375 -1.6754
   81MOL   H49447054   0.243   1.899   6.257 -0.4976  2.3394 -0.3456
   81MOL   C49547055   0.462   1.816   6.131  0.3965 -0.0487  0.6917
   81MOL   C49647056   0.548   1.710   6.063  0.2472  0.0676  0.0498
   81MOL   O49747057   0.496   1.723   5.932 -0.2691 -0.5565 -0.0759
   81MOL   C49847058   0.698   1.749   6.066  0.5064 -0.1228  0.1677
   81MOL   O49947059   0.775   1.640   6.022 -0.8098 -0.5579  0.0021
   81MOL   C50047060   0.817   1.651   5.884 -0.3518  0.1305  0.1565
   81MOL   C50147061   0.844   1.513   5.831 -0.2030 -0.3134 -0.0484
   81MOL   C50247062   0.908   1.518   5.693  0.7456 -0.2054 -0.0213
   81MOL   O50347063   0.936   1.389   5.642 -0.4206 -0.7403 -0.2826
   81MOL   C50447064   0.937   1.376   5.504  0.1389  0.3116 -0.4955
   81MOL   O50547065   0.810   1.375   5.444  0.1968 -0.3461 -0.1693
   81MOL   C50647066   1.023   1.257   5.470 -0.4204 -0.0189 -0.2284
   81MOL   O50747067   1.162   1.288   5.495 -0.5099  0.6381  0.3012
   81MOL   H50847068   0.488   1.824   6.237  0.3773 -1.7536  0.8471
   81MOL   H50947069   0.483   1.913   6.086 -0.5410  0.3407  1.0755
   81MOL   H51047070   0.538   1.605   6.091 -1.1528 -0.2175 -1.4386
   81MOL   H51147071   0.410   1.752   5.955 -0.3432 -0.1703 -0.8323
   81MOL   H51247072   0.723   1.840   6.012 -0.3344  0.7243  1.1721
   81MOL   H51347073   0.736   1.784   6.162 -1.3352 -1.6592  1.5268
   81MOL   H51447074   0.910   1.703   5.859 -1.7876  2.9924  0.6792
   81MOL   H51547075   0.732   1.692   5.830 -0.5445  0.8039  0.9741
   81MOL   H51647076   0.742   1.474   5.833 -1.3230  2.5588  0.9146
   81MOL   H51747077   0.904   1.465   5.909  2.0907  0.8153 -1.0759
   81MOL   H51847078   0.839   1.566   5.625 -1.0324 -1.6398  0.7360
   81MOL   H51947079   1.004   1.569   5.681 -1.4454  3.4361 -2.8224
   81MOL   H52047080   0.982   1.464   5.458  0.9341  0.5268  0.6539
   81MOL   H52147081   0.775   1.290   5.462 -0.2547 -0.2629 -0.6478
   81MOL   H52247082   0.997   1.172   5.533 -2.0969  1.2539  0.8677
   81MOL   H52347083   0.998   1.227   5.369 -1.2980 -1.6344  0.4537
   81MOL   C52447084   1.209   1.338   5.370 -0.5793 -0.3583  0.1062
   81MOL   C52547085   1.327   1.434   5.403  0.1199  0.0768 -0.1953
   81MOL   O52647086   1.423   1.362   5.482 -0.0814  0.1653  0.0724
   81MOL   C52747087   1.284   1.571   5.473  0.0207  0.8295 -0.5881
   81MOL   O52847088   1.193   1.649   5.395 -0.6514  0.3155  0.3274
   81MOL   C52947089   1.263   1.708   5.285  0.0317  0.3785 -0.0985
   81MOL   C53047090   1.149   1.770   5.203 -0.0732 -0.6285  0.1034
   81MOL   C53147091   1.202   1.839   5.074  0.3029  0.4499 -0.1329
   81MOL   O53247092   1.105   1.919   5.020  0.0762 -0.2438  0.3183
   81MOL   C53347093   1.103   2.055   5.061  0.4303 -0.0406 -0.5415
   81MOL   O53447094   1.222   2.121   5.017 -0.1968 -0.3666 -0.0055
   81MOL   C53547095   0.986   2.126   4.992  0.1626 -0.3693  0.3181
   81MOL   O53647096   0.861   2.109   5.061 -0.5842 -0.1668 -0.1627
   81MOL   H53747097   1.146   1.411   5.319  2.4864  1.3826 -1.3762
   81MOL   H53847098   1.235   1.262   5.297  0.1190 -1.0909  1.1012
   81MOL   H53947099   1.388   1.457   5.316 -0.4894 -1.2766 -0.9926
   81MOL   H54047100   1.370   1.327   5.552 -0.2611 -0.7968 -0.5373
   81MOL   H54147101   1.237   1.551   5.570 -1.1301 -0.7281 -1.4514
   81MOL   H54247102   1.373   1.625   5.504  1.2688 -0.4765 -1.7934
   81MOL   H54347103   1.327   1.643   5.226  2.9175  0.8951  2.3310
   81MOL   H54447104   1.332   1.783   5.324  0.8541  0.0515 -0.8994
   81MOL   H54547105   1.094   1.838   5.269  0.6092  1.0345 -1.0032
   81MOL   H54647106   1.076   1.695   5.172 -0.8061 -0.1834  0.7255
   81MOL   H54747107   1.288   1.898   5.108  0.7801 -1.9539  3.0569
   81MOL   H54847108   1.246   1.770   5.002 -0.4510  2.9909 -3.1396
   81MOL   H54947109   1.111   2.062   5.170  2.3040 -0.1052 -0.6580
   81MOL   H55047110   1.300   2.095   5.062 -0.3022  2.9936  2.2214
   81MOL   H55147111   1.002   2.232   4.973  2.8878 -0.7102  0.5538
   81MOL   H55247112   0.979   2.087   4.891  0.9416  1.7526 -0.5825
   81MOL   C55347113   0.835   1.974   5.102  0.0220  0.3991  0.6627
   81MOL   C55447114   0.696   1.984   5.163  0.1714  0.2709 -0.2374
   81MOL   O55547115   0.696   2.054   5.281 -0.5863  0.1339  0.0876
   81MOL   C55647116   0.633   1.846   5.190  0.3532 -0.0138  0.0118
   81MOL   O55747117   0.600   1.781   5.070 -0.1708  0.0125 -0.1339
   81MOL   C55847118   0.559   1.649   5.105  0.3398  0.2420  0.8125
   81MOL   C55947119   0.612   1.556   4.999  1.2658 -0.1471  0.3033
   81MOL   C56047120   0.756   1.516   5.021 -0.6608 -0.2001  0.3650
   81MOL   O56147121   0.807   1.431   4.923 -0.7827 -0.1263  0.1338
   81MOL   C56247122   0.857   1.492   4.808 -0.2123 -0.8255 -0.0564
   81MOL   O56347123   0.971   1.570   4.835 -0.5597 -0.1495  0.2895
   81MOL   C56447124   0.898   1.379   4.709 -0.0364  0.1405  0.4452
   81MOL   O56547125   1.036   1.355   4.721 -0.4748  0.1698  0.0807
   81MOL   H56647126   0.906   1.940   5.178  1.2058 -3.3534 -1.9585
   81MOL   H56747127   0.841   1.904   5.018 -1.0118 -0.8715  1.6260
   81MOL   H56847128   0.631   2.036   5.093 -0.4434 -0.5796 -0.3034
   81MOL   H56947129   0.720   2.142   5.255 -3.2464  0.5182 -1.3548
   81MOL   H57047130   0.707   1.784   5.241  0.4630  0.0979 -0.0111
   81MOL   H57147131   0.543   1.855   5.251 -0.5331  0.0198 -1.2784
   81MOL   H57247132   0.594   1.608   5.199  2.8052  0.0459 -0.1495
   81MOL   H57347133   0.451   1.641   5.097  0.2324  2.6113 -0.7396
   81MOL   H57447134   0.581   1.586   4.899 -0.8675 -2.8590  0.0684
   81MOL   H57547135   0.549   1.467   4.995 -0.8088  1.2708  0.2610
   81MOL   H57647136   0.826   1.598   5.035 -0.7685  0.0472 -0.5331
   81MOL   H57747137   0.766   1.465   5.117  0.4526 -1.2994 -0.3178
   81MOL   H57847138   0.780   1.557   4.768 -0.0723  0.0682  1.1092
   81MOL   H57947139   1.043   1.513   4.812  0.5408  1.2956  0.0362
   81MOL   H58047140   0.834   1.292   4.724 -0.2335  0.2885  0.4686
   81MOL   H58147141   0.881   1.421   4.610  2.1376 -0.3834 -0.1703
   81MOL   H58247142   1.050   1.262   4.717  0.0385  0.0251  3.7509
   82MOL     C147143   6.471   6.504   5.900 -0.1844  0.3961  0.4179
   82MOL     C247144   6.349   6.427   5.848 -0.3679 -0.9139  0.2655
   82MOL     O347145   6.285   6.352   5.949 -0.0952  0.0183 -0.1689
   82MOL     C447146   6.246   6.514   5.785  0.8301 -0.4192  0.4359
   82MOL     O547147   6.184   6.593   5.880 -0.4300 -0.1114 -0.3358
   82MOL     C647148   6.116   6.706   5.826 -0.2556  0.0840  0.1020
   82MOL     C747149   6.037   6.759   5.954 -0.3792  0.4411  0.2477
   82MOL     C847150   5.947   6.873   5.918 -0.3154  0.1232  0.3738
   82MOL     O947151   5.862   6.897   6.026  0.4356  0.2623  0.0839
   82MOL    C1047152   5.755   6.986   6.005 -0.1283 -0.1892  0.1880
   82MOL    O1147153   5.809   7.116   5.979  0.1442 -0.1638  0.1952
   82MOL    C1247154   5.668   6.987   6.134 -0.1436  0.6811 -0.2821
   82MOL    O1347155   5.559   6.900   6.114  0.2469  0.3445 -0.1953
   82MOL    H1447156   6.551   6.433   5.925  0.2163  0.6398 -0.1711
   82MOL    H1547157   6.438   6.558   5.989  2.8266  0.2241  1.7297
   82MOL    H1647158   6.387   6.370   5.763  1.1554 -1.2843  1.1770
   82MOL    H1747159   6.228   6.411   5.997 -1.1972  0.5827 -2.1007
   82MOL    H1847160   6.296   6.577   5.711  1.5852 -0.2187  1.1094
   82MOL    H1947161   6.171   6.450   5.739 -0.9432  1.4844  0.6358
   82MOL    H2047162   6.048   6.685   5.744 -0.5945 -3.4006  1.1847
   82MOL    H2147163   6.184   6.780   5.783  0.3160 -0.1507  0.5879
   82MOL    H2247164   6.107   6.787   6.032 -0.0783 -1.9404  0.8646
   82MOL    H2347165   5.977   6.671   5.976 -1.1760  0.9811  0.2589
   82MOL    H2447166   6.002   6.959   5.879 -0.4355 -0.4006 -1.0070
   82MOL    H2547167   5.881   6.849   5.834 -0.8018  0.7647  0.5730
   82MOL    H2647168   5.699   6.941   5.923 -1.3596  0.4519  0.6671
   82MOL    H2747169   5.799   7.126   5.886  0.1453  0.8521  0.2954
   82MOL    H2847170   5.730   6.952   6.217 -0.1906  1.3934  0.0623
   82MOL    H2947171   5.639   7.089   6.158 -1.3650 -0.2699  2.4533
   82MOL    H3047172   6.513   6.572   5.826 -0.3374  0.4524  0.3833
   82MOL    C3147173   5.465   6.914   6.226  0.2455 -0.6262 -0.3545
   82MOL    C3247174   5.336   6.836   6.213  0.0733  0.4536 -0.3141
   82MOL    O3347175   5.257   6.923   6.134  0.0499 -0.0513  0.2146
   82MOL    C3447176   5.242   6.814   6.343 -0.2397  0.4565  0.7080
   82MOL    O3547177   5.117   6.767   6.299 -0.6544  0.2031 -0.5550
   82MOL    C3647178   5.031   6.736   6.406 -0.0546  0.0838  0.5354
   82MOL    C3747179   5.053   6.597   6.468  0.7687 -0.0470 -0.1378
   82MOL    C3847180   4.968   6.596   6.593  0.5853 -0.5992 -0.6956
   82MOL    O3947181   5.000   6.479   6.660  0.5254  0.0441 -0.0789
   82MOL    C4047182   4.946   6.459   6.783  0.1380 -0.1646  0.0411
   82MOL    O4147183   5.018   6.527   6.885 -0.7571 -0.0962  0.4520
   82MOL    C4247184   4.943   6.304   6.809 -0.2663 -0.3037 -0.3077
   82MOL    O4347185   4.811   6.258   6.794 -0.2015 -0.2008 -0.2719
   82MOL    H4447186   5.518   6.878   6.314 -0.1896  2.4651  1.2325
   82MOL    H4547187   5.450   7.020   6.244  3.3453 -0.5478  2.1912
   82MOL    H4647188   5.349   6.743   6.156 -1.2073 -0.0726  0.2224
   82MOL    H4747189   5.176   6.876   6.143 -0.1609  0.3209  0.2605
   82MOL    H4847190   5.281   6.731   6.400 -1.5088 -0.1388  0.7238
   82MOL    H4947191   5.237   6.910   6.395 -0.3934  0.1369  1.2717
   82MOL    H5047192   4.931   6.734   6.363  1.4736 -0.7223 -3.1896
   82MOL    H5147193   5.024   6.818   6.477 -1.0510  1.4127 -1.0819
   82MOL    H5247194   5.153   6.590   6.512  0.5278 -1.8719  0.1634
   82MOL    H5347195   5.031   6.512   6.404 -0.4233  1.7580 -2.1922
   82MOL    H5447196   5.004   6.680   6.653  0.2033 -1.5323  0.8753
   82MOL    H5547197   4.860   6.602   6.574  0.0119  0.4597  2.5562
   82MOL    H5647198   4.847   6.504   6.775  0.2441  0.1526  0.4566
   82MOL    H5747199   5.108   6.500   6.875 -1.1223 -1.4726  0.6638
   82MOL    H5847200   5.012   6.256   6.739  1.1795  1.4122 -0.1089
   82MOL    H5947201   4.983   6.278   6.907 -0.2146 -2.4646 -0.8714
   82MOL    C6047202   4.762   6.268   6.660 -0.1755  0.1438  0.1612
   82MOL    C6147203   4.621   6.204   6.646  1.1458 -0.2784  0.6047
   82MOL    O6247204   4.523   6.294   6.672  0.3829  0.4733 -0.0001
   82MOL    C6347205   4.600   6.070   6.723 -0.0422 -0.3366 -0.0900
   82MOL    O6447206   4.635   5.954   6.638  0.2349 -0.3608  0.3684
   82MOL    C6547207   4.586   5.832   6.688  1.1808 -0.1049 -0.2394
   82MOL    C6647208   4.627   5.703   6.610 -0.5704 -0.0687 -0.0472
   82MOL    C6747209   4.592   5.576   6.687 -0.5073 -0.1905 -0.3450
   82MOL    O6847210   4.632   5.457   6.622 -0.4733 -0.3066 -0.8861
   82MOL    C6947211   4.571   5.340   6.673  0.2816 -0.4665 -1.0340
   82MOL    O7047212   4.451   5.324   6.610 -0.2763  0.3223  0.1083
   82MOL    C7147213   4.647   5.212   6.643 -0.0469 -0.1494 -0.2869
   82MOL    O7247214   4.648   5.185   6.506  1.0084  0.5148 -0.1045
   82MOL    H7347215   4.832   6.215   6.595  0.3601 -0.3684  1.1473
   82MOL    H7447216   4.746   6.372   6.629  3.1982  1.2307  1.8283
   82MOL    H7547217   4.597   6.186   6.541  0.9683 -0.6801  0.7119
   82MOL    H7647218   4.543   6.325   6.759  1.9477  2.9725 -1.1833
   82MOL    H7747219   4.654   6.067   6.818  0.1112  1.6769 -0.0849
   82MOL    H7847220   4.496   6.064   6.752  0.2371  1.6865  1.4808
   82MOL    H7947221   4.477   5.828   6.694  1.1562 -0.7232 -1.0547
   82MOL    H8047222   4.638   5.814   6.782  1.8574 -1.3386 -0.8347
   82MOL    H8147223   4.733   5.706   6.585 -0.6626 -2.3133 -0.7863
   82MOL    H8247224   4.585   5.707   6.509 -0.3108 -0.8950 -0.1961
   82MOL    H8347225   4.485   5.562   6.697 -0.4853 -1.6794 -1.8570
   82MOL    H8447226   4.647   5.572   6.781 -0.1492  1.3864 -0.4721
   82MOL    H8547227   4.550   5.351   6.779 -0.3008  1.0142 -1.2982
   82MOL    H8647228   4.461   5.338   6.517  0.7948  1.5586  0.3940
   82MOL    H8747229   4.749   5.234   6.675  0.2702 -0.2412 -1.1938
   82MOL    H8847230   4.605   5.135   6.706 -0.5857  1.3459  1.1980
   82MOL    C8947231   4.712   5.059   6.464 -0.1650 -0.9658 -0.4692
   82MOL    C9047232   4.627   4.990   6.352  1.1450  0.4033  0.2515
   82MOL    O9147233   4.715   4.939   6.251  0.7222 -0.1837 -1.1198
   82MOL    C9247234   4.537   4.876   6.399 -0.6439 -0.1189  0.3161
   82MOL    O9347235   4.587   4.800   6.508 -0.8149  0.0346  0.5211
   82MOL    C9447236   4.487   4.712   6.565 -0.2461  1.1319  0.4275
   82MOL    C9547237   4.553   4.642   6.686 -0.1644  0.5789 -0.2775
   82MOL    C9647238   4.689   4.586   6.662 -0.0154  0.2066  0.3460
   82MOL    O9747239   4.684   4.475   6.573  0.3816  0.1780 -0.0961
   82MOL    C9847240   4.808   4.448   6.516 -0.7302  0.0467 -0.1986
   82MOL    O9947241   4.891   4.375   6.603 -0.3055 -0.0954 -0.3147
   82MOL   C10047242   4.784   4.367   6.389 -0.0617  0.5601 -0.1150
   82MOL   O10147243   4.790   4.439   6.261 -0.7488  0.2320 -0.4121
   82MOL   H10247244   4.724   5.004   6.557 -1.3134  0.4004  0.5315
   82MOL   H10347245   4.814   5.066   6.426 -0.2456  2.2119 -0.2427
   82MOL   H10447246   4.566   5.068   6.306  2.7535  1.6029  0.1291
   82MOL   H10547247   4.668   4.893   6.183 -1.9892  3.4113 -1.8362
   82MOL   H10647248   4.447   4.931   6.428  0.2664  0.7100  1.6401
   82MOL   H10747249   4.502   4.806   6.324  0.5577 -1.3892  0.9135
   82MOL   H10847250   4.459   4.637   6.490  0.2229  0.3269  1.0620
   82MOL   H10947251   4.391   4.757   6.593 -0.7072  0.2536  0.2921
   82MOL   H11047252   4.478   4.564   6.704 -0.0643  0.6701  0.5399
   82MOL   H11147253   4.556   4.698   6.780  1.8068  0.0655 -0.0069
   82MOL   H11247254   4.755   4.664   6.623  1.0665 -0.2031  1.3262
   82MOL   H11347255   4.724   4.554   6.760 -0.8694  0.1068  0.6212
   82MOL   H11447256   4.866   4.536   6.490 -0.4539  0.3384  1.3543
   82MOL   H11547257   4.844   4.296   6.625 -0.2675  0.2027  0.8626
   82MOL   H11647258   4.862   4.293   6.374 -0.4735  0.3752 -1.4565
   82MOL   H11747259   4.689   4.313   6.399  0.9401 -1.0046  1.0850
   82MOL   C11847260   4.697   4.545   6.256 -0.9051 -0.4902  0.2814
   82MOL   C11947261   4.678   4.588   6.110 -0.8733  0.1719 -0.2148
   82MOL   O12047262   4.589   4.698   6.104 -0.0360  0.2175 -0.0831
   82MOL   C12147263   4.613   4.473   6.020 -0.0899  0.1843 -0.0835
   82MOL   O12247264   4.483   4.445   6.068  0.3038 -0.4583  0.6550
   82MOL   C12347265   4.447   4.310   6.057 -0.7571  0.1100 -0.3611
   82MOL   C12447266   4.509   4.224   6.166 -0.4916  0.1600 -0.6217
   82MOL   C12547267   4.443   4.091   6.184 -0.1163 -0.5491  0.8312
   82MOL   O12647268   4.528   4.027   6.278 -0.0801  0.0291  0.3897
   82MOL   C12747269   4.539   3.886   6.259 -0.5045 -0.1256  0.4185
   82MOL   O12847270   4.424   3.818   6.300  0.2844  0.1147  0.4690
   82MOL   C12947271   4.664   3.837   6.338  0.1416 -0.0803  0.3824
   82MOL   O13047272   4.671   3.907   6.464 -0.0129  0.1362  0.4728
   82MOL   H13147273   4.600   4.514   6.297 -1.0836  0.5601  0.6735
   82MOL   H13247274   4.726   4.632   6.315 -1.9374 -1.5551  2.4346
   82MOL   H13347275   4.773   4.618   6.066 -1.0906  0.3334 -0.5795
   82MOL   H13447276   4.504   4.660   6.121 -0.5730  0.2911 -2.4897
   82MOL   H13547277   4.606   4.497   5.914 -0.3365 -2.0188 -0.5757
   82MOL   H13647278   4.681   4.388   6.030  0.2974  0.7079  2.1238
   82MOL   H13747279   4.472   4.270   5.959 -0.2355 -1.4441  0.3995
   82MOL   H13847280   4.339   4.310   6.066 -1.0768  0.0188 -3.7380
   82MOL   H13947281   4.494   4.283   6.256 -2.9370  0.9306 -1.5162
   82MOL   H14047282   4.615   4.205   6.147 -1.1120 -1.1703 -2.9292
   82MOL   H14147283   4.336   4.091   6.206 -0.1011 -0.7658  0.9021
   82MOL   H14247284   4.449   4.037   6.089  0.6492 -1.4503  1.3922
   82MOL   H14347285   4.544   3.867   6.152  3.1926  0.4020  0.4408
   82MOL   H14447286   4.453   3.738   6.342  2.2208 -0.9938 -2.8110
   82MOL   H14547287   4.660   3.729   6.340  1.4219 -0.1018  2.4552
   82MOL   H14647288   4.739   3.878   6.270 -0.1110 -1.0969 -0.5233
   82MOL   C14747289   4.788   3.891   6.546  0.7519 -0.0779 -0.2480
   82MOL   C14847290   4.761   3.985   6.669 -0.2603 -0.3002  0.1925
   82MOL   O14947291   4.766   4.116   6.618  0.0321 -0.0728 -0.0440
   82MOL   C15047292   4.864   3.967   6.779 -0.0114  0.4399 -0.0496
   82MOL   O15147293   4.803   3.869   6.869  0.1876  0.1229 -0.3241
   82MOL   C15247294   4.903   3.835   6.958 -0.4217  0.6718 -1.4328
   82MOL   C15347295   4.831   3.762   7.076 -0.0711  0.1240  0.2512
   82MOL   C15447296   4.929   3.723   7.193 -0.1077  0.3257  0.0189
   82MOL   O15547297   4.976   3.841   7.249 -0.2008 -0.2910 -0.7317
   82MOL   C15647298   5.084   3.824   7.346  0.2677 -0.3522 -0.4900
   82MOL   O15747299   5.040   3.783   7.477  0.2177  0.2518  0.4516
   82MOL   C15847300   5.162   3.954   7.363  0.0769  0.1691  0.1201
   82MOL   O15947301   5.065   4.043   7.420  0.3629 -0.0649  0.6417
   82MOL   H16047302   4.876   3.915   6.486  0.5844  1.9822  0.3175
   82MOL   H16147303   4.792   3.788   6.582  1.1293  0.6430  1.8145
   82MOL   H16247304   4.661   3.974   6.711 -0.4321  1.0824  0.1537
   82MOL   H16347305   4.678   4.140   6.593  0.7060  0.1582 -2.2621
   82MOL   H16447306   4.957   3.931   6.736 -1.2455 -1.5521 -1.1787
   82MOL   H16547307   4.888   4.062   6.826  0.2836  1.2528 -1.8200
   82MOL   H16647308   4.965   3.919   6.989 -1.8374  0.4091  2.2616
   82MOL   H16747309   4.985   3.775   6.917 -0.0326  0.4554 -0.3336
   82MOL   H16847310   4.786   3.669   7.040 -2.0171  1.3023 -0.3919
   82MOL   H16947311   4.748   3.816   7.119 -1.4705 -0.8185 -1.1938
   82MOL   H17047312   4.867   3.686   7.275  0.4326 -0.8109 -0.0718
   82MOL   H17147313   4.999   3.648   7.157 -1.9773 -1.1722 -0.5766
   82MOL   H17247314   5.142   3.741   7.305 -0.1756 -1.1751  0.5148
   82MOL   H17347315   4.990   3.855   7.513 -1.1373  0.3423 -1.5365
   82MOL   H17447316   5.240   3.952   7.439  2.4577  0.1286 -2.2426
   82MOL   H17547317   5.205   3.981   7.267 -1.6789  1.8378 -0.2050
   82MOL   C17647318   5.096   4.178   7.382  1.0935  0.1527  0.3434
   82MOL   C17747319   5.005   4.283   7.445  0.3935 -0.2438 -0.7403
   82MOL   O17847320   5.031   4.406   7.390 -0.2256 -0.7443 -0.1475
   82MOL   C17947321   5.017   4.291   7.595 -0.3629  0.2941 -1.1393
   82MOL   O18047322   4.918   4.378   7.648 -0.3955  0.1874  0.4864
   82MOL   C18147323   4.936   4.413   0.089 -0.1487  0.6286 -0.8192
   82MOL   C18247324   5.017   4.549   0.098 -0.2032 -0.7248 -0.4935
   82MOL   C18347325   5.023   4.596   0.244  0.2078  0.6603 -0.3767
   82MOL   O18447326   5.100   4.715   0.273  0.1038  0.6781  0.5604
   82MOL   C18547327   5.149   4.723   0.405  0.5041 -0.0265 -0.0357
   82MOL   O18647328   5.036   4.732   0.492  0.0198 -0.2739 -0.5294
   82MOL   C18747329   5.233   4.858   0.402 -0.1743 -0.0818  0.2591
   82MOL   O18847330   5.356   4.852   0.332  0.0912  0.2664 -0.6340
   82MOL   H18947331   5.090   4.199   7.275 -0.7135 -0.0331  0.3906
   82MOL   H19047332   5.200   4.199   7.407  1.1881  1.0502 -0.7409
   82MOL   H19147333   4.902   4.271   7.410  0.4805  0.4729 -1.2504
   82MOL   H19247334   4.972   4.461   7.440 -2.2803 -2.1094 -1.0414
   82MOL   H19347335   4.997   4.192   7.635  0.2496 -0.1106 -1.8102
   82MOL   H19447336   5.116   4.320   7.630  1.1842 -5.1512 -0.5961
   82MOL   H19547337   4.969   4.331   0.152  0.0453  2.2431  1.2319
   82MOL   H19647338   4.834   4.434   0.122 -0.0858 -0.8594  0.3406
   82MOL   H19747339   4.981   4.623   0.027  2.4225  2.4011  1.3135
   82MOL   H19847340   5.123   4.532   0.075 -0.2396  1.2889 -2.3026
   82MOL   H19947341   4.917   4.605   0.266  0.2199  0.1640 -0.1037
   82MOL   H20047342   5.057   4.509   0.302 -0.7736 -0.1078 -0.9448
   82MOL   H20147343   5.212   4.639   0.434 -2.4062 -2.5157 -0.6753
   82MOL   H20247344   5.053   4.779   0.572 -0.3837 -0.0128 -0.5917
   82MOL   H20347345   5.179   4.941   0.356  1.4528  0.3269 -0.9642
   82MOL   H20447346   5.255   4.888   0.505  1.5200  0.2836 -0.2050
   82MOL   C20547347   5.458   4.772   0.390  0.0149  0.2523 -0.0729
   82MOL   C20647348   5.553   4.692   0.294 -1.0609  0.3520  0.6983
   82MOL   O20747349   5.606   4.799   0.221 -0.4795 -0.2144  0.1139
   82MOL   C20847350   5.669   4.628   0.377  0.2820 -0.3439 -0.3415
   82MOL   O20947351   5.761   4.549   0.300 -0.1179  0.0758  0.6535
   82MOL   C21047352   5.869   4.493   0.375 -0.4505  0.4704 -0.1706
   82MOL   C21147353   5.885   4.344   0.339  0.5552 -0.0968  0.0402
   82MOL   C21247354   5.759   4.260   0.385  0.8518 -0.0170 -0.6683
   82MOL   O21347355   5.767   4.142   0.316 -0.0926  0.1461  0.1387
   82MOL   C21447356   5.649   4.058   0.329 -0.9519 -0.2966  0.4853
   82MOL   O21547357   5.663   3.966   0.427 -0.4128 -0.2708 -0.1222
   82MOL   C21647358   5.644   3.985   0.195  0.5760 -0.6236 -0.0744
   82MOL   O21747359   5.584   4.067   0.095 -0.6666 -0.3127  0.8805
   82MOL   H21847360   5.424   4.685   0.446  2.3043 -1.5523 -1.3529
   82MOL   H21947361   5.517   4.835   0.456 -0.2315 -0.5322  0.9068
   82MOL   H22047362   5.506   4.613   0.236 -0.4322 -1.4789  2.6131
   82MOL   H22147363   5.534   4.847   0.184 -1.3143 -1.1731  0.4891
   82MOL   H22247364   5.716   4.705   0.439  0.3225  0.0591 -0.8733
   82MOL   H22347365   5.621   4.567   0.453  2.2982  0.2415  1.4743
   82MOL   H22447366   5.843   4.491   0.480  0.7111  0.5634  0.1241
   82MOL   H22547367   5.957   4.552   0.348  0.8934 -0.7344  1.5510
   82MOL   H22647368   5.970   4.304   0.393  0.1477 -0.6442  0.2772
   82MOL   H22747369   5.887   4.348   0.230 -1.0331 -0.1276 -0.0030
   82MOL   H22847370   5.771   4.236   0.491  0.0858  0.6796 -0.4149
   82MOL   H22947371   5.664   4.314   0.382  0.8290  0.0363  0.5664
   82MOL   H23047372   5.560   4.117   0.354 -0.0433  1.7490 -0.9326
   82MOL   H23147373   5.577   3.943   0.459 -0.0527 -1.1089  0.2509
   82MOL   H23247374   5.750   3.981   0.171  0.7197 -0.7260  0.5777
   82MOL   H23347375   5.605   3.884   0.199  1.7640 -1.0645  0.6252
   82MOL   C23447376   5.576   4.005   7.661 -0.7276  0.6161 -0.7918
   82MOL   C23547377   5.513   4.092   7.554  0.2048 -0.7203  0.0831
   82MOL   O23647378   5.540   4.040   7.428  0.1185 -0.8583 -0.0294
   82MOL   C23747379   5.567   4.244   7.556  0.2990  0.4554 -0.1236
   82MOL   O23847380   5.473   4.316   7.467  0.0830  0.5014  0.9289
   82MOL   C23947381   5.448   4.444   7.507  0.3031 -0.2544  0.1400
   82MOL   C24047382   5.577   4.541   7.483 -1.0950 -0.6258  0.0241
   82MOL   C24147383   5.695   4.532   7.587 -0.1363 -0.2427 -0.8232
   82MOL   O24247384   5.759   4.656   7.597  0.4753  0.1145 -0.2463
   82MOL   C24347385   5.866   4.665   7.686 -0.1353 -0.3194 -0.1458
   82MOL   O24447386   5.864   4.786   0.059  0.0168  0.1712 -0.1809
   82MOL   C24547387   6.001   4.637   7.616 -0.7530 -0.3138 -0.5376
   82MOL   O24647388   6.049   4.515   7.649 -0.4807  0.4479  0.6467
   82MOL   H24747389   5.677   3.995   7.624  0.0170  2.6469  0.5948
   82MOL   H24847390   5.515   3.915   7.667 -0.1310  0.3001  0.9339
   82MOL   H24947391   5.406   4.094   7.573  0.0310 -2.1474 -0.6567
   82MOL   H25047392   5.612   4.088   7.389  1.3976 -1.0136  2.0468
   82MOL   H25147393   5.549   4.283   7.656  1.4617  0.5410  0.0614
   82MOL   H25247394   5.674   4.242   7.534  0.4003 -0.4217  0.4331
   82MOL   H25347395   5.409   4.456   7.607  0.2967  0.5112  0.0441
   82MOL   H25447396   5.370   4.465   7.435  0.1366 -2.4509 -0.3696
   82MOL   H25547397   5.549   4.646   7.468 -1.3845 -0.6415  0.4441
   82MOL   H25647398   5.615   4.502   7.389 -1.9292 -2.5578  0.4737
   82MOL   H25747399   5.662   4.496   7.684  0.2327 -0.3366 -0.7324
   82MOL   H25847400   5.770   4.462   7.551 -0.1123  0.6984 -2.6710
   82MOL   H25947401   5.846   4.588   0.066  0.0111 -1.7811 -1.5791
   82MOL   H26047402   5.789   4.781   0.116 -1.4116  0.3757 -2.0122
   82MOL   H26147403   5.986   4.636   7.509  0.6796  3.4058 -0.8768
   82MOL   H26247404   6.080   4.710   7.636 -2.5984  1.9106 -1.0806
   82MOL   C26347405   6.114   4.504   0.076 -0.5735  0.2523  0.1815
   82MOL   C26447406   6.256   4.557   0.073 -0.2300 -0.3226  0.3251
   82MOL   O26547407   6.314   4.539   0.207 -0.5777  0.0597  0.8498
   82MOL   C26647408   6.358   4.502   7.674  0.1111  0.5978 -0.1682
   82MOL   O26747409   6.464   4.589   7.658 -0.4517 -0.1640  0.0429
   82MOL   C26847410   6.566   4.547   7.562 -0.8070 -0.4527 -0.0600
   82MOL   C26947411   6.667   4.661   7.560 -0.0209  0.2440  0.2721
   82MOL   C27047412   6.793   4.640   7.477 -0.0025 -0.2997 -0.6832
   82MOL   O27147413   6.883   4.552   7.542 -0.8925  0.2175  0.0781
   82MOL   C27247414   6.987   4.527   7.457 -0.0173 -0.2830 -0.0589
   82MOL   O27347415   7.067   4.643   7.434  0.9841 -0.7738  0.2331
   82MOL   C27447416   7.074   4.407   7.513  0.4330  0.0885 -0.7271
   82MOL   O27547417   7.095   4.307   7.423 -0.4423 -0.5666 -0.5338
   82MOL   H27647418   6.110   4.402   0.115 -1.5573  0.8466  1.6892
   82MOL   H27747419   6.067   4.558   0.158 -0.0700  0.3382  0.4114
   82MOL   H27847420   6.246   4.663   0.050 -2.4367 -0.8101 -1.1713
   82MOL   H27947421   6.293   4.451   0.236  3.5137 -0.5617  2.2166
   82MOL   H28047422   6.400   4.410   0.020  1.6722  0.6660 -1.5388
   82MOL   H28147423   6.312   4.471   7.580 -1.1561 -1.9858  1.2638
   82MOL   H28247424   6.535   4.528   7.459  0.9388  0.6370 -0.8032
   82MOL   H28347425   6.611   4.453   7.591  1.0640  0.7764  1.0760
   82MOL   H28447426   6.705   4.680   7.660 -1.0839 -3.3271  1.4459
   82MOL   H28547427   6.615   4.750   7.525 -1.0764  1.1197  3.8724
   82MOL   H28647428   6.766   4.604   7.378  1.2687  0.4513 -1.3180
   82MOL   H28747429   6.839   4.739   7.471 -1.8136  0.6041 -0.0866
   82MOL   H28847430   6.946   4.492   7.363  1.2409  0.9373 -1.0847
   82MOL   H28947431   7.128   4.660   7.505  0.0827 -1.3804  1.1650
   82MOL   H29047432   7.165   4.454   7.550 -0.9937  1.2704  1.4528
   82MOL   H29147433   7.020   4.370   7.601  1.2256 -2.0029 -1.1065
   82MOL   C29247434   7.187   4.336   7.323 -0.1239 -0.2617 -0.2665
   82MOL   C29347435   7.205   4.216   7.234 -0.5518  0.3097 -0.2156
   82MOL   O29447436   7.098   4.223   7.142  0.3977 -0.7850  0.2587
   82MOL   C29547437   7.332   4.220   7.146 -0.4411  0.4129 -0.5821
   82MOL   O29647438   7.341   4.099   7.070  0.5110  0.2191 -0.3969
   82MOL   C29747439   7.438   4.091   6.957  0.4961  0.0918 -0.2599
   82MOL   C29847440   7.405   3.966   6.874 -0.7200  0.1366  0.0863
   82MOL   C29947441   7.495   3.962   6.744 -0.6030 -0.9675  0.4783
   82MOL   O30047442   7.426   3.877   6.658 -0.6802 -0.6944  0.0434
   82MOL   C30147443   7.496   3.853   6.540 -0.0632 -0.4061 -0.2816
   82MOL   O30247444   7.610   3.765   6.562 -0.0989 -0.1390  0.0282
   82MOL   C30347445   7.400   3.788   6.446 -0.1040  0.4058  0.9074
   82MOL   O30447446   7.342   3.883   6.346 -0.0153  0.5382 -0.7765
   82MOL   H30547447   7.151   4.424   7.270  0.5545  0.4018  0.3642
   82MOL   H30647448   7.284   4.355   7.369  0.6678  1.2466 -2.4715
   82MOL   H30747449   7.202   4.125   7.294  2.6724  1.4582  1.8408
   82MOL   H30847450   7.028   4.241   7.204 -0.5996  2.4991 -1.7007
   82MOL   H30947451   7.339   4.310   7.085 -1.3026  1.1006  0.3150
   82MOL   H31047452   7.416   4.229   7.215 -0.7608  1.8195 -0.3427
   82MOL   H31147453   7.539   4.084   6.998 -0.0100 -1.3549  0.7737
   82MOL   H31247454   7.431   4.179   6.893  1.3557 -0.2504 -0.8387
   82MOL   H31347455   7.303   3.972   6.835 -0.4269  0.7097 -0.6188
   82MOL   H31447456   7.428   3.873   6.925 -1.8964 -0.5828 -0.6650
   82MOL   H31547457   7.513   4.061   6.701 -0.1214 -0.1339  2.5308
   82MOL   H31647458   7.598   3.943   6.772  0.5369  2.7804 -0.8877
   82MOL   H31747459   7.540   3.941   6.493 -0.0011 -0.9157 -1.1977
   82MOL   H31847460   7.688   3.816   6.577  0.6449 -1.2897  0.1466
   82MOL   H31947461   7.318   3.744   6.503 -1.6123  2.0185  0.0244
   82MOL   H32047462   7.448   3.710   6.388 -2.5166 -0.0253 -0.5745
   82MOL   C32147463   7.235   3.971   6.399  0.2898  0.3036 -0.0096
   82MOL   C32247464   7.250   4.115   6.359 -0.0609  0.5675  0.0984
   82MOL   O32347465   7.283   4.106   6.227  0.0316 -0.5565  0.1405
   82MOL   C32447466   7.118   4.189   6.378 -0.4957  0.2004  0.2405
   82MOL   O32547467   7.139   4.331   6.350 -0.8181  0.3361 -0.1085
   82MOL   C32647468   7.033   4.403   6.287  0.8398  0.3820  0.4290
   82MOL   C32747469   7.037   4.545   6.327 -0.0441  0.3650 -0.3577
   82MOL   C32847470   6.912   4.623   6.284 -0.2879 -0.1464 -0.3499
   82MOL   O32947471   6.874   4.605   6.153 -0.0921 -0.0257  0.2072
   82MOL   C33047472   6.819   4.717   6.095 -1.0580 -0.4889  0.1113
   82MOL   O33147473   6.900   4.832   6.109 -0.5604  0.5641  0.9326
   82MOL   C33247474   6.794   4.686   5.944  0.1383  0.4589 -0.3756
   82MOL   O33347475   6.680   4.595   5.934  0.0480 -0.1336  0.3805
   82MOL   H33447476   7.223   3.964   6.507  2.0848 -0.7799  0.1406
   82MOL   H33547477   7.140   3.940   6.357  0.6477 -1.6547  0.6069
   82MOL   H33647478   7.322   4.155   6.430 -0.3404  2.9559 -0.9060
   82MOL   H33747479   7.291   4.197   6.200  0.6040  0.1621  2.5465
   82MOL   H33847480   7.084   4.179   6.481 -0.7047 -0.0793  0.1457
   82MOL   H33947481   7.052   4.147   6.303  0.1391  2.3088 -1.5385
   82MOL   H34047482   6.932   4.370   6.313  1.0402 -0.0468  0.6516
   82MOL   H34147483   7.040   4.391   6.179 -1.2359  0.0496  0.3144
   82MOL   H34247484   7.037   4.548   6.436  1.1349 -1.4162 -0.2936
   82MOL   H34347485   7.132   4.588   6.295  1.0394 -0.5080  1.6001
   82MOL   H34447486   6.827   4.588   6.342  1.9096 -2.0634  1.8111
   82MOL   H34547487   6.933   4.724   6.320  0.1784 -0.8183  1.2824
   82MOL   H34647488   6.727   4.747   6.145 -0.8236 -0.4487  0.5194
   82MOL   H34747489   6.982   4.815   6.066 -1.5492  1.0451 -1.1863
   82MOL   H34847490   6.783   4.779   5.889  1.6942  0.3130 -0.9604
   82MOL   H34947491   6.879   4.628   5.908 -0.2156  0.2903 -0.9384
   82MOL   C35047492   6.631   4.557   5.806  0.0642 -0.5460  0.7945
   82MOL   C35147493   6.516   4.462   5.833  0.2427  0.2483 -0.3641
   82MOL   O35247494   6.421   4.521   5.918 -0.1403  0.3170 -0.1231
   82MOL   C35347495   6.451   4.404   5.697  0.5051  0.1168  0.0874
   82MOL   O35447496   6.515   4.457   5.578  0.4558 -0.0494  0.0455
   82MOL   C35547497   6.512   4.378   5.460 -0.7634  0.0861  0.5143
   82MOL   C35647498   6.593   4.458   5.355 -0.8932  0.8671  0.1909
   82MOL   C35747499   6.747   4.447   5.374 -0.3930  0.1892 -0.1311
   82MOL   O35847500   6.811   4.465   5.240  0.1955  0.6146 -0.5776
   82MOL   C35947501   6.930   4.528   5.238 -0.4256 -0.3335 -0.2489
   82MOL   O36047502   7.015   4.491   5.342  0.0064  0.4077  0.4552
   82MOL   C36147503   6.992   4.495   5.099 -0.8785  0.1069  0.2461
   82MOL   O36247504   7.052   4.622   5.047 -0.5446 -0.1525 -0.2824
   82MOL   H36347505   6.714   4.513   5.751  0.8516  0.7390  0.9235
   82MOL   H36447506   6.592   4.642   5.749  0.8150 -0.1721  0.8354
   82MOL   H36547507   6.556   4.373   5.883  0.1811  0.9915  1.0141
   82MOL   H36647508   6.466   4.531   6.001 -0.0248  2.8993 -0.4369
   82MOL   H36747509   6.439   4.295   5.693 -1.4712  0.3789 -2.3579
   82MOL   H36847510   6.353   4.453   5.702 -0.5041 -1.7760 -0.5364
   82MOL   H36947511   6.407   4.358   5.438 -1.3347  0.4942  2.7754
   82MOL   H37047512   6.570   4.287   5.473 -1.0523 -0.4783 -1.9117
   82MOL   H37147513   6.561   4.560   5.334 -0.3178  0.6431 -1.8670
   82MOL   H37247514   6.561   4.403   5.266 -1.3995 -0.8866  1.4253
   82MOL   H37347515   6.784   4.514   5.451  0.9402  0.6166 -1.1146
   82MOL   H37447516   6.773   4.345   5.402  0.2476  0.7476  1.3530
   82MOL   H37547517   6.910   4.635   5.229  0.9302 -0.1707 -1.5260
   82MOL   H37647518   7.028   4.398   5.330  0.4614  0.4724  0.4768
   82MOL   H37747519   7.044   4.399   5.106 -1.0385 -0.2947 -3.0295
   82MOL   H37847520   6.907   4.483   5.032 -1.8323 -1.6261  1.7302
   82MOL   C37947521   7.169   4.595   4.976 -0.3166 -0.1012 -0.4388
   82MOL   C38047522   7.248   4.716   4.958 -0.1850  0.1232  0.2939
   82MOL   O38147523   7.344   4.726   5.064 -0.2974 -0.1270 -0.3378
   82MOL   C38247524   7.334   4.726   4.827  0.1518 -0.4640 -0.3208
   82MOL   O38347525   7.402   4.598   4.824  0.0661 -0.2316 -0.5183
   82MOL   C38447526   7.540   4.627   4.824 -0.0661  0.0560 -0.2807
   82MOL   C38547527   7.614   4.497   4.775  0.2441  0.5580  0.2029
   82MOL   C38647528   0.072   4.521   4.762 -0.0904 -0.0907  0.0251
   82MOL   O38747529   0.109   4.613   4.663 -0.5039  1.0638 -0.3950
   82MOL   C38847530   0.248   4.623   4.654  0.2851 -0.4337  0.2441
   82MOL   O38947531   0.306   4.519   4.569  0.7192 -0.0330  0.5150
   82MOL   C39047532   0.275   4.760   4.609 -0.4202 -0.8830  0.3383
   82MOL   O39147533   0.238   4.761   4.466  0.1248 -0.4028  0.2676
   82MOL   H39247534   7.143   4.546   4.882 -0.2071  1.3068 -1.2041
   82MOL   H39347535   7.216   4.505   5.017 -0.7057  0.3126  0.9704
   82MOL   H39447536   7.185   4.803   4.981  0.5278  0.9446 -0.7935
   82MOL   H39547537   7.412   4.667   5.036  1.3419  2.0727 -1.1432
   82MOL   H39647538   7.263   4.742   4.745 -0.1575 -0.1087  0.0126
   82MOL   H39747539   7.397   4.814   4.822  0.5248 -0.6864  0.4918
   82MOL   H39847540   7.585   4.665   4.915 -3.7515 -1.1747  2.1779
   82MOL   H39947541   7.566   4.699   4.746  0.1888  1.8278  1.4103
   82MOL   H40047542   7.579   4.456   4.681  0.6654 -0.9527  0.6982
   82MOL   H40147543   7.594   4.417   4.846 -0.2231  0.2164 -0.3156
   82MOL   H40247544   0.103   4.549   4.863  0.1423 -0.8081  0.1618
   82MOL   H40347545   0.111   4.421   4.740 -2.9115 -1.3225  0.4357
   82MOL   H40447546   0.287   4.616   4.755  0.6815  0.8145  0.1903
   82MOL   H40547547   0.316   4.560   4.484 -0.7282 -0.1928  0.2573
   82MOL   H40647548   0.207   4.822   4.667 -0.4576 -1.3640  0.8270
   82MOL   H40747549   0.377   4.792   4.631 -0.9531 -0.3550  2.1672
   82MOL   C40847550   0.236   4.889   4.402 -0.6890 -0.0948 -0.1035
   82MOL   C40947551   0.383   4.927   4.364 -0.1327 -0.4964  0.2695
   82MOL   O41047552   0.442   5.010   4.467 -0.3272  0.3229  0.3797
   82MOL   C41147553   0.396   5.010   4.231  0.2547 -0.1713 -0.4109
   82MOL   O41247554   0.530   5.032   4.206  0.0324 -0.8250  0.0226
   82MOL   C41347555   0.543   5.094   4.081 -0.3592  0.1280  0.0979
   82MOL   C41447556   0.699   5.114   4.045  0.5780  0.2285  0.5126
   82MOL   C41547557   0.720   5.179   3.910 -0.1661  0.0757 -0.2458
   82MOL   O41647558   0.705   5.318   3.933 -0.1849 -0.0941 -0.0312
   82MOL   C41747559   0.693   5.395   3.815  0.6131  0.3407 -0.0552
   82MOL   O41847560   0.806   5.377   3.729 -0.4906  0.0324 -0.0570
   82MOL   C41947561   0.686   5.548   3.845 -0.2852  0.8204  0.1048
   82MOL   O42047562   0.817   5.598   3.865 -0.5241  0.1083  0.5242
   82MOL   H42147563   0.207   4.960   4.479  0.9027  0.7018 -0.2184
   82MOL   H42247564   0.170   4.880   4.315 -0.3146 -0.8466 -0.3181
   82MOL   H42347565   0.436   4.836   4.337  0.5392  0.6057 -2.2953
   82MOL   H42447566   0.523   5.048   4.435  0.0413  2.8414  3.9402
   82MOL   H42547567   0.343   4.956   4.153 -0.1036  1.2058 -1.1119
   82MOL   H42647568   0.349   5.106   4.250  0.5517 -0.4555  1.9115
   82MOL   H42747569   0.493   5.032   4.006  2.7361 -1.5413 -0.6687
   82MOL   H42847570   0.498   5.193   4.077 -0.9668 -0.1979 -1.4721
   82MOL   H42947571   0.733   5.011   4.034 -1.0886 -0.3568  0.6402
   82MOL   H43047572   0.756   5.165   4.123  0.0817  1.4049  0.1198
   82MOL   H43147573   0.825   5.155   3.891 -0.0219 -0.6325  1.3912
   82MOL   H43247574   0.657   5.129   3.837  2.1603 -1.9344 -0.9341
   82MOL   H43347575   0.608   5.361   3.756  0.9345  0.4498 -0.5910
   82MOL   H43447576   0.864   5.449   3.746 -0.3234 -0.3385  0.9892
   82MOL   H43547577   0.633   5.600   3.765 -1.1643 -2.3432 -1.4722
   82MOL   H43647578   0.624   5.549   3.934  1.8550 -0.8728  1.6673
   82MOL   C43747579   0.829   5.740   3.881 -0.0447  0.0975  0.2253
   82MOL   C43847580   0.971   5.779   3.927  0.5117  0.4870  0.6117
   82MOL   O43947581   0.953   5.919   3.928  0.2099  0.0009 -0.1020
   82MOL   C44047582   1.079   5.747   3.819  0.2683  0.8687 -0.2367
   82MOL   O44147583   1.213   5.781   3.867  0.5958  0.2937  0.3470
   82MOL   C44247584   1.305   5.674   3.834  0.5981  1.0317  0.6774
   82MOL   C44347585   1.450   5.724   3.854 -0.1016 -0.7370 -0.5199
   82MOL   C44447586   1.550   5.619   3.825  0.3018  0.0453 -0.4793
   82MOL   O44547587   1.673   5.648   3.876  0.4898 -0.4425  0.1623
   82MOL   C44647588   1.761   5.541   3.881 -0.4673 -0.3018 -0.0865
   82MOL   O44747589   1.711   5.432   3.953  0.0399 -0.3332  0.0757
   82MOL   C44847590   1.895   5.581   3.938  0.0711 -0.2979 -0.0353
   82MOL   O44947591   1.881   5.610   4.078  0.2258 -0.3908 -0.3595
   82MOL   H45047592   0.796   5.786   3.788 -0.2334  0.5262  0.4996
   82MOL   H45147593   0.747   5.775   3.945 -1.6925 -0.8980 -1.3043
   82MOL   H45247594   0.996   5.737   4.024 -0.2842 -2.1024 -0.2834
   82MOL   H45347595   1.006   5.959   3.860 -0.0569  2.1691  0.9288
   82MOL   H45447596   1.063   5.641   3.803 -0.0910  0.5799  1.9244
   82MOL   H45547597   1.051   5.807   3.732  1.8175  0.3500 -1.1119
   82MOL   H45647598   1.304   5.645   3.729  0.6025 -1.1324  1.2428
   82MOL   H45747599   1.275   5.591   3.899 -1.6663  2.8510  2.0302
   82MOL   H45847600   1.455   5.756   3.959 -0.4165  0.8500 -0.9709
   82MOL   H45947601   1.466   5.812   3.791  0.4016  0.6926  1.5324
   82MOL   H46047602   1.513   5.526   3.868  0.7025  0.1732  0.1457
   82MOL   H46147603   1.546   5.592   3.720  2.4422  1.1797 -0.8710
   82MOL   H46247604   1.781   5.521   3.776  1.2627 -1.0397  0.3741
   82MOL   H46347605   1.690   5.451   4.043  1.0968  0.5909  0.1478
   82MOL   H46447606   1.952   5.490   3.921  0.9704  0.1527  0.5320
   82MOL   H46547607   1.934   5.668   3.887 -0.9505  0.7378  0.9189
   82MOL   C46647608   2.005   5.626   4.141 -0.7712  0.5385  0.0103
   82MOL   C46747609   1.977   5.691   4.281  0.6204  0.1388 -0.2854
   82MOL   O46847610   1.940   5.595   4.377 -0.7125 -0.2432  0.4940
   82MOL   C46947611   2.106   5.754   4.331 -0.6275  0.2887 -0.4940
   82MOL   O47047612   2.069   5.845   4.438 -0.6913 -0.2878 -0.2055
   82MOL   C47147613   2.182   5.919   4.479 -0.9173  0.2525 -0.4396
   82MOL   C47247614   2.157   5.996   4.606  0.4078  0.9948  0.1688
   82MOL   C47347615   2.259   6.102   4.644 -0.2400  0.8741  0.3711
   82MOL   O47447616   2.235   6.226   4.585 -0.1614 -0.3110 -0.2069
   82MOL   C47547617   2.327   6.257   4.485 -0.1717 -0.0905 -0.3864
   82MOL   O47647618   2.455   6.282   4.547 -0.0054 -0.3043  0.6021
   82MOL   C47747619   2.286   6.383   4.403  0.3611  0.0665 -0.0503
   82MOL   O47847620   2.231   6.338   4.279  0.5722 -0.4671  0.2025
   82MOL   H47947621   2.070   5.691   4.082  0.5218 -0.4562  0.3066
   82MOL   H48047622   2.067   5.537   4.152 -0.3408  0.7874 -0.3924
   82MOL   H48147623   1.903   5.770   4.289  0.4686 -0.2648  2.8131
   82MOL   H48247624   1.991   5.623   4.452  0.6350  0.5428 -0.6906
   82MOL   H48347625   2.171   5.675   4.368 -0.6412  0.8686  0.7881
   82MOL   H48447626   2.157   5.805   4.250 -0.1823 -0.2002 -0.5244
   82MOL   H48547627   2.209   5.990   4.401 -1.3673  0.2628 -0.5886
   82MOL   H48647628   2.261   5.845   4.495 -1.5483 -0.1911  0.7328
   82MOL   H48747629   2.152   5.918   4.682 -0.4720  1.0010  0.1208
   82MOL   H48847630   2.058   6.040   4.599 -0.2800 -0.3224  1.2346
   82MOL   H48947631   2.238   6.123   4.749  1.1870  1.8559  0.4678
   82MOL   H49047632   2.364   6.071   4.642 -0.0117  1.6929 -1.5954
   82MOL   H49147633   2.347   6.173   4.419  0.1879 -1.2852  1.2066
   82MOL   H49247634   2.450   6.359   4.601  0.7969 -0.1928  0.5204
   82MOL   H49347635   2.216   6.440   4.464 -1.3438 -0.4806 -1.4454
   82MOL   H49447636   2.366   6.453   4.382 -0.9810  1.3166 -1.0969
   82MOL   C49547637   2.123   6.411   4.221 -0.0899 -0.0499 -0.6386
   82MOL   C49647638   2.125   6.414   4.067 -0.6974  0.4236 -0.7106
   82MOL   O49747639   2.103   6.283   4.014  0.4950 -0.0087  0.4785
   82MOL   C49847640   2.010   6.497   4.002 -0.2692  0.1629 -0.3363
   82MOL   O49947641   1.883   6.448   4.046  0.0397 -0.5707 -0.2301
   82MOL   C50047642   1.776   6.504   3.980  0.1102 -0.4794 -0.2618
   82MOL   C50147643   1.647   6.429   4.001 -0.3476 -0.2023  0.5825
   82MOL   C50247644   1.539   6.508   3.925 -0.9557 -0.3637 -0.3820
   82MOL   O50347645   1.411   6.449   3.944  0.2089 -0.2882 -0.5067
   82MOL   C50447646   1.300   6.521   3.908  0.4814 -0.2148  0.6436
   82MOL   O50547647   1.297   6.633   3.990 -0.0524 -0.0836  0.2402
   82MOL   C50647648   1.167   6.444   3.935  0.1016  0.2191  0.0644
   82MOL   O50747649   1.142   6.342   3.840  0.7978  0.3324  0.4096
   82MOL   H50847650   2.122   6.518   4.244  1.1252  0.3057 -2.1617
   82MOL   H50947651   2.029   6.377   4.265 -0.4433  0.6427 -0.8416
   82MOL   H51047652   2.221   6.455   4.034 -0.5864  0.3970 -0.4200
   82MOL   H51147653   2.009   6.276   4.013  0.6254 -2.0961 -1.2179
   82MOL   H51247654   2.024   6.605   4.013  0.7922  0.0765 -0.7800
   82MOL   H51347655   2.024   6.476   3.896  2.9131  0.7308 -0.0691
   82MOL   H51447656   1.799   6.518   3.875  0.0726 -0.6039 -0.2867
   82MOL   H51547657   1.764   6.608   4.009 -4.0451 -1.2242  1.0758
   82MOL   H51647658   1.623   6.419   4.107  1.1558  0.3562  0.9823
   82MOL   H51747659   1.644   6.331   3.954 -0.7698  0.3417 -0.5201
   82MOL   H51847660   1.537   6.612   3.954  1.5276 -0.0807 -1.1233
   82MOL   H51947661   1.561   6.510   3.818  1.2234  0.7557  0.0780
   82MOL   H52047662   1.290   6.558   3.807 -0.2521 -0.9363  0.4445
   82MOL   H52147663   1.259   6.606   4.072  0.3932 -3.0204 -0.4647
   82MOL   H52247664   1.173   6.408   4.037  1.8685  0.0081 -0.0894
   82MOL   H52347665   1.081   6.511   3.938  0.3229  0.5074  0.0238
   82MOL   C52447666   1.230   6.234   3.823 -0.0479 -0.4117 -0.2969
   82MOL   C52547667   1.165   6.154   3.707  0.3882  0.5849  0.6896
   82MOL   O52647668   1.040   6.105   3.745  0.1223 -0.5586  0.1405
   82MOL   C52747669   1.242   6.036   3.642  0.0136 -0.9709  0.4200
   82MOL   O52847670   1.186   6.007   3.513 -0.2489 -0.5487 -0.1381
   82MOL   C52947671   1.246   5.897   3.441  0.6164  0.0398  0.9126
   82MOL   C53047672   1.213   5.902   3.287  0.2771  0.3202 -0.0893
   82MOL   C53147673   1.223   6.046   3.236 -0.4473 -0.1594  0.3154
   82MOL   O53247674   1.243   6.049   3.094  0.3195 -0.1505  0.3674
   82MOL   C53347675   1.269   6.182   3.047  0.4714  0.1522 -0.2736
   82MOL   O53447676   1.399   6.233   3.084 -0.2140  0.4079 -0.2209
   82MOL   C53547677   1.258   6.181   2.895 -0.4477  0.2943  0.2467
   82MOL   O53647678   1.122   6.224   2.856 -0.8637  0.0608 -0.0114
   82MOL   H53747679   1.235   6.179   3.917 -3.6217 -0.5316 -0.0872
   82MOL   H53847680   1.325   6.278   3.793  0.6422 -0.7577  1.3591
   82MOL   H53947681   1.154   6.227   3.627  2.3003  0.6134  0.4136
   82MOL   H54047682   1.002   6.164   3.809  0.6432 -0.2833  0.2022
   82MOL   H54147683   1.340   6.080   3.623 -1.0646  0.1780 -3.1028
   82MOL   H54247684   1.251   5.946   3.702  1.4695 -0.0628  1.5648
   82MOL   H54347685   1.212   5.803   3.483  0.9147  0.6054  2.4676
   82MOL   H54447686   1.355   5.902   3.447  0.5823  1.1532  0.8074
   82MOL   H54547687   1.118   5.859   3.254 -0.2862  1.5504 -0.0600
   82MOL   H54647688   1.285   5.836   3.237 -0.6880 -0.9229  0.1519
   82MOL   H54747689   1.136   6.105   3.262 -0.7668 -0.0859 -0.9059
   82MOL   H54847690   1.307   6.096   3.284 -1.5579 -0.0927  2.2141
   82MOL   H54947691   1.195   6.255   3.078  0.1807 -0.5966  0.8209
   82MOL   H55047692   1.460   6.217   3.014  1.6482 -0.3415  1.4986
   82MOL   H55147693   1.339   6.245   2.860  0.6971 -1.1332  0.2516
   82MOL   H55247694   1.286   6.081   2.862 -2.1956  0.6261 -2.4148
   82MOL   C55347695   1.101   6.199   2.713  0.5221  0.2959  0.3880
   82MOL   C55447696   0.988   6.294   2.685 -0.7620  0.0420  0.0431
   82MOL   O55547697   0.870   6.235   2.733 -0.5369 -0.1390  0.2151
   82MOL   C55647698   0.957   6.331   2.536 -0.5394  0.0998 -0.3879
   82MOL   O55747699   1.066   6.401   2.498  0.2928 -0.3794  0.2974
   82MOL   C55847700   1.059   6.486   2.385  0.1738 -0.3439  0.5476
   82MOL   C55947701   1.188   6.565   2.379  0.1779 -0.1039  0.4217
   82MOL   C56047702   1.185   6.700   2.459  0.2608 -0.0101  0.3403
   82MOL   O56147703   1.081   6.781   2.410 -0.5407 -0.0384  0.2122
   82MOL   C56247704   0.995   6.851   2.498  0.1479  0.3695 -0.2274
   82MOL   O56347705   1.071   6.954   2.574  0.4865  0.7415  0.2427
   82MOL   C56447706   0.894   6.925   2.416 -0.2987 -0.7519  0.6607
   82MOL   O56547707   0.941   7.048   2.352  0.1666  0.2464  0.0740
   82MOL   H56647708   1.065   6.099   2.692  0.8852 -0.3844  2.8535
   82MOL   H56747709   1.185   6.233   2.653  1.1331  1.1895  1.7197
   82MOL   H56847710   1.005   6.382   2.747 -0.3266  0.4767 -0.6865
   82MOL   H56947711   0.893   6.193   2.814  2.1377 -4.4126 -2.5552
   82MOL   H57047712   0.946   6.239   2.479 -2.2912  0.2162 -0.2581
   82MOL   H57147713   0.869   6.393   2.521 -0.2882  0.2528 -1.2847
   82MOL   H57247714   1.047   6.431   2.292 -0.2567  2.6913 -1.2657
   82MOL   H57347715   0.984   6.565   2.393 -0.5866 -1.2264  2.3394
   82MOL   H57447716   1.203   6.587   2.273 -0.1794 -3.5767 -0.4254
   82MOL   H57547717   1.277   6.506   2.401  1.4063  0.9757 -1.4805
   82MOL   H57647718   1.174   6.682   2.566 -0.8007  0.3128  0.2980
   82MOL   H57747719   1.277   6.759   2.453  0.7636 -0.6965  1.3107
   82MOL   H57847720   0.959   6.785   2.577  1.4426 -0.7417 -0.5407
   82MOL   H57947721   1.058   7.032   2.523 -3.9312  0.7914  1.2221
   82MOL   H58047722   0.861   6.870   2.327 -1.8171  1.0982  0.0495
   82MOL   H58147723   0.800   6.942   2.469  0.5046 -0.8000  2.1016
   82MOL   H58247724   0.993   7.023   2.278  2.1466 -0.1496  1.5434
   83MOL     C147725   4.808   5.929   3.324 -0.3257  0.0333  0.3395
   83MOL     C247726   4.733   5.831   3.414  0.1274  0.1757  0.2995
   83MOL     O347727   4.755   5.860   3.553 -0.4008 -0.0915 -0.0760
   83MOL     C447728   4.579   5.838   3.392 -0.2760  0.2771  0.5019
   83MOL     O547729   4.516   5.746   3.480  0.3967  0.0676 -0.0906
   83MOL     C647730   4.474   5.623   3.421 -0.0060 -0.8124  0.1346
   83MOL     C747731   4.391   5.531   3.509 -0.6076  0.4829  0.6120
   83MOL     C847732   4.327   5.424   3.417 -0.0646 -0.6026 -0.3025
   83MOL     O947733   4.255   5.332   3.500  0.9054 -0.1420 -0.2572
   83MOL    C1047734   4.174   5.245   3.424  0.0738  0.1333 -0.1391
   83MOL    O1147735   4.055   5.314   3.385 -0.2385 -0.3558 -0.4817
   83MOL    C1247736   4.143   5.121   3.508 -0.4784 -0.3220 -0.0683
   83MOL    O1347737   4.081   5.035   3.412  0.4481  0.1955  0.1581
   83MOL    H1447738   4.813   5.903   3.218  1.1964  1.0009  0.1466
   83MOL    H1547739   4.911   5.941   3.357 -0.1452 -1.5807  0.3687
   83MOL    H1647740   4.767   5.729   3.396  1.7774  0.7963 -0.1660
   83MOL    H1747741   4.712   5.792   3.603  1.2997 -1.4642 -0.4607
   83MOL    H1847742   4.537   5.935   3.420  1.5680  1.3128 -0.2066
   83MOL    H1947743   4.550   5.821   3.289 -0.5390 -1.6845  0.8784
   83MOL    H2047744   4.566   5.573   3.391 -0.4010 -1.4460 -0.0483
   83MOL    H2147745   4.422   5.635   3.326 -2.4195 -0.7958  1.4181
   83MOL    H2247746   4.316   5.593   3.558 -0.1860 -0.6168  2.7146
   83MOL    H2347747   4.445   5.495   3.596  3.5046  2.0567 -1.1344
   83MOL    H2447748   4.268   5.467   3.336  1.3059  0.9575 -0.4908
   83MOL    H2547749   4.409   5.373   3.364 -0.0603 -0.3732 -0.5185
   83MOL    H2647750   4.221   5.209   3.332  0.5644 -1.5106  0.7383
   83MOL    H2747751   4.016   5.271   3.311 -0.5759 -0.1387 -0.4295
   83MOL    H2847752   4.238   5.070   3.525 -0.1081 -0.0962 -1.3904
   83MOL    H2947753   4.093   5.145   3.602  0.4041 -1.1443  0.6263
   83MOL    H3047754   4.756   6.024   3.341 -0.2993  0.1250 -0.0871
   83MOL    C3147755   4.006   4.930   3.477 -0.3114 -0.3927  0.0017
   83MOL    C3247756   3.975   4.824   3.372  0.3904  0.1696  0.6971
   83MOL    O3347757   3.883   4.894   3.286  0.2852  1.0612  0.0641
   83MOL    C3447758   3.914   4.698   3.430 -0.1200  0.4640 -1.0263
   83MOL    O3547759   3.793   4.739   3.492  0.0955  0.0431 -0.3533
   83MOL    C3647760   3.707   4.628   3.513  0.2237 -0.3116  0.0409
   83MOL    C3747761   3.589   4.690   3.594  0.2097 -0.0891  0.1425
   83MOL    C3847762   3.503   4.584   3.670  0.5981 -0.2152  0.3779
   83MOL    O3947763   3.576   4.527   3.780 -0.0823  0.0928 -0.3378
   83MOL    C4047764   3.569   4.593   3.904  0.5417  0.8139 -0.7393
   83MOL    O4147765   3.652   4.705   3.920 -0.0018  0.4013 -0.2480
   83MOL    C4247766   3.619   4.488   4.002 -0.4227  0.1234 -0.7373
   83MOL    O4347767   3.749   4.453   3.973 -0.5209  0.0950  0.9211
   83MOL    H4447768   4.065   4.889   3.559 -1.5955 -0.1546  1.0654
   83MOL    H4547769   3.912   4.954   3.527  1.2773  3.7197  1.1494
   83MOL    H4647770   4.065   4.793   3.319 -0.6279 -2.1620  0.2922
   83MOL    H4747771   3.809   4.880   3.343  0.6607  1.9455  0.7739
   83MOL    H4847772   3.903   4.619   3.356  0.0853 -0.6281  0.0857
   83MOL    H4947773   3.976   4.653   3.507 -1.0314  1.1299  0.1142
   83MOL    H5047774   3.757   4.556   3.577 -2.9019 -3.6394 -1.0902
   83MOL    H5147775   3.689   4.585   3.415  1.2124 -0.1269 -0.2248
   83MOL    H5247776   3.531   4.745   3.521  1.1278 -1.3926 -1.5914
   83MOL    H5347777   3.624   4.764   3.666  0.3801 -0.3223  0.3016
   83MOL    H5447778   3.407   4.618   3.707  1.1377  0.1307  1.4882
   83MOL    H5547779   3.475   4.505   3.601  2.1826  0.2178 -0.8096
   83MOL    H5647780   3.465   4.622   3.921  0.0691 -1.6109  0.8312
   83MOL    H5747781   3.743   4.686   3.904  0.6252  1.4675  1.8615
   83MOL    H5847782   3.606   4.539   4.098 -0.9713  2.8218 -2.1859
   83MOL    H5947783   3.557   4.399   3.998 -2.1196  1.3243 -1.6733
   83MOL    C6047784   3.821   4.357   4.061 -0.3563  0.0071  1.0508
   83MOL    C6147785   3.966   4.335   4.007  0.3362 -0.1742 -0.1300
   83MOL    O6247786   4.040   4.452   4.012 -0.0097 -0.3958 -0.0918
   83MOL    C6347787   3.961   4.294   3.861 -0.6074 -0.3172 -0.3583
   83MOL    O6447788   4.089   4.244   3.824 -0.2595 -0.3017 -0.1295
   83MOL    C6547789   4.112   4.203   3.690  0.1803 -0.5524  0.3129
   83MOL    C6647790   4.248   4.134   3.693  0.2884 -0.0418 -0.4345
   83MOL    C6747791   4.357   4.232   3.732 -0.2841  0.3211  0.3630
   83MOL    O6847792   4.483   4.169   3.705  0.1747  0.6381 -0.0250
   83MOL    C6947793   4.597   4.251   3.685 -0.0192 -0.1194 -0.7250
   83MOL    O7047794   4.624   4.344   3.784 -0.7673  0.4470 -0.4944
   83MOL    C7147795   4.713   4.160   3.658  0.1065 -0.1381 -0.6410
   83MOL    O7247796   4.729   4.080   3.770 -0.3102 -0.0336  0.3172
   83MOL    H7347797   3.770   4.262   4.075 -0.2946 -0.1579  0.1165
   83MOL    H7447798   3.820   4.402   4.161 -2.1601 -0.5589  1.3199
   83MOL    H7547799   4.021   4.254   4.056 -0.0480 -1.5906 -1.9669
   83MOL    H7647800   4.103   4.435   3.943 -1.3449  0.2185 -1.4991
   83MOL    H7747801   3.890   4.213   3.848 -0.0355 -0.5401 -2.2178
   83MOL    H7847802   3.944   4.380   3.797  0.7188 -1.1907 -1.9270
   83MOL    H7947803   4.114   4.291   3.626  0.6376 -0.9355 -0.2059
   83MOL    H8047804   4.037   4.135   3.650 -0.0393 -0.3194  0.3280
   83MOL    H8147805   4.267   4.091   3.595  5.2245  0.9843 -0.0297
   83MOL    H8247806   4.239   4.052   3.764  2.7494 -1.7584 -2.0295
   83MOL    H8347807   4.344   4.262   3.836 -3.6369  1.2178 -0.2708
   83MOL    H8447808   4.354   4.326   3.677 -1.4263 -0.0462 -0.2145
   83MOL    H8547809   4.568   4.316   3.602  0.7895  0.4937 -0.5303
   83MOL    H8647810   4.647   4.296   3.862  1.5765  1.5546 -0.4767
   83MOL    H8747811   4.696   4.107   3.564 -1.3414 -1.2238  0.1991
   83MOL    H8847812   4.804   4.215   3.635  0.0768  1.4423  2.7298
   83MOL    C8947813   4.855   4.010   3.771  0.5382  0.3670  0.0976
   83MOL    C9047814   4.873   3.976   3.923 -0.5314  0.0324  0.4357
   83MOL    O9147815   4.878   4.103   3.996 -0.6366 -0.3127  0.0707
   83MOL    C9247816   4.766   3.878   3.978  0.1508 -0.5008  0.0534
   83MOL    O9347817   4.774   3.762   3.903 -1.0213 -0.5839 -0.2414
   83MOL    C9447818   4.685   3.660   3.937  0.1855  0.1695  0.2373
   83MOL    C9547819   4.751   3.549   4.013  0.3708  1.1750 -0.1742
   83MOL    C9647820   4.662   3.424   4.034  0.6625  0.4386 -0.0149
   83MOL    O9747821   4.737   3.324   4.104  0.0682 -0.1747 -0.3360
   83MOL    C9847822   4.679   3.200   4.141 -0.4629 -0.0290  0.4890
   83MOL    O9947823   4.776   3.102   4.188 -0.0275  0.3837  0.1964
   83MOL   C10047824   4.566   3.204   4.241  1.0090 -0.1226 -0.1655
   83MOL   O10147825   4.453   3.256   4.175 -0.0488 -0.2515 -0.4496
   83MOL   H10247826   4.940   4.076   3.756 -1.0660  3.1353  2.6729
   83MOL   H10347827   4.861   3.927   3.700 -1.5059 -0.0166  0.3404
   83MOL   H10447828   4.969   3.925   3.925 -0.6665 -0.2416  0.0594
   83MOL   H10547829   4.788   4.124   4.017 -1.2843 -2.2969 -0.5942
   83MOL   H10647830   4.791   3.849   4.080  0.7080  0.8189  0.2932
   83MOL   H10747831   4.667   3.922   3.969 -0.0536 -0.4300  2.3911
   83MOL   H10847832   4.646   3.616   3.845 -0.5348  1.1971  0.0436
   83MOL   H10947833   4.600   3.704   3.990 -1.0448 -0.5452 -1.0902
   83MOL   H11047834   4.780   3.581   4.113 -3.0541  1.1216  0.8998
   83MOL   H11147835   4.848   3.526   3.969 -0.9301 -1.0228 -2.0361
   83MOL   H11247836   4.571   3.448   4.090  1.0948  2.4408 -0.1266
   83MOL   H11347837   4.605   3.388   3.949 -1.0606  1.5716  0.6105
   83MOL   H11447838   4.640   3.155   4.050 -1.7491  2.3347 -0.1721
   83MOL   H11547839   4.813   3.130   4.271  2.1781 -1.7582 -0.0434
   83MOL   H11647840   4.550   3.103   4.279  1.5979 -0.3166 -0.4243
   83MOL   H11747841   4.588   3.265   4.328 -0.9299  2.3584 -1.3258
   83MOL   C11847842   4.324   3.245   4.231 -0.2996 -0.5421  0.5678
   83MOL   C11947843   4.218   3.295   4.135  0.0245  0.0728 -0.8766
   83MOL   O12047844   4.184   3.193   4.049 -0.1009  0.7206 -0.3106
   83MOL   C12147845   4.253   3.421   4.052 -0.2373 -0.0076 -0.4932
   83MOL   O12247846   4.118   3.467   4.008 -0.2742 -0.4609 -0.3065
   83MOL   C12347847   4.129   3.560   3.904  0.0938 -0.3687  0.0805
   83MOL   C12447848   3.984   3.612   3.887  0.1188  0.6469 -0.0881
   83MOL   C12547849   3.964   3.739   3.802  0.0449 -0.4475  0.0385
   83MOL   O12647850   3.986   3.710   3.664 -0.1018  0.5506  0.1378
   83MOL   C12747851   3.983   3.821   3.577  0.0069 -0.6113  0.2076
   83MOL   O12847852   3.854   3.863   3.556  0.4954  0.5222 -0.0344
   83MOL   C12947853   4.037   3.775   3.442  0.2239 -0.0026  0.2433
   83MOL   O13047854   4.137   3.867   3.390  0.4157  0.7923 -0.2501
   83MOL   H13147855   4.299   3.145   4.268  1.4699 -0.1620  2.9312
   83MOL   H13247856   4.318   3.304   4.323  0.6080 -0.2532  0.4426
   83MOL   H13347857   4.127   3.316   4.192 -0.6310 -1.3718 -1.3590
   83MOL   H13447858   4.266   3.148   4.033  0.3522  1.3676  0.1514
   83MOL   H13547859   4.299   3.510   4.097  1.5897 -0.7778 -0.8131
   83MOL   H13647860   4.319   3.390   3.972  1.0053 -0.7048  0.7768
   83MOL   H13747861   4.160   3.510   3.812  2.5162 -0.0252  0.6704
   83MOL   H13847862   4.208   3.629   3.934  0.2038 -1.1724  1.6551
   83MOL   H13947863   3.943   3.636   3.985  0.9690 -2.1336  0.9889
   83MOL   H14047864   3.917   3.537   3.846  1.6340  1.0539 -3.4955
   83MOL   H14147865   3.871   3.795   3.803 -0.5348 -1.3467 -1.5511
   83MOL   H14247866   4.037   3.813   3.833  0.5961 -1.1071  0.3406
   83MOL   H14347867   4.033   3.906   3.622 -1.7536  0.5984 -0.0715
   83MOL   H14447868   3.839   3.942   3.605 -2.4370 -1.4332  2.4139
   83MOL   H14547869   4.076   3.675   3.456 -0.4316 -0.0365  1.9623
   83MOL   H14647870   3.957   3.759   3.370 -0.7087  4.1830  0.1948
   83MOL   C14747871   4.183   3.829   3.261  0.0454 -0.3059 -0.1997
   83MOL   C14847872   4.338   3.839   3.282 -0.2189  0.3620 -0.2434
   83MOL   O14947873   4.400   3.875   3.160 -0.8226 -0.4183 -0.2410
   83MOL   C15047874   4.415   3.723   3.347  0.5700 -0.3542 -0.2512
   83MOL   O15147875   4.380   3.611   3.272  0.3063  0.0540 -0.0875
   83MOL   C15247876   4.418   3.477   3.327  0.1848  0.2293  0.0535
   83MOL   C15347877   4.446   3.383   3.211 -0.3009 -0.5400 -0.3450
   83MOL   C15447878   4.498   3.241   3.250 -0.0014 -0.1664 -0.1037
   83MOL   O15547879   4.509   3.180   3.124  0.0823  0.0090 -0.1551
   83MOL   C15647880   4.607   3.077   3.104  0.7427  0.5968  0.0141
   83MOL   O15747881   4.738   3.119   3.134 -0.4391  0.1615  0.0949
   83MOL   C15847882   4.613   3.044   2.956 -0.3074  1.2915  0.7927
   83MOL   O15947883   4.659   3.159   2.887 -0.1250 -0.4648  0.1352
   83MOL   H16047884   4.160   3.899   3.181 -1.5438 -0.9285 -0.3110
   83MOL   H16147885   4.145   3.730   3.234 -0.7270 -0.5670  1.7750
   83MOL   H16247886   4.364   3.922   3.348  1.1718  2.0360 -2.8316
   83MOL   H16347887   4.401   3.794   3.111  0.7225 -0.3684 -0.3037
   83MOL   H16447888   4.522   3.746   3.349  0.5165 -0.0512 -0.7555
   83MOL   H16547889   4.378   3.713   3.449  1.8068 -1.1574  0.1246
   83MOL   H16647890   4.337   3.448   3.394 -0.6976  1.0189 -0.6619
   83MOL   H16747891   4.510   3.476   3.386 -0.1484  1.8986  0.6258
   83MOL   H16847892   4.526   3.432   3.156  0.2103  0.7813  1.5368
   83MOL   H16947893   4.361   3.378   3.143 -0.3528 -0.9854 -0.2504
   83MOL   H17047894   4.596   3.270   3.288  0.3366 -0.1872 -0.9607
   83MOL   H17147895   4.430   3.193   3.321 -0.6455  2.2788  1.0002
   83MOL   H17247896   4.568   3.004   3.174  1.9611  0.0464  0.1232
   83MOL   H17347897   4.781   3.161   3.061 -0.4052 -2.4032 -1.4279
   83MOL   H17447898   4.669   2.951   2.944 -1.4819  0.7374 -0.5382
   83MOL   H17547899   4.516   3.005   2.923  1.4299 -0.5898 -2.2861
   83MOL   C17647900   4.618   3.170   2.755  0.2309 -0.5250 -0.1137
   83MOL   C17747901   4.602   3.315   2.708 -0.5676  0.2271 -0.0010
   83MOL   O17847902   4.732   3.369   2.708  0.2524  0.3425 -0.3182
   83MOL   C17947903   4.512   3.394   2.803 -0.1256  0.0473 -0.7046
   83MOL   O18047904   4.485   3.528   2.748  0.4871 -0.1893  0.4556
   83MOL   C18147905   4.385   3.592   2.823  1.6455 -0.1907  0.3078
   83MOL   C18247906   4.330   3.720   2.759 -0.2279 -0.4822  0.5848
   83MOL   C18347907   4.260   3.796   2.872  0.1102  0.4920  0.4610
   83MOL   O18447908   4.191   3.917   2.830  0.6903 -0.2617  0.3912
   83MOL   C18547909   4.116   3.990   2.919 -0.4096 -0.7030 -0.2688
   83MOL   O18647910   4.019   3.918   2.985  0.0051 -0.3114  0.6222
   83MOL   C18747911   4.049   4.111   2.854  0.1484  0.2670  0.0195
   83MOL   O18847912   3.961   4.065   2.753  0.4347 -0.3708  0.1970
   83MOL   H18947913   4.515   3.135   2.747  0.0951 -0.0416 -0.5126
   83MOL   H19047914   4.664   3.105   2.680  1.7009  0.3204  0.0316
   83MOL   H19147915   4.551   3.314   2.611 -1.3484  0.1358  0.4065
   83MOL   H19247916   4.727   3.462   2.729 -1.2773  0.3202 -0.5208
   83MOL   H19347917   4.420   3.337   2.816 -0.0837  0.1137 -0.1156
   83MOL   H19447918   4.562   3.395   2.899 -1.8679 -0.5819  0.2291
   83MOL   H19547919   4.418   3.605   2.926  1.1647  1.5142  0.2716
   83MOL   H19647920   4.298   3.528   2.834  0.2208  1.8096  0.8937
   83MOL   H19747921   4.269   3.688   2.674  1.3400 -0.4407 -0.5819
   83MOL   H19847922   4.409   3.784   2.720  0.4277 -0.7892  1.3908
   83MOL   H19947923   4.183   3.731   2.914 -1.4131  0.4642 -2.2317
   83MOL   H20047924   4.337   3.810   2.947 -1.0872  0.1691  1.7899
   83MOL   H20147925   4.191   4.015   2.993 -0.0857 -1.7403 -0.2422
   83MOL   H20247926   3.940   3.921   2.933 -0.6491  1.4340  1.6612
   83MOL   H20347927   3.992   4.174   2.922 -0.5291  0.6975 -0.9401
   83MOL   H20447928   4.121   4.177   2.805 -1.4688 -0.1026 -2.9068
   83MOL   C20547929   3.893   4.178   2.703  0.4186 -0.1199 -0.0063
   83MOL   C20647930   3.794   4.115   2.602 -0.5176 -0.4133 -0.1039
   83MOL   O20747931   3.680   4.075   2.666  0.3368 -0.3460  0.4799
   83MOL   C20847932   3.746   4.220   2.498 -0.0980  0.2374  0.0845
   83MOL   O20947933   3.849   4.227   2.397  0.6875 -0.0318  0.2652
   83MOL   C21047934   3.803   4.302   2.283 -0.8724 -0.1501  0.2462
   83MOL   C21147935   3.925   4.295   2.187  0.4141  0.3704  0.3143
   83MOL   C21247936   3.961   4.152   2.146  0.3141 -0.3310  0.7372
   83MOL   O21347937   4.086   4.174   2.087 -0.5607  0.0406  0.1057
   83MOL   C21447938   4.151   4.066   2.034  0.9718  0.1658 -0.7251
   83MOL   O21547939   4.203   3.981   2.135 -0.6417  0.0716 -0.3575
   83MOL   C21647940   4.268   4.114   1.948 -0.4184 -0.0095  0.4190
   83MOL   O21747941   4.327   4.221   2.023 -0.4838 -0.0293  0.2609
   83MOL   H21847942   3.960   4.254   2.661 -0.1098  0.6785  0.5843
   83MOL   H21947943   3.840   4.229   2.783 -0.7047 -1.9466  0.4256
   83MOL   H22047944   3.840   4.031   2.550  1.6195 -0.3582  1.6276
   83MOL   H22147945   3.707   4.006   2.724  0.8840 -1.7901 -1.4677
   83MOL   H22247946   3.650   4.192   2.453 -1.1054  0.5786  1.9508
   83MOL   H22347947   3.734   4.317   2.546 -1.5973 -0.1161  0.4631
   83MOL   H22447948   3.807   4.403   2.325 -1.5696  0.1612 -0.4267
   83MOL   H22547949   3.712   4.263   2.238 -0.5711 -0.9006  0.2849
   83MOL   H22647950   4.010   4.336   2.242  0.5612 -0.4868  0.7308
   83MOL   H22747951   3.903   4.348   2.094  0.5663 -2.4347 -1.3963
   83MOL   H22847952   3.968   4.087   2.234 -0.7449  0.2436  1.2524
   83MOL   H22947953   3.875   4.123   2.086 -0.7341 -0.6716  2.3758
   83MOL   H23047954   4.087   4.004   1.971  1.4081 -0.4596 -0.5618
   83MOL   H23147955   4.259   4.037   2.186  2.5980 -1.3628 -2.1433
   83MOL   H23247956   4.341   4.038   1.921  0.7027  0.7416  1.3064
   83MOL   H23347957   4.233   4.150   1.851  1.8525 -0.5987 -0.6775
   83MOL   C23447958   4.427   4.298   1.968  0.0122  0.4104 -0.1989
   83MOL   C23547959   4.460   4.403   2.075 -0.3516 -0.2536  0.0508
   83MOL   O23647960   4.480   4.341   2.202 -0.3340 -0.6663 -0.1842
   83MOL   C23747961   4.356   4.505   2.092  0.3775 -0.3860  0.4176
   83MOL   O23847962   4.362   4.593   1.980 -0.6239 -0.5842  0.1206
   83MOL   C23947963   4.234   4.651   1.957 -0.1719  0.3586  0.4794
   83MOL   C24047964   4.135   4.546   1.898 -0.2665 -0.2278 -0.2815
   83MOL   C24147965   3.998   4.613   1.874 -0.4419  0.4507 -0.2485
   83MOL   O24247966   3.947   4.647   2.002  0.1606 -0.0378 -0.5835
   83MOL   C24347967   3.834   4.724   1.998  0.6544  0.0331 -0.4811
   83MOL   O24447968   3.843   4.847   1.924  0.1443  0.2016 -0.6510
   83MOL   C24547969   3.793   4.743   2.143 -0.3182 -0.1552 -0.3537
   83MOL   O24647970   3.901   4.806   2.202 -0.3415  0.4009 -0.2654
   83MOL   H24747971   4.518   4.244   1.942 -1.5675 -0.5650 -3.9811
   83MOL   H24847972   4.397   4.352   1.878 -0.3456  0.3838 -0.0983
   83MOL   H24947973   4.556   4.453   2.065 -1.3670  1.8796  0.8390
   83MOL   H25047974   4.428   4.262   2.198  0.6547 -1.2687 -1.5146
   83MOL   H25147975   4.261   4.451   2.101  0.3654 -0.6424 -1.1204
   83MOL   H25247976   4.367   4.567   2.181  1.7378 -1.2554  0.8638
   83MOL   H25347977   4.237   4.738   1.891 -2.4924 -0.4946 -0.8268
   83MOL   H25447978   4.195   4.688   2.052 -2.4835 -0.7241 -0.0216
   83MOL   H25547979   4.129   4.458   1.962 -2.6058  0.2966  0.2666
   83MOL   H25647980   4.168   4.516   1.798 -0.5439 -1.5949  0.0203
   83MOL   H25747981   4.003   4.704   1.814  2.6993  1.3798  1.3349
   83MOL   H25847982   3.930   4.548   1.819 -1.0700  1.1013 -0.2423
   83MOL   H25947983   3.752   4.675   1.947  0.6091 -0.4414  0.0476
   83MOL   H26047984   3.888   4.910   1.978 -0.5068  1.4521 -1.5272
   83MOL   H26147985   3.703   4.802   2.159 -0.2233 -0.3815  1.1357
   83MOL   H26247986   3.767   4.641   2.170 -0.4603  0.0409  0.2722
   83MOL   C26347987   3.883   4.834   2.343  0.1309  0.4965  0.5972
   83MOL   C26447988   3.912   4.710   2.436  0.2903 -1.3099  0.4233
   83MOL   O26547989   3.794   4.635   2.437 -0.3677  0.5368 -0.2724
   83MOL   C26647990   4.030   4.627   2.388  0.7365  0.0073 -0.0131
   83MOL   O26747991   4.080   4.570   2.504 -0.4761  0.2587  1.1946
   83MOL   C26847992   4.164   4.455   2.480 -0.5550  0.3417 -0.5418
   83MOL   C26947993   4.244   4.409   2.610  0.6554  0.1954 -0.5999
   83MOL   C27047994   4.304   4.270   2.588  0.0589 -0.0929  0.6485
   83MOL   O27147995   4.203   4.176   2.568 -0.2747 -0.1765  0.3230
   83MOL   C27247996   4.264   4.056   2.534  0.2489 -0.2035 -0.0848
   83MOL   O27347997   4.339   4.009   2.647 -0.1808 -0.2790 -0.4488
   83MOL   C27447998   4.151   3.960   2.488  0.2937  0.1835 -0.2872
   83MOL   O27547999   4.204   3.849   2.427 -0.1057  0.0794  0.0599
   83MOL   H27648000   3.780   4.867   2.360 -1.3323 -3.1602 -0.5508
   83MOL   H27748001   3.952   4.913   2.373 -0.0634  0.6680  0.5881
   83MOL   H27848002   3.931   4.746   2.537  0.9711  3.3437 -1.2395
   83MOL   H27948003   3.810   4.566   2.500 -0.8936  0.3339 -0.3606
   83MOL   H28048004   3.997   4.567   2.303 -3.8230  3.4155 -0.8711
   83MOL   H28148005   4.109   4.686   2.342 -0.2001  0.1567 -1.4683
   83MOL   H28248006   4.242   4.484   2.410  1.8179 -1.4459  1.2834
   83MOL   H28348007   4.095   4.373   2.458  1.5573 -1.3244 -1.0858
   83MOL   H28448008   4.187   4.415   2.703 -1.5467  0.1551 -1.8971
   83MOL   H28548009   4.319   4.484   2.633 -1.2540  1.8811  0.3515
   83MOL   H28648010   4.379   4.269   2.509 -0.9895  0.1358 -0.3654
   83MOL   H28748011   4.355   4.250   2.682  2.9983  2.5373 -0.2682
   83MOL   H28848012   4.336   4.069   2.453  1.9680 -1.0647  1.2696
   83MOL   H28948013   4.281   3.990   2.719  1.4435 -0.0961  0.9482
   83MOL   H29048014   4.091   3.948   2.578 -0.0481  0.2801 -0.5014
   83MOL   H29148015   4.080   4.015   2.427 -0.6640  0.4675  1.0807
   83MOL   C29248016   4.107   3.745   2.419 -0.8730  0.7635  0.0469
   83MOL   C29348017   3.978   3.775   2.342 -0.2714 -0.4020 -0.1853
   83MOL   O29448018   4.013   3.786   2.201  0.3376  0.2341 -0.1423
   83MOL   C29548019   3.884   3.655   2.350  0.7214  0.2287 -1.2110
   83MOL   O29648020   3.823   3.655   2.479 -0.4938 -0.2567 -0.2694
   83MOL   C29748021   3.717   3.570   2.505  0.2200 -0.0319  0.1449
   83MOL   C29848022   3.679   3.594   2.654  0.1367 -0.3040  1.0470
   83MOL   C29948023   3.663   3.739   2.702 -0.8311  0.6479 -0.2155
   83MOL   O30048024   3.618   3.723   2.836 -0.1883 -0.4506 -0.5087
   83MOL   C30148025   3.700   3.783   2.936  0.1947  0.2953  0.0013
   83MOL   O30248026   3.715   3.924   2.922 -0.4313 -1.0066 -0.0516
   83MOL   C30348027   3.640   3.756   3.073  0.0253  0.3029  0.2694
   83MOL   O30448028   3.648   3.617   3.112  0.4028  0.4736 -0.3112
   83MOL   H30548029   4.145   3.657   2.367 -2.7695  0.8289 -1.4950
   83MOL   H30648030   4.085   3.711   2.520 -2.2021 -0.4386 -0.6275
   83MOL   H30748031   3.933   3.870   2.372 -1.1411 -0.9005  0.0956
   83MOL   H30848032   4.089   3.842   2.198  0.3848  0.2640  1.3464
   83MOL   H30948033   3.800   3.652   2.280  1.0719 -0.1664 -1.6171
   83MOL   H31048034   3.925   3.555   2.341 -1.6257 -1.1481  2.4674
   83MOL   H31148035   3.740   3.465   2.489  2.0266  0.1444  1.3395
   83MOL   H31248036   3.638   3.606   2.440  1.2648  1.1900 -0.4710
   83MOL   H31348037   3.757   3.544   2.710 -0.7258  0.8850  3.3793
   83MOL   H31448038   3.591   3.534   2.678 -1.0469  1.4476  1.1609
   83MOL   H31548039   3.756   3.795   2.694  0.3916 -1.3331 -0.0842
   83MOL   H31648040   3.593   3.785   2.632  0.9637 -0.6865 -2.9318
   83MOL   H31748041   3.794   3.729   2.930 -0.3638 -0.8668  1.3506
   83MOL   H31848042   3.661   3.956   2.993  0.9489 -0.9092  0.9817
   83MOL   H31948043   3.543   3.805   3.079  0.5553  1.2485  1.1325
   83MOL   H32048044   3.702   3.815   3.141  0.4114  0.9789 -0.6522
   83MOL   C32148045   3.599   3.588   3.243  0.4260  0.3145 -0.2559
   83MOL   C32248046   3.698   3.638   3.349 -0.2143  0.0154 -0.0322
   83MOL   O32348047   3.665   3.774   3.382  0.1772  0.3387  0.3448
   83MOL   C32448048   3.709   3.550   3.475 -0.0926 -0.0439 -0.4632
   83MOL   O32548049   3.576   3.531   3.529  0.2906  0.0685  0.1822
   83MOL   C32648050   3.572   3.552   3.670 -0.2523 -0.5152  0.4451
   83MOL   C32748051   3.582   3.700   3.710 -0.3978  0.0330 -0.2432
   83MOL   C32848052   3.542   3.739   3.858 -0.4020 -0.6689 -0.2622
   83MOL   O32948053   3.559   3.878   3.865  0.0964  0.1107  0.0361
   83MOL   C33048054   3.530   3.931   3.990 -0.1229  0.6455 -0.0865
   83MOL   O33148055   3.644   3.917   4.082  0.3173  0.2587  0.2578
   83MOL   C33248056   3.497   4.079   3.971  0.0911 -0.0052  0.3342
   83MOL   O33348057   3.591   4.142   3.875  0.4363  0.3131 -0.5713
   83MOL   H33448058   3.599   3.481   3.260 -0.7598  0.3604  0.0905
   83MOL   H33548059   3.494   3.608   3.265  0.1080  0.0561 -1.5172
   83MOL   H33648060   3.797   3.632   3.302  0.0290 -2.1024  0.6769
   83MOL   H33748061   3.726   3.818   3.439  1.3341 -0.8081  0.0233
   83MOL   H33848062   3.777   3.589   3.550  1.9739  0.3767 -2.4856
   83MOL   H33948063   3.730   3.446   3.449 -1.9160 -0.4547 -0.4146
   83MOL   H34048064   3.653   3.500   3.719  2.2363  2.4392 -0.3624
   83MOL   H34148065   3.481   3.514   3.718 -0.4051 -0.6853  0.0176
   83MOL   H34248066   3.674   3.756   3.692 -0.6177  1.6690  3.2747
   83MOL   H34348067   3.511   3.754   3.647 -0.6497  0.2896  0.2653
   83MOL   H34448068   3.442   3.709   3.888 -1.0686  0.4508 -1.3094
   83MOL   H34548069   3.622   3.697   3.919  0.2199  0.6153 -0.1748
   83MOL   H34648070   3.450   3.882   4.046  1.2912 -0.8022  0.7106
   83MOL   H34748071   3.630   3.839   4.134 -0.5233  0.3664  0.1857
   83MOL   H34848072   3.396   4.092   3.931  1.2316  0.9327 -2.3610
   83MOL   H34948073   3.517   4.133   4.063  1.8329  0.6731 -0.4355
   83MOL   C35048074   3.550   4.170   3.746  0.0748  0.2617 -0.3878
   83MOL   C35148075   3.670   4.193   3.664 -0.2954 -0.2647  0.1137
   83MOL   O35248076   3.742   4.078   3.696  0.0962 -0.2158  0.0166
   83MOL   C35348077   3.643   4.181   3.519 -0.4859 -0.6782  1.3023
   83MOL   O35448078   3.764   4.212   3.447  0.0915 -0.8849 -0.6671
   83MOL   C35548079   3.755   4.180   3.314  0.5203 -0.4932  0.0775
   83MOL   C35648080   3.896   4.165   3.238  0.6961 -0.4313 -0.4846
   83MOL   C35748081   3.987   4.276   3.257 -0.3545 -0.1935 -0.6204
   83MOL   O35848082   4.095   4.280   3.153  0.2388 -0.2973 -0.6888
   83MOL   C35948083   4.212   4.354   3.191 -0.2615  0.0032 -0.1445
   83MOL   O36048084   4.270   4.305   3.308  0.1474 -0.1883 -0.3714
   83MOL   C36148085   4.305   4.357   3.070  0.8014 -0.1683 -1.0633
   83MOL   O36248086   4.380   4.479   3.073 -0.4388  0.4452 -0.0231
   83MOL   H36348087   3.501   4.267   3.739  1.6825  1.0328 -1.4330
   83MOL   H36448088   3.489   4.095   3.697 -0.1104 -1.0345  1.7873
   83MOL   H36548089   3.721   4.283   3.701 -3.0915  1.3642  0.1297
   83MOL   H36648090   3.712   4.053   3.782 -0.7834 -0.0990 -0.2480
   83MOL   H36748091   3.605   4.081   3.499  0.1220 -0.7361  0.4115
   83MOL   H36848092   3.556   4.244   3.501  0.1318  0.3180  1.7118
   83MOL   H36948093   3.702   4.260   3.262 -1.3118 -1.3900  0.5226
   83MOL   H37048094   3.696   4.090   3.297 -1.5670  0.4880  1.8228
   83MOL   H37148095   3.874   4.160   3.132  0.4733  1.5795 -0.5608
   83MOL   H37248096   3.945   4.072   3.266  2.3112 -0.3642 -2.9872
   83MOL   H37348097   3.924   4.364   3.241  0.9210  0.8311 -0.1535
   83MOL   H37448098   4.030   4.277   3.357 -0.8275 -0.4241 -0.4159
   83MOL   H37548099   4.178   4.453   3.223  0.9672  0.5468 -0.4551
   83MOL   H37648100   4.318   4.231   3.273 -0.2270  0.2608 -1.8625
   83MOL   H37748101   4.377   4.277   3.083  3.1095  1.9459 -0.4227
   83MOL   H37848102   4.255   4.339   2.974  2.2010  1.2422 -2.0898
   83MOL   C37948103   4.427   4.528   2.949 -0.2850  0.0528  0.1663
   83MOL   C38048104   4.570   4.557   2.961  0.2365 -0.3741 -1.0086
   83MOL   O38148105   4.635   4.435   2.993 -0.1075 -0.0371  0.6176
   83MOL   C38248106   4.637   4.607   2.835  0.1522  0.3377  0.4586
   83MOL   O38348107   4.573   4.569   2.714  0.1325  0.1295  0.7531
   83MOL   C38448108   4.609   4.652   2.609 -0.0031  0.8588  0.1280
   83MOL   C38548109   4.607   4.557   2.488  0.7563  0.1119 -0.0979
   83MOL   C38648110   4.708   4.597   2.379 -0.8337 -0.9383 -0.0835
   83MOL   O38748111   4.697   4.732   2.334  0.2589  0.0848  0.2525
   83MOL   C38848112   4.787   4.767   2.230  0.5780  0.4592 -0.1036
   83MOL   O38948113   4.766   4.692   2.109 -0.3051  0.1123 -0.3896
   83MOL   C39048114   4.772   4.917   2.201  0.1007  0.2476 -0.8169
   83MOL   O39148115   4.899   4.978   2.170 -0.4074 -0.1067  0.0157
   83MOL   H39248116   4.373   4.621   2.929  1.0654  0.7732 -0.1901
   83MOL   H39348117   4.401   4.451   2.877  2.1264 -0.5812 -0.0593
   83MOL   H39448118   4.592   4.624   3.045 -1.1522 -2.9042  1.4786
   83MOL   H39548119   4.588   4.359   2.961 -0.9318  0.8179 -0.2681
   83MOL   H39648120   4.648   4.715   2.847  1.3976  0.1762  0.8366
   83MOL   H39748121   4.736   4.562   2.823  0.3383  1.3785 -2.3234
   83MOL   H39848122   4.713   4.683   2.620  0.6114 -1.5384  1.3643
   83MOL   H39948123   4.543   4.737   2.589 -2.0028 -0.6795  0.0754
   83MOL   H40048124   4.503   4.559   2.455  0.5438 -0.1894  0.5592
   83MOL   H40148125   4.631   4.456   2.520 -0.8724 -0.1927  0.1790
   83MOL   H40248126   4.809   4.594   2.420 -1.0466 -0.3602  0.4945
   83MOL   H40348127   4.711   4.535   2.289  0.1763 -2.1497  0.7663
   83MOL   H40448128   4.891   4.745   2.256  1.2946  2.2625 -1.2922
   83MOL   H40548129   4.693   4.730   2.063 -1.2277 -0.2298  0.7548
   83MOL   H40648130   4.694   4.929   2.125 -2.0787 -0.6722  1.2228
   83MOL   H40748131   4.731   4.976   2.283  0.6491  2.6914 -2.2219
   83MOL   C40848132   4.880   5.119   2.149 -1.1878  0.2705 -0.6088
   83MOL   C40948133   5.028   5.190   2.128  0.4584  0.1303 -1.0823
   83MOL   O41048134   5.088   5.201   2.257  0.0345  0.8233 -0.2944
   83MOL   C41148135   5.016   5.327   2.075  0.3067 -0.1628  0.0945
   83MOL   O41248136   5.128   5.377   2.005 -0.8564  0.2805  0.0625
   83MOL   C41348137   5.116   5.497   1.935  0.5157  0.3411 -0.8221
   83MOL   C41448138   5.240   5.537   1.857 -0.3502 -0.8641 -0.1455
   83MOL   C41548139   5.202   5.641   1.750  0.3597  0.1819 -0.0310
   83MOL   O41648140   5.305   5.634   1.656  0.6282 -0.6095 -0.3467
   83MOL   C41748141   5.423   5.704   1.672  0.6761 -0.1088  0.0745
   83MOL   O41848142   5.399   5.838   1.649  0.2040 -0.2398 -0.5599
   83MOL   C41948143   5.522   5.651   1.566  0.0902  0.7312  0.4171
   83MOL   O42048144   5.595   5.535   1.612 -0.7913 -0.2047  0.5510
   83MOL   H42148145   4.829   5.177   2.225 -1.0204  0.8243 -0.9120
   83MOL   H42248146   4.831   5.118   2.051  1.8619 -1.2385 -2.2103
   83MOL   H42348147   5.088   5.124   2.064  0.6528 -0.8667  0.1084
   83MOL   H42448148   5.148   5.128   2.251 -0.6906  0.2608 -0.7836
   83MOL   H42548149   4.933   5.318   2.004 -0.8662  0.3842  1.3581
   83MOL   H42648150   5.000   5.405   2.149 -1.1326  0.1607 -0.5314
   83MOL   H42748151   5.033   5.489   1.864 -0.6255  2.1045  0.2594
   83MOL   H42848152   5.093   5.574   2.009 -1.3709  1.4730 -2.5279
   83MOL   H42948153   5.275   5.446   1.809 -1.2558 -1.3593  0.1147
   83MOL   H43048154   5.319   5.561   1.929 -0.0569  1.5260 -1.2280
   83MOL   H43148155   5.112   5.620   1.693  0.2339 -0.2815  0.3382
   83MOL   H43248156   5.207   5.742   1.793 -0.8091  0.2903 -0.1462
   83MOL   H43348157   5.456   5.684   1.774  3.3911  4.3261  0.2134
   83MOL   H43448158   5.369   5.843   1.560 -1.3238 -0.8631 -0.0927
   83MOL   H43548159   5.469   5.646   1.471  1.2671  0.3843 -0.2265
   83MOL   H43648160   5.597   5.726   1.542  1.8532 -1.8421 -2.4593
   83MOL   C43748161   5.528   5.411   1.597 -0.0420 -0.4505 -0.0136
   83MOL   C43848162   5.606   5.308   1.682 -0.1046  0.4181  0.4728
   83MOL   O43948163   5.736   5.285   1.627  0.0002  0.2371 -0.0408
   83MOL   C44048164   5.526   5.175   1.671 -0.6350  0.3200 -0.8063
   83MOL   O44148165   5.415   5.168   1.764  0.3003  0.1184  0.0206
   83MOL   C44248166   5.446   5.175   1.901 -0.5278 -0.3429  0.0346
   83MOL   C44348167   5.368   5.067   1.975 -0.1805  0.3568 -0.5512
   83MOL   C44448168   5.383   5.071   2.125 -0.2270  0.3591 -0.0332
   83MOL   O44548169   5.278   4.989   2.182 -0.1978 -0.4381 -0.1031
   83MOL   C44648170   5.324   4.931   2.302 -0.2353  0.1857 -0.1866
   83MOL   O44748171   5.407   4.820   2.275  0.4606  0.2360  0.4856
   83MOL   C44848172   5.205   4.880   2.376 -0.0247  0.2617 -0.3263
   83MOL   O44948173   5.131   4.988   2.425 -0.6149 -0.4404  0.3228
   83MOL   H45048174   5.430   5.421   1.643 -0.5802  0.4523 -1.3326
   83MOL   H45148175   5.527   5.385   1.491 -2.8754 -1.9567  0.3573
   83MOL   H45248176   5.623   5.328   1.788 -0.3728 -0.4563  0.6854
   83MOL   H45348177   5.761   5.359   1.574 -1.2651  0.8643  0.2113
   83MOL   H45448178   5.492   5.148   1.571 -2.6698  0.6882 -0.2308
   83MOL   H45548179   5.587   5.092   1.707 -3.8485 -1.8379 -0.1730
   83MOL   H45648180   5.436   5.278   1.934  0.0287  0.1293 -1.2389
   83MOL   H45748181   5.550   5.150   1.921 -0.0565  0.0321 -1.8991
   83MOL   H45848182   5.397   4.969   1.936  0.3427 -0.6945  2.3530
   83MOL   H45948183   5.267   5.090   1.942 -0.0503  0.6784 -0.7294
   83MOL   H46048184   5.483   5.040   2.156 -0.9407 -0.4990  1.4066
   83MOL   H46148185   5.386   5.174   2.163  2.4421  0.2433  0.1784
   83MOL   H46248186   5.374   5.005   2.365 -0.2096  2.1027 -2.3766
   83MOL   H46348187   5.356   4.746   2.245 -0.0796  1.9824 -3.1500
   83MOL   H46448188   5.152   4.815   2.306  2.6448 -0.4092 -1.8147
   83MOL   H46548189   5.239   4.811   2.452 -0.1844  0.4501 -0.0844
   83MOL   C46648190   5.016   4.947   2.504  0.4606 -0.3138 -0.2922
   83MOL   C46748191   4.957   5.071   2.576  0.4332 -0.4463 -0.5772
   83MOL   O46848192   4.905   5.147   2.469  0.2263  0.5009 -0.5952
   83MOL   C46948193   4.842   5.023   2.675 -0.0480 -0.3251 -0.1267
   83MOL   O47048194   4.895   4.937   2.770  0.0756  0.4658 -0.5791
   83MOL   C47148195   4.850   4.938   2.902  0.2148 -0.7246 -0.2938
   83MOL   C47248196   4.977   4.970   2.974  0.4553  0.6163  0.1264
   83MOL   C47348197   5.001   5.126   2.995  0.4097  0.1024 -0.0492
   83MOL   O47448198   5.124   5.153   3.044  0.5461  0.6118 -0.0588
   83MOL   C47548199   5.157   5.291   3.058  0.4407 -0.7824  0.2851
   83MOL   O47648200   5.200   5.344   2.934  0.2955  0.3749  0.2354
   83MOL   C47748201   5.267   5.299   3.167  0.4903  0.0513  1.1569
   83MOL   O47848202   5.217   5.319   3.303  0.0039  0.3651 -0.0260
   83MOL   H47948203   5.046   4.870   2.575 -0.4287  0.9620  1.5228
   83MOL   H48048204   4.935   4.899   2.450 -0.6994 -0.1568  1.2651
   83MOL   H48148205   5.028   5.121   2.642 -0.5007 -1.0522  0.9069
   83MOL   H48248206   4.974   5.144   2.404 -0.1082  0.5150 -0.9561
   83MOL   H48348207   4.810   5.115   2.724  2.5630  0.8656 -0.6034
   83MOL   H48448208   4.754   4.988   2.620 -0.1231 -0.9467  0.3861
   83MOL   H48548209   4.810   4.844   2.940  1.5099 -0.9967  0.4121
   83MOL   H48648210   4.769   5.006   2.926  1.9324  1.2648 -0.0074
   83MOL   H48748211   5.062   4.928   2.919 -1.3645 -2.3765 -0.5299
   83MOL   H48848212   4.974   4.907   3.063  0.9750  0.6773  0.1879
   83MOL   H48948213   4.993   5.172   2.896  0.7680 -1.9295 -1.0494
   83MOL   H49048214   4.930   5.171   3.065 -0.8378 -1.3253 -0.3881
   83MOL   H49148215   5.071   5.353   3.083 -0.0666 -0.8008 -1.3699
   83MOL   H49248216   5.274   5.291   2.906 -0.1901  0.0213 -0.3929
   83MOL   H49348217   5.343   5.221   3.157  1.4914  1.2338 -0.6752
   83MOL   H49448218   5.333   5.383   3.144  1.6823 -1.4006 -0.9946
   83MOL   C49548219   5.157   5.204   3.362  0.4130 -0.7312  1.1807
   83MOL   C49648220   5.131   5.223   3.515 -0.4640 -0.9130  0.3747
   83MOL   O49748221   5.015   5.306   3.534 -0.5250 -0.2226  0.0147
   83MOL   C49848222   5.113   5.087   3.577 -0.1714  0.8189  0.4293
   83MOL   O49948223   5.240   5.034   3.613  0.2455 -0.4386  0.4972
   83MOL   C50048224   5.223   4.900   3.610  0.3700 -0.7921 -0.3143
   83MOL   C50148225   5.347   4.851   3.674  0.0842 -1.6207  0.5828
   83MOL   C50248226   5.356   4.699   3.687  0.1601  0.1695  0.2648
   83MOL   O50348227   5.484   4.661   3.725  0.1553  0.0535 -0.1467
   83MOL   C50448228   5.566   4.604   3.629 -0.2776 -0.0240 -0.8624
   83MOL   O50548229   5.537   4.469   3.615  0.2542 -0.5964 -0.0233
   83MOL   C50648230   5.705   4.628   3.646 -0.4994 -0.6854  0.1140
   83MOL   O50748231   5.747   4.579   3.778 -0.4980  0.2883 -0.5693
   83MOL   H50848232   5.229   5.125   3.340  1.0176  0.1004  0.0830
   83MOL   H50948233   5.060   5.198   3.314 -0.2400 -0.6374  2.4895
   83MOL   H51048234   5.212   5.270   3.570 -0.7276  0.3141 -0.2719
   83MOL   H51148235   5.036   5.396   3.516 -3.1138  0.4978  0.3777
   83MOL   H51248236   5.041   5.093   3.659 -0.2533 -1.8960  0.6085
   83MOL   H51348237   5.064   5.028   3.500  0.7421 -0.7933  1.0667
   83MOL   H51448238   5.218   4.854   3.511 -0.6973 -0.5997 -0.3518
   83MOL   H51548239   5.137   4.876   3.673 -1.3672  0.6586 -2.0637
   83MOL   H51648240   5.344   4.897   3.773 -0.8027  0.4484 -0.3925
   83MOL   H51748241   5.438   4.890   3.628 -0.7837  1.3972  1.3118
   83MOL   H51848242   5.290   4.675   3.770  1.5365 -2.6378  0.5915
   83MOL   H51948243   5.315   4.642   3.604  0.4221  1.8528 -1.0520
   83MOL   H52048244   5.529   4.647   3.536 -0.8859  1.0898 -0.1115
   83MOL   H52148245   5.605   4.429   3.667 -0.1247 -2.3729 -0.8507
   83MOL   H52248246   5.761   4.590   3.561 -1.8702 -2.1334 -0.1691
   83MOL   H52348247   5.717   4.736   3.654  1.0101 -0.6247 -2.3408
   83MOL   C52448248   5.887   4.606   3.798  0.3491 -0.2379  0.2257
   83MOL   C52548249   5.930   4.528   3.927  0.1257 -0.3962  0.1950
   83MOL   O52648250   5.879   4.589   4.043 -0.1561 -0.1012 -0.2318
   83MOL   C52748251   6.082   4.535   3.935 -1.1144  0.0679 -0.0865
   83MOL   O52848252   6.132   4.424   4.010 -0.0147  0.9347 -0.5814
   83MOL   C52948253   6.274   4.427   4.020 -0.3559  0.0675 -1.0382
   83MOL   C53048254   6.334   4.321   4.112  0.9762 -0.4244 -0.2093
   83MOL   C53148255   6.491   4.325   4.116  0.9204 -0.4371  0.1535
   83MOL   O53248256   6.543   4.275   3.994 -0.3090  0.1404 -0.2817
   83MOL   C53348257   6.680   4.291   3.983 -0.5012 -0.7785 -1.0397
   83MOL   O53448258   6.742   4.189   4.058 -0.1273 -0.2310  0.2862
   83MOL   C53548259   6.729   4.275   3.838  0.1832 -0.0044  0.4143
   83MOL   O53648260   6.676   4.146   3.787  0.5491 -0.2997  0.1484
   83MOL   H53748261   5.896   4.715   3.799 -0.0006 -0.2092  0.7167
   83MOL   H53848262   5.942   4.575   3.710  0.3756 -0.4202  0.3078
   83MOL   H53948263   5.899   4.424   3.922  1.6399 -0.7674 -2.7683
   83MOL   H54048264   5.812   4.649   4.014  0.5797  1.3567  1.0025
   83MOL   H54148265   6.130   4.532   3.838  2.5835  0.5210  1.6280
   83MOL   H54248266   6.103   4.632   3.980  0.8306 -0.4150  0.0689
   83MOL   H54348267   6.292   4.524   4.066 -1.7220 -0.1011 -0.1186
   83MOL   H54448268   6.316   4.415   3.920 -0.0149 -0.4535 -0.8371
   83MOL   H54548269   6.312   4.222   4.071  1.3008  0.6286 -3.0216
   83MOL   H54648270   6.291   4.332   4.212  2.7537 -1.6549  0.7134
   83MOL   H54748271   6.521   4.429   4.127  0.1101  0.0662 -2.2451
   83MOL   H54848272   6.521   4.260   4.199 -1.2681 -0.9645  0.5684
   83MOL   H54948273   6.720   4.382   4.028 -1.2217 -0.9327 -0.0496
   83MOL   H55048274   6.730   4.109   4.009  2.8000  0.2365 -1.2946
   83MOL   H55148275   6.702   4.358   3.773  2.1483 -0.7912 -1.4504
   83MOL   H55248276   6.837   4.267   3.836  0.1826  0.0096  0.3174
   83MOL   C55348277   6.556   4.159   3.717  0.3856 -0.0060 -0.1839
   83MOL   C55448278   6.469   4.030   3.734  0.1618 -0.1850 -0.2350
   83MOL   O55548279   6.440   4.034   3.877 -0.2209  0.1046 -0.8260
   83MOL   C55648280   6.539   3.897   3.698 -0.4505 -0.3100  0.3037
   83MOL   O55748281   6.447   3.786   3.683 -0.7516 -0.3680  0.0972
   83MOL   C55848282   6.405   3.721   3.799  0.2303  0.1238 -0.4003
   83MOL   C55948283   6.297   3.615   3.786 -0.1163  0.3723 -0.4381
   83MOL   C56048284   6.176   3.661   3.709 -0.1382 -0.1409 -0.3010
   83MOL   O56148285   6.079   3.564   3.715 -0.6737 -0.6983  0.7212
   83MOL   C56248286   5.962   3.600   3.659 -0.1846  0.2010  0.7349
   83MOL   O56348287   5.974   3.619   3.522 -0.0361 -0.5907 -0.5419
   83MOL   C56448288   5.853   3.493   3.679 -0.3389 -0.0283 -0.9925
   83MOL   O56548289   5.864   3.389   3.589 -0.4269  0.2856 -0.0710
   83MOL   H56648290   6.575   4.168   3.610 -0.6240  3.2385 -0.1645
   83MOL   H56748291   6.501   4.248   3.748 -1.7154 -0.4371 -2.5416
   83MOL   H56848292   6.375   4.038   3.680 -1.1997 -0.6143  2.0115
   83MOL   H56948293   6.479   4.115   3.905 -1.3661  0.2224  0.4801
   83MOL   H57048294   6.585   3.904   3.599 -1.5219 -0.2199 -0.1989
   83MOL   H57148295   6.614   3.870   3.772 -0.2900 -0.7406 -0.0182
   83MOL   H57248296   6.489   3.689   3.860 -0.3471 -0.9774 -0.1542
   83MOL   H57348297   6.364   3.795   3.867  1.3296 -1.6661  2.2998
   83MOL   H57448298   6.263   3.581   3.884 -1.7046  1.1657 -0.6902
   83MOL   H57548299   6.341   3.529   3.737  0.7817  0.3278  0.4395
   83MOL   H57648300   6.128   3.746   3.758 -1.2784 -1.8418  1.5723
   83MOL   H57748301   6.199   3.703   3.610 -1.1612  1.8733  0.2789
   83MOL   H57848302   5.931   3.692   3.709 -0.2541  0.9171 -0.5970
   83MOL   H57948303   5.937   3.535   3.497  0.0768 -0.9799  0.5623
   83MOL   H58048304   5.864   3.465   3.784  0.5497 -2.1413 -1.6355
   83MOL   H58148305   5.753   3.535   3.676 -0.2570  0.1097 -1.7710
   83MOL   H58248306   5.900   3.317   3.639 -0.9206  0.0383 -0.0606
   84MOL     C148307   1.526   5.280   5.151  0.2072  0.0336 -0.4581
   84MOL     C248308   1.664   5.237   5.122 -0.1075  0.3691  0.1827
   84MOL     O348309   1.653   5.121   5.045 -0.6037 -0.1011  0.5552
   84MOL     C448310   1.746   5.343   5.040  0.1062 -0.0420 -0.1245
   84MOL     O548311   1.854   5.278   4.987  0.4840  0.1849  0.2505
   84MOL     C648312   1.971   5.255   5.072  1.1016 -0.2760 -0.2680
   84MOL     C748313   2.086   5.362   5.057  0.1469 -0.3971  0.2849
   84MOL     C848314   2.219   5.318   5.107 -0.5996  0.0247  0.3587
   84MOL     O948315   2.318   5.414   5.085 -0.0715  1.0405 -0.3807
   84MOL    C1048316   2.439   5.364   5.129 -0.1641 -0.3473 -0.4841
   84MOL    O1148317   2.440   5.373   5.273 -0.4471 -0.1151  0.3712
   84MOL    C1248318   2.558   5.443   5.072 -0.6043 -0.4922 -0.5160
   84MOL    O1348319   2.559   5.572   5.127  0.3041  0.6428  0.2038
   84MOL    H1448320   1.476   5.205   5.212 -0.3333  0.0513 -0.8788
   84MOL    H1548321   1.469   5.308   5.062  0.8084  0.0922 -0.8295
   84MOL    H1648322   1.714   5.212   5.215  0.0304  1.7920  0.5055
   84MOL    H1748323   1.738   5.112   5.003 -0.6848  1.0955  0.1254
   84MOL    H1848324   1.682   5.370   4.956 -1.1054 -0.0881  0.7645
   84MOL    H1948325   1.785   5.430   5.093  1.3886 -0.3224 -0.5985
   84MOL    H2048326   1.998   5.153   5.047 -1.9075 -1.5872  1.4989
   84MOL    H2148327   1.945   5.241   5.177 -0.5284 -0.4164 -0.6786
   84MOL    H2248328   2.059   5.460   5.097 -0.1712 -0.3735  0.0177
   84MOL    H2348329   2.097   5.381   4.950  0.1097  0.7169  0.4667
   84MOL    H2448330   2.204   5.277   5.207 -1.4550  1.3660  0.7971
   84MOL    H2548331   2.239   5.232   5.044 -1.9544  0.6011 -0.8670
   84MOL    H2648332   2.450   5.259   5.100 -0.3052 -0.3215 -0.6351
   84MOL    H2748333   2.451   5.462   5.301 -0.0310 -0.4272  1.2027
   84MOL    H2848334   2.656   5.400   5.094 -1.3884 -3.9151 -3.3336
   84MOL    H2948335   2.559   5.453   4.964  1.4310 -2.1291 -0.6744
   84MOL    H3048336   1.543   5.376   5.201  1.6057 -1.0014  1.1180
   84MOL    C3148337   2.642   5.660   5.068  0.4987  0.0589 -0.5845
   84MOL    C3248338   2.676   5.778   5.167 -0.2531  1.0741  0.5364
   84MOL    O3348339   2.577   5.879   5.174  0.1197  0.0774  0.0722
   84MOL    C3448340   2.801   5.855   5.127 -0.5806  0.0382  0.3327
   84MOL    O3548341   2.904   5.856   5.225  0.3942 -0.0225  0.2412
   84MOL    C3648342   2.887   5.962   5.319 -0.4652 -0.0940  0.2947
   84MOL    C3748343   2.992   5.949   5.425  0.2308 -0.3148 -0.3272
   84MOL    C3848344   2.947   6.023   5.557 -0.6619 -0.4670 -0.0655
   84MOL    O3948345   3.042   5.993   5.654  0.0231  0.5088 -0.4428
   84MOL    C4048346   3.048   6.076   5.770  0.6317  1.0104 -0.2189
   84MOL    O4148347   3.098   6.214   5.757  0.2481 -0.4601 -0.3302
   84MOL    C4248348   3.130   6.013   5.881  0.8541 -0.3219  0.2060
   84MOL    O4348349   3.263   5.986   5.833 -0.1706 -0.5731  0.1990
   84MOL    H4448350   2.737   5.620   5.032  0.9776  0.5821  0.0666
   84MOL    H4548351   2.590   5.708   4.986 -0.8312  1.0279  0.7891
   84MOL    H4648352   2.701   5.731   5.262  0.4564 -1.4316 -0.8375
   84MOL    H4748353   2.491   5.839   5.167  0.5021 -0.7255 -0.1408
   84MOL    H4848354   2.848   5.810   5.039  0.1684 -0.3441  0.9202
   84MOL    H4948355   2.787   5.957   5.090 -0.0313  0.1571  0.4476
   84MOL    H5048356   2.784   5.958   5.355  0.1583 -0.2090  2.1425
   84MOL    H5148357   2.897   6.061   5.275 -2.1482 -0.4871 -1.0036
   84MOL    H5248358   3.089   5.984   5.392  0.8876 -1.2551  0.5523
   84MOL    H5348359   2.997   5.842   5.446  1.7851 -0.5916 -2.0308
   84MOL    H5448360   2.932   6.131   5.545  1.0192 -0.1453  0.6443
   84MOL    H5548361   2.849   5.981   5.582 -0.0299 -1.0292  1.4977
   84MOL    H5648362   2.945   6.085   5.805  0.1750 -0.0970 -1.2662
   84MOL    H5748363   3.188   6.207   5.730  1.1483 -1.6969  2.8612
   84MOL    H5848364   3.134   6.081   5.966 -0.0475 -0.7441  0.5946
   84MOL    H5948365   3.079   5.926   5.923 -1.0723  0.6165 -0.1424
   84MOL    C6048366   3.334   5.893   5.922  0.0089  0.0229 -0.5495
   84MOL    C6148367   3.480   5.866   5.883  0.7180 -0.2304  0.2411
   84MOL    O6248368   3.487   5.789   5.765  0.0380 -0.0688 -0.4547
   84MOL    C6348369   3.548   5.795   6.003  0.2915  0.0921  0.1188
   84MOL    O6448370   3.466   5.683   6.043  0.0788  0.3099  0.0830
   84MOL    C6548371   3.504   5.634   6.169  0.3759 -0.2172  0.2547
   84MOL    C6648372   3.415   5.516   6.192  0.4911  0.0449  0.4218
   84MOL    C6748373   3.302   5.546   6.293  0.0247  0.2636 -0.3801
   84MOL    O6848374   3.214   5.638   6.235  0.3422 -0.5567 -0.4205
   84MOL    C6948375   3.096   5.666   6.301 -0.3160 -0.1647 -0.4720
   84MOL    O7048376   3.120   5.716   6.425  0.2447 -0.4868 -0.1634
   84MOL    C7148377   3.009   5.756   6.208 -0.1502  0.0522  0.2467
   84MOL    O7248378   2.927   5.671   6.116 -0.3736 -0.4402 -0.6484
   84MOL    H7348379   3.268   5.809   5.945 -1.4049  1.2952  0.1465
   84MOL    H7448380   3.342   5.938   6.021 -4.6208 -3.2227  1.4903
   84MOL    H7548381   3.524   5.961   5.854 -0.1062 -0.0816 -0.5314
   84MOL    H7648382   3.426   5.718   5.773  0.8012 -0.8635 -1.5205
   84MOL    H7748383   3.646   5.752   5.981 -0.4933 -1.7115  0.0413
   84MOL    H7848384   3.540   5.866   6.085 -2.2777 -2.2024  1.9781
   84MOL    H7948385   3.492   5.702   6.254  0.5401  0.2227 -0.0736
   84MOL    H8048386   3.610   5.612   6.162  0.7299  1.4732  0.1263
   84MOL    H8148387   3.473   5.432   6.233 -1.0497 -0.6632  1.1997
   84MOL    H8248388   3.361   5.477   6.106 -0.9952 -0.1986  1.4479
   84MOL    H8348389   3.347   5.585   6.384  0.1523  0.4748 -0.5330
   84MOL    H8448390   3.256   5.449   6.313  0.7606  0.0877  0.4923
   84MOL    H8548391   3.035   5.576   6.314 -0.0289 -0.4463 -1.0631
   84MOL    H8648392   3.046   5.768   6.453  1.5121  0.4568  1.4655
   84MOL    H8748393   2.936   5.821   6.254  2.0425  2.4041  0.5381
   84MOL    H8848394   3.083   5.821   6.160  2.2826 -3.0099 -0.3087
   84MOL    C8948395   2.879   5.732   5.998 -0.4149 -0.4967 -0.5665
   84MOL    C9048396   2.785   5.647   5.911  0.2469 -0.4965 -0.6531
   84MOL    O9148397   2.654   5.658   5.967 -0.2955 -0.3866 -0.3786
   84MOL    C9248398   2.778   5.717   5.771  0.3624  0.2604  0.6977
   84MOL    O9348399   2.703   5.629   5.689 -0.3915 -0.0421 -0.1561
   84MOL    C9448400   2.731   5.625   5.546 -0.2657 -0.1298  0.6900
   84MOL    C9548401   2.614   5.557   5.467 -0.6258 -0.0306 -0.1423
   84MOL    C9648402   2.487   5.649   5.472 -0.7764 -0.6560 -0.3870
   84MOL    O9748403   2.376   5.589   5.405 -0.0511  0.3807  0.1287
   84MOL    C9848404   2.249   5.642   5.434 -0.1620 -0.4362  0.3484
   84MOL    O9948405   2.238   5.776   5.391  0.2741 -0.3084  0.1069
   84MOL   C10048406   2.133   5.566   5.376  0.2450  0.1250 -0.2694
   84MOL   O10148407   2.014   5.574   5.457  0.7559  0.2082 -0.3887
   84MOL   H10248408   2.963   5.763   5.936 -0.3385 -0.5260 -0.4784
   84MOL   H10348409   2.833   5.828   6.021  1.4012 -0.5125  3.6675
   84MOL   H10448410   2.827   5.547   5.902 -0.4153 -0.8388  0.0682
   84MOL   H10548411   2.609   5.735   5.935 -0.4166 -0.5782 -0.6755
   84MOL   H10648412   2.744   5.820   5.764  0.4640  0.3390  1.3664
   84MOL   H10748413   2.882   5.714   5.737 -0.3819 -0.6123 -1.5797
   84MOL   H10848414   2.825   5.572   5.526 -1.1670 -0.8651 -1.8306
   84MOL   H10948415   2.753   5.723   5.503 -0.0049  0.1232  1.3968
   84MOL   H11048416   2.583   5.460   5.505 -3.3747  0.4852 -0.9100
   84MOL   H11148417   2.632   5.539   5.361 -0.5496  0.3308 -0.1898
   84MOL   H11248418   2.464   5.663   5.578 -1.0800 -3.0544 -0.1236
   84MOL   H11348419   2.517   5.752   5.451 -0.7477 -0.9186 -1.6078
   84MOL   H11448420   2.245   5.627   5.542  3.2277 -1.8509  0.3514
   84MOL   H11548421   2.250   5.759   5.299  1.3083 -2.3235  0.5735
   84MOL   H11648422   2.120   5.594   5.271 -0.3021  0.2737 -0.1652
   84MOL   H11748423   2.167   5.462   5.379 -0.6800 -0.1735  0.1936
   84MOL   C11848424   1.922   5.468   5.422  0.1179  0.5124 -0.1648
   84MOL   C11948425   1.801   5.465   5.513  0.3631 -0.1338  0.6118
   84MOL   O12048426   1.697   5.360   5.487  0.0353  0.4885  0.7076
   84MOL   C12148427   1.715   5.599   5.515 -0.1880 -0.4974  0.0812
   84MOL   O12248428   1.616   5.562   5.609  0.7745  0.2169 -0.2220
   84MOL   C12348429   1.512   5.656   5.617 -0.3321 -0.2695 -0.3208
   84MOL   C12448430   1.559   5.795   5.673 -0.5646  0.6136 -0.2083
   84MOL   C12548431   1.453   5.899   5.720 -0.4666 -0.1815  0.2012
   84MOL   O12648432   1.513   6.031   5.726  0.8099  0.3538  0.2591
   84MOL   C12748433   1.440   6.140   5.765  0.4568 -0.7564 -0.1605
   84MOL   O12848434   1.311   6.144   5.715 -0.2215  0.0147  0.3625
   84MOL   C12948435   1.512   6.265   5.721  0.2651 -0.0505  0.2346
   84MOL   O13048436   1.511   6.263   5.577  0.0980 -0.2625  0.2117
   84MOL   H13148437   1.890   5.483   5.319  0.6636 -0.7457 -0.5272
   84MOL   H13248438   1.960   5.367   5.433 -0.1475  0.1728 -2.1852
   84MOL   H13348439   1.842   5.451   5.613 -3.3028 -2.8749  1.8372
   84MOL   H13448440   1.617   5.397   5.519 -0.6935 -0.8838  0.5304
   84MOL   H13548441   1.783   5.682   5.531  1.7267 -2.0941  0.4712
   84MOL   H13648442   1.679   5.610   5.413 -0.5561 -2.2799 -0.0044
   84MOL   H13748443   1.443   5.624   5.696  0.6194 -0.9537  0.2469
   84MOL   H13848444   1.447   5.658   5.530  2.1974  1.8551 -2.2224
   84MOL   H13948445   1.604   5.842   5.586 -2.2320  1.2784 -0.7290
   84MOL   H14048446   1.635   5.782   5.750 -1.0917  0.2493  0.2612
   84MOL   H14148447   1.368   5.899   5.651 -0.1299 -2.3062 -0.2506
   84MOL   H14248448   1.420   5.869   5.820 -0.1263 -0.1285  0.3276
   84MOL   H14348449   1.436   6.116   5.871 -2.2363 -0.4421 -0.1643
   84MOL   H14448450   1.326   6.161   5.624 -0.3371 -3.2327 -0.3267
   84MOL   H14548451   1.452   6.349   5.755 -1.6257 -0.1060 -2.7435
   84MOL   H14648452   1.618   6.265   5.748  0.6835 -0.4900 -1.3203
   84MOL   C14748453   1.525   6.394   5.515  0.1511 -0.2887  0.4602
   84MOL   C14848454   1.667   6.450   5.547 -0.8463  0.3366  0.4655
   84MOL   O14948455   1.681   6.575   5.478 -0.2018 -0.6425 -0.0989
   84MOL   C15048456   1.783   6.356   5.502  0.4916 -0.2941 -0.0767
   84MOL   O15148457   1.906   6.433   5.517 -0.0754  0.5296 -0.1801
   84MOL   C15248458   1.956   6.416   5.639 -0.3194  0.3232 -0.4051
   84MOL   C15348459   2.037   6.534   5.674 -0.3840 -0.4272 -0.5151
   84MOL   C15448460   2.079   6.544   5.826 -0.1990 -0.1194  0.1241
   84MOL   O15548461   2.164   6.654   5.847  0.2983  0.6010  0.7336
   84MOL   C15648462   2.212   6.668   5.975 -0.0552  0.2439  0.1168
   84MOL   O15748463   2.118   6.671   6.072 -0.1210  0.2596 -0.3158
   84MOL   C15848464   2.288   6.793   5.983 -0.5450  0.8178  0.4663
   84MOL   O15948465   2.426   6.769   5.960 -0.5667 -0.7278 -0.7646
   84MOL   H16048466   1.449   6.467   5.544 -1.6002 -1.1095 -1.8646
   84MOL   H16148467   1.519   6.366   5.410 -0.2490 -1.2755  0.7441
   84MOL   H16248468   1.670   6.464   5.655 -1.3068  2.0988  0.2533
   84MOL   H16348469   1.772   6.586   5.456  0.2154  0.5179  2.0460
   84MOL   H16448470   1.778   6.263   5.558  0.6819 -0.5745 -0.5278
   84MOL   H16548471   1.775   6.340   5.395  0.4620  1.3890 -0.3374
   84MOL   H16648472   2.021   6.329   5.636  1.4800  1.6716 -2.8508
   84MOL   H16748473   1.886   6.417   5.722 -2.0255 -3.5702 -1.6970
   84MOL   H16848474   1.987   6.628   5.652 -0.3243 -0.5617 -1.2653
   84MOL   H16948475   2.129   6.539   5.614 -0.0850 -1.9738 -0.2154
   84MOL   H17048476   1.994   6.552   5.894  0.8555  0.4493  1.3924
   84MOL   H17148477   2.140   6.460   5.858 -0.7512  0.1028  1.7869
   84MOL   H17248478   2.275   6.581   5.996 -1.0815 -0.5573 -0.1172
   84MOL   H17348479   2.164   6.658   6.153  1.4316  0.4284 -1.1567
   84MOL   H17448480   2.244   6.857   5.907 -3.0211 -1.2191  0.1244
   84MOL   H17548481   2.286   6.837   6.082  0.9673  2.0686 -0.0389
   84MOL   C17648482   2.504   6.889   5.942  0.1145  0.5265 -0.4393
   84MOL   C17748483   2.647   6.849   5.970  0.2119 -0.0730 -0.1101
   84MOL   O17848484   2.677   6.873   6.105  0.0898 -0.6367  0.4557
   84MOL   C17948485   2.745   6.941   5.897  0.9785 -0.4318 -0.7367
   84MOL   O18048486   2.865   6.877   5.872  0.3901  0.8719 -0.4812
   84MOL   C18148487   2.952   6.966   5.805 -0.3945  0.8847 -0.5324
   84MOL   C18248488   3.089   6.917   5.812  0.1770  0.1897  0.2360
   84MOL   C18348489   3.191   7.007   5.749  0.0017 -0.8169  0.1539
   84MOL   O18448490   3.317   6.933   5.759  0.0859  0.5937 -0.4119
   84MOL   C18548491   3.423   7.013   5.727 -0.0059  0.5389 -0.2428
   84MOL   O18648492   3.417   7.065   5.599 -0.3453 -0.4520 -0.0096
   84MOL   C18748493   3.552   6.933   5.740 -0.1387  0.4741 -0.1978
   84MOL   O18848494   3.522   6.797   5.701  0.0890 -0.4613  0.1811
   84MOL   H18948495   2.475   6.971   6.009  0.1994  0.3709 -0.2107
   84MOL   H19048496   2.485   6.925   5.841  0.2114  0.6127 -0.4274
   84MOL   H19148497   2.669   6.748   5.935  1.8195  0.0511  0.5084
   84MOL   H19248498   2.610   6.832   6.157 -0.6940 -1.3824 -1.1147
   84MOL   H19348499   2.695   6.962   5.801 -0.5076 -1.9564 -0.3179
   84MOL   H19448500   2.762   7.026   5.963  0.7076  0.7582 -2.1622
   84MOL   H19548501   2.952   7.057   5.865 -0.6002  1.0721 -0.8162
   84MOL   H19648502   2.919   6.974   5.702 -2.4208 -2.7266 -0.2564
   84MOL   H19748503   3.089   6.816   5.771  0.2765  0.2789  0.0127
   84MOL   H19848504   3.116   6.892   5.914  3.0535 -0.5172 -0.6369
   84MOL   H19948505   3.165   7.025   5.645 -0.0640 -2.4314 -0.1273
   84MOL   H20048506   3.200   7.101   5.803 -1.3591 -1.3656  1.3993
   84MOL   H20148507   3.422   7.096   5.797  1.8369  0.9204 -0.6366
   84MOL   H20248508   3.426   6.992   5.539 -1.0076 -0.4600 -0.1034
   84MOL   H20348509   3.631   6.976   5.680  0.6038  1.5321  1.4847
   84MOL   H20448510   3.591   6.929   5.842 -1.3901  1.2649  0.3256
   84MOL   C20548511   3.478   6.716   5.811 -0.5152 -0.4173 -0.2712
   84MOL   C20648512   3.392   6.603   5.750  0.1997  0.2829  0.0002
   84MOL   O20748513   3.465   6.523   5.650 -0.0359  0.5271 -0.0998
   84MOL   C20848514   3.347   6.504   5.863  0.8571  0.1992  0.9154
   84MOL   O20948515   3.461   6.448   5.925  0.7902  0.1817  0.2181
   84MOL   C21048516   3.425   6.363   6.034 -0.1081 -0.5129  0.0177
   84MOL   C21148517   3.550   6.315   6.112 -0.1346  0.0494 -0.3561
   84MOL   C21248518   3.638   6.224   6.028  0.6724 -0.0518  0.0410
   84MOL   O21348519   3.764   6.209   6.093 -0.2447  0.4022 -0.9842
   84MOL   C21448520   3.842   6.106   6.034 -0.6218 -0.8168 -0.3923
   84MOL   O21548521   3.786   5.978   6.042  0.1310 -0.8194  0.2367
   84MOL   C21648522   3.992   6.121   6.069 -0.5167 -0.0460  0.2867
   84MOL   O21748523   4.016   6.083   6.209  0.6227 -0.7690 -0.1094
   84MOL   H21848524   3.420   6.766   5.888  2.0671 -1.0650  2.2013
   84MOL   H21948525   3.569   6.688   5.864 -1.4308 -0.5414  1.2471
   84MOL   H22048526   3.310   6.654   5.700  0.7117  1.9572  0.8419
   84MOL   H22148527   3.523   6.480   5.711 -0.0614 -0.7341 -0.9552
   84MOL   H22248528   3.282   6.552   5.936 -0.3196  1.7756 -1.1074
   84MOL   H22348529   3.290   6.421   5.823  1.1100  0.7724 -0.6596
   84MOL   H22448530   3.348   6.291   6.007  0.2994 -1.7286  1.9867
   84MOL   H22548531   3.379   6.438   6.099  1.1136  0.5431 -0.3173
   84MOL   H22648532   3.525   6.270   6.207  2.6381 -0.9039 -0.0207
   84MOL   H22748533   3.616   6.399   6.133 -0.7160  0.4741 -0.2432
   84MOL   H22848534   3.587   6.128   6.017 -1.5003  1.2970 -1.9125
   84MOL   H22948535   3.652   6.261   5.926 -1.5504  2.0660  0.4656
   84MOL   H23048536   3.839   6.126   5.927  0.0086  3.4116  0.2639
   84MOL   H23148537   3.818   5.932   6.119  3.5421 -1.2651 -1.3539
   84MOL   H23248538   4.053   6.056   6.007  0.9054  2.0721 -0.5919
   84MOL   H23348539   4.021   6.226   6.055 -1.9296  0.5179  1.4475
   84MOL   C23448540   4.155   6.117   6.242 -0.0482  0.4719 -0.3447
   84MOL   C23548541   4.179   6.054   6.382  0.6174 -0.2021  0.8807
   84MOL   O23648542   4.122   6.136   6.488  0.3889 -0.1529 -0.0679
   84MOL   C23748543   4.325   6.034   6.414 -0.1058 -0.5618 -0.0731
   84MOL   O23848544   4.388   5.949   6.324 -0.1600  0.5738  0.0672
   84MOL   C23948545   4.359   5.812   6.352  0.2679  0.7014 -0.1204
   84MOL   C24048546   4.436   5.730   6.251  0.8318  0.0942 -0.0608
   84MOL   C24148547   4.407   5.579   6.259  0.5047 -0.4770 -0.5599
   84MOL   O24248548   4.504   5.509   6.185  0.1295 -0.1140  0.1483
   84MOL   C24348549   4.488   5.371   6.191  0.4960 -0.2709 -1.0916
   84MOL   O24448550   4.491   5.321   6.319  0.4110  0.0111 -0.2206
   84MOL   C24548551   4.609   5.313   6.116 -0.2446 -0.3184  0.5309
   84MOL   O24648552   4.723   5.350   6.185 -0.0588  0.4821 -1.1560
   84MOL   H24748553   4.214   6.084   6.157  0.8452  0.2807  0.3500
   84MOL   H24848554   4.164   6.226   6.243 -0.2690  0.5628 -3.2486
   84MOL   H24948555   4.131   5.956   6.384 -0.7651  0.4642  1.7546
   84MOL   H25048556   4.175   6.215   6.481 -0.7808  0.7036  0.6536
   84MOL   H25148557   4.387   6.124   6.412  1.1073 -1.4028 -1.4469
   84MOL   H25248558   4.344   5.989   6.511 -0.2158  1.1820  0.7672
   84MOL   H25348559   4.254   5.786   6.340  0.5222  0.4413 -2.0459
   84MOL   H25448560   4.373   5.780   6.455 -2.7115  2.0358  0.7453
   84MOL   H25548561   4.540   5.737   6.281  0.2897  1.1811  1.6300
   84MOL   H25648562   4.441   5.777   6.153  1.7059  0.5081  0.1812
   84MOL   H25748563   4.415   5.555   6.365  2.8024  1.6900 -0.2094
   84MOL   H25848564   4.304   5.563   6.226 -0.5158  0.5989  1.9601
   84MOL   H25948565   4.391   5.352   6.144  0.1476 -0.2308 -0.3922
   84MOL   H26048566   4.581   5.328   6.345  0.6509  0.1177 -1.0503
   84MOL   H26148567   4.597   5.205   6.114  1.3487 -0.4795 -0.5668
   84MOL   H26248568   4.607   5.358   6.016 -2.1243  1.6515  1.4080
   84MOL   C26348569   4.839   5.288   6.139 -0.4561 -0.1420  0.6976
   84MOL   C26448570   4.965   5.380   6.163  0.3930  0.1983 -0.3699
   84MOL   O26548571   4.954   5.480   6.067  0.2268 -0.2474  0.1949
   84MOL   C26648572   4.959   5.439   6.305  0.3548  0.1467 -0.3661
   84MOL   O26748573   5.080   5.505   6.333  0.2300  0.1023 -0.3025
   84MOL   C26848574   5.057   5.615   6.423  0.1068  0.0059  0.0775
   84MOL   C26948575   5.194   5.658   6.474  0.1400 -0.0924 -0.6504
   84MOL   C27048576   5.183   5.782   6.566 -0.0613 -0.5141  0.8327
   84MOL   O27148577   5.086   5.770   6.674 -0.0936  0.2908  0.6432
   84MOL   C27248578   5.043   5.887   6.735  0.3958 -0.1482  0.1084
   84MOL   O27348579   4.959   5.960   6.645  0.1347  0.1891  0.0036
   84MOL   C27448580   4.962   5.853   6.863  0.6398 -0.1130  0.1368
   84MOL   O27548581   5.047   5.853   6.976 -0.4142 -0.3081 -0.1418
   84MOL   H27648582   4.822   5.269   6.033 -0.2581 -0.3685  0.7060
   84MOL   H27748583   4.843   5.185   6.175 -2.3533 -1.7105 -3.3852
   84MOL   H27848584   5.052   5.314   6.153 -0.9267 -1.7252  0.5998
   84MOL   H27948585   4.869   5.520   6.062  0.5906  0.4511 -0.5562
   84MOL   H28048586   4.871   5.502   6.324  1.2587  1.2624  0.1886
   84MOL   H28148587   4.961   5.354   6.372  2.6138  2.0449  2.0634
   84MOL   H28248588   5.002   5.579   6.509 -0.4022 -0.1201 -0.3007
   84MOL   H28348589   5.006   5.699   6.375  0.1873 -0.0978 -0.1930
   84MOL   H28448590   5.253   5.686   6.387 -1.1819 -1.7251 -2.1094
   84MOL   H28548591   5.249   5.582   6.531 -0.4495  0.2214  0.3551
   84MOL   H28648592   5.284   5.797   6.604  0.9121 -1.7805 -1.1933
   84MOL   H28748593   5.154   5.861   6.497  1.5211 -0.3532  0.3425
   84MOL   H28848594   5.129   5.946   6.767  1.6096 -1.0564 -1.4193
   84MOL   H28948595   4.879   5.915   6.622 -0.2460  0.2972  1.1041
   84MOL   H29048596   4.880   5.924   6.874  0.7662  0.0319  0.1478
   84MOL   H29148597   4.916   5.757   6.839 -2.1892  1.3955 -0.7457
   84MOL   C29248598   5.110   5.727   6.991 -0.2703 -0.3614  0.1423
   84MOL   C29348599   5.197   5.712   7.112 -0.6045 -0.2495  0.7492
   84MOL   O29448600   5.113   5.669   7.214  0.4273  0.3458  0.0907
   84MOL   C29548601   5.304   5.603   7.088  0.1770  0.1303  0.5319
   84MOL   O29648602   5.401   5.596   7.193  0.1560  0.6654 -0.5656
   84MOL   C29748603   5.515   5.532   7.143  0.0482  0.5008  1.0968
   84MOL   C29848604   5.629   5.537   7.248 -0.1067 -0.1717 -0.4334
   84MOL   C29948605   5.749   5.452   7.211  0.6555 -0.1267 -0.0173
   84MOL   O30048606   5.808   5.527   7.109  0.5617  0.0999  0.1561
   84MOL   C30148607   5.913   5.471   7.035 -0.0184 -0.0225 -0.2193
   84MOL   O30248608   5.879   5.356   6.961  0.0882 -0.5637  0.5572
   84MOL   C30348609   5.965   5.584   6.943  0.3223  0.6301  0.1656
   84MOL   O30448610   6.103   5.570   6.921 -0.4975  0.1785  0.0644
   84MOL   H30548611   5.043   5.641   6.987 -0.6274 -0.0920  0.2738
   84MOL   H30648612   5.171   5.702   6.904 -0.4465 -1.7667  0.4099
   84MOL   H30748613   5.230   5.809   7.151 -0.1831 -0.3219  0.5791
   84MOL   H30848614   5.165   5.669   7.293  2.2910  2.1703 -1.0756
   84MOL   H30948615   5.255   5.507   7.072 -0.4643  0.1365  2.2951
   84MOL   H31048616   5.351   5.628   6.993  1.7449 -0.7613  1.0491
   84MOL   H31148617   5.553   5.592   7.061 -1.7386 -0.2677 -0.3227
   84MOL   H31248618   5.504   5.426   7.121 -1.9421  1.4446 -2.8653
   84MOL   H31348619   5.586   5.504   7.342  0.3380 -1.0138 -0.5198
   84MOL   H31448620   5.664   5.638   7.270 -0.9249  0.5341 -2.2622
   84MOL   H31548621   5.820   5.421   7.288 -0.5553 -1.7249  0.4734
   84MOL   H31648622   5.713   5.353   7.183 -2.7289  0.3929  2.3039
   84MOL   H31748623   5.995   5.444   7.102 -2.3344 -1.0099  2.2983
   84MOL   H31848624   5.798   5.365   6.913 -0.2613  1.2802  1.4331
   84MOL   H31948625   5.949   5.687   6.974  0.2630  0.1401  1.7977
   84MOL   H32048626   5.901   5.582   6.855 -0.2933  0.3975  0.6172
   84MOL   C32148627   6.136   5.536   6.786  0.2432  0.2197 -0.1689
   84MOL   C32248628   6.134   5.381   6.761 -0.0545 -0.5518  0.4894
   84MOL   O32348629   6.010   5.325   6.721  0.0379  0.1244 -0.2166
   84MOL   C32448630   6.243   5.343   6.657 -0.6263 -0.1843  0.6688
   84MOL   O32548631   6.237   5.419   6.539  0.0071  0.3071 -0.4277
   84MOL   C32648632   6.189   5.347   6.429 -0.2516 -0.2763 -0.7793
   84MOL   C32748633   6.131   5.448   6.335  0.5759 -0.5668 -0.2414
   84MOL   C32848634   6.231   5.524   6.250  0.6070 -0.5184 -0.4015
   84MOL   O32948635   6.152   5.581   6.151 -0.1061 -0.3729  0.1408
   84MOL   C33048636   6.229   5.664   6.066 -0.2375 -0.0765  0.0604
   84MOL   O33148637   6.316   5.591   5.986  0.3606 -0.1729 -0.3871
   84MOL   C33248638   6.126   5.751   5.984 -0.1762 -0.3704 -0.8488
   84MOL   O33348639   6.034   5.656   5.932  0.6529 -0.0259 -0.1167
   84MOL   H33448640   6.236   5.579   6.779  1.1482 -1.6668  1.0578
   84MOL   H33548641   6.075   5.582   6.708 -0.6634 -1.2519 -0.3594
   84MOL   H33648642   6.162   5.331   6.854  1.4551 -0.1242  0.2830
   84MOL   H33748643   5.969   5.320   6.806  0.7315  1.4608  0.2004
   84MOL   H33848644   6.254   5.235   6.646  0.6129 -0.0760  0.7226
   84MOL   H33948645   6.344   5.363   6.692 -0.0959 -3.4336  1.1120
   84MOL   H34048646   6.103   5.290   6.463  0.2618 -1.2645 -1.0908
   84MOL   H34148647   6.280   5.293   6.400  0.7902  1.7405 -1.3450
   84MOL   H34248648   6.083   5.381   6.264  0.7687 -1.7980  0.7824
   84MOL   H34348649   6.052   5.508   6.379 -2.2487 -0.7066 -4.8207
   84MOL   H34448650   6.281   5.595   6.317 -1.5124  1.0219 -0.3992
   84MOL   H34548651   6.300   5.455   6.202  0.6748 -0.2455 -0.6929
   84MOL   H34648652   6.297   5.724   6.127 -0.2489 -0.9133  0.9085
   84MOL   H34748653   6.286   5.610   5.898 -1.0717 -1.7782 -0.2762
   84MOL   H34848654   6.089   5.825   6.055 -0.1073 -1.1898  0.0350
   84MOL   H34948655   6.178   5.795   5.899 -0.5294  1.2927 -0.2217
   84MOL   C35048656   5.931   5.717   5.851  0.0086 -0.1304 -0.1169
   84MOL   C35148657   5.818   5.626   5.807 -0.0712  0.1780 -0.8636
   84MOL   O35248658   5.719   5.625   5.903 -0.5202  0.4863  0.2415
   84MOL   C35348659   5.744   5.664   5.679  0.6129 -0.9061 -0.3298
   84MOL   O35448660   5.804   5.594   5.577 -0.0836 -0.1672 -0.3261
   84MOL   C35548661   5.754   5.459   5.551  0.7350  0.6585  0.9040
   84MOL   C35648662   5.843   5.399   5.436 -0.2951 -0.3687 -0.2307
   84MOL   C35748663   5.964   5.316   5.496 -0.5209 -0.0579  0.1565
   84MOL   O35848664   6.051   5.265   5.391  0.1453 -0.6547  0.2333
   84MOL   C35948665   6.120   5.148   5.406  0.2718 -0.0853  0.0183
   84MOL   O36048666   6.025   5.044   5.380 -0.5057  0.0408 -0.2997
   84MOL   C36148667   6.242   5.140   5.310  0.2119 -0.0898 -0.0770
   84MOL   O36248668   6.214   5.205   5.187 -0.1801 -0.1020 -0.4294
   84MOL   H36348669   5.971   5.759   5.759 -1.8459  1.0181 -0.4402
   84MOL   H36448670   5.895   5.805   5.904 -1.1616 -0.1422 -0.8699
   84MOL   H36548671   5.857   5.524   5.803  0.5860  0.3180  1.3165
   84MOL   H36648672   5.755   5.561   5.962  1.6742 -0.4921 -2.0610
   84MOL   H36748673   5.640   5.632   5.685  0.3167  0.1648  0.3875
   84MOL   H36848674   5.739   5.772   5.677 -0.9551 -0.8753  2.3219
   84MOL   H36948675   5.647   5.462   5.532  1.1947  1.6090 -1.6891
   84MOL   H37048676   5.752   5.397   5.641 -1.0642 -0.7651 -0.0826
   84MOL   H37148677   5.873   5.462   5.353 -3.4935  1.6367  0.0557
   84MOL   H37248678   5.786   5.321   5.385  0.9197 -0.4700 -1.4533
   84MOL   H37348679   6.021   5.372   5.570 -0.6899  1.1182 -0.5974
   84MOL   H37448680   5.918   5.231   5.547  0.8270 -1.9943 -1.7083
   84MOL   H37548681   6.157   5.130   5.508 -0.5111 -4.0694 -0.3491
   84MOL   H37648682   6.006   5.040   5.287 -1.3281 -0.0949 -0.1265
   84MOL   H37748683   6.319   5.192   5.368  1.2068 -1.0335 -0.5362
   84MOL   H37848684   6.261   5.033   5.298 -1.1628 -0.2965 -0.4962
   84MOL   C37948685   6.313   5.203   5.082  0.3530  0.1692  0.0220
   84MOL   C38048686   6.245   5.235   4.944  0.6919  0.3369 -0.4844
   84MOL   O38148687   6.153   5.133   4.901 -0.0881 -0.2715 -0.2068
   84MOL   C38248688   6.164   5.365   4.938  0.2983 -0.3287  0.2679
   84MOL   O38348689   6.152   5.428   4.811  1.1130 -0.3122 -0.3951
   84MOL   C38448690   6.080   5.554   4.816 -0.3784  0.7866  0.6263
   84MOL   C38548691   6.075   5.591   4.667  0.3855 -0.1295  0.7024
   84MOL   C38648692   6.013   5.723   4.637 -0.2123  0.1510 -0.0041
   84MOL   O38748693   6.030   5.738   4.490  0.5318  0.6534  0.7243
   84MOL   C38848694   6.000   5.861   4.442  0.3319  0.1272 -0.3902
   84MOL   O38948695   6.099   5.959   4.471  0.6911  0.0591  0.3516
   84MOL   C39048696   5.973   5.849   4.289  0.5900 -0.0575 -0.0748
   84MOL   O39148697   6.093   5.863   4.208 -0.4566  0.1390  0.4722
   84MOL   H39248698   6.355   5.103   5.077  2.3436  1.0346 -1.4581
   84MOL   H39348699   6.394   5.274   5.103 -1.0030  1.2529  1.7472
   84MOL   H39448700   6.324   5.239   4.869  0.4163  2.7155 -0.6849
   84MOL   H39548701   6.171   5.113   4.810 -0.3719  0.6786 -0.4791
   84MOL   H39648702   6.067   5.350   4.985  0.5267  0.4532  0.9930
   84MOL   H39748703   6.231   5.433   4.991  1.4381 -0.6166 -0.7578
   84MOL   H39848704   6.132   5.615   4.890  1.9963 -0.2182 -0.1416
   84MOL   H39948705   5.980   5.543   4.857 -0.5069  0.1094  0.1494
   84MOL   H40048706   6.028   5.522   4.596  2.5864 -1.2601  0.3006
   84MOL   H40148707   6.177   5.589   4.629 -0.2972  0.3769 -1.2041
   84MOL   H40248708   5.908   5.721   4.665 -0.2452 -1.0271 -0.1723
   84MOL   H40348709   6.048   5.806   4.699  0.8705  0.1893 -0.6581
   84MOL   H40448710   5.917   5.889   4.506  1.2966 -1.1612  1.4660
   84MOL   H40548711   6.163   5.946   4.403 -0.3874 -0.9593 -0.4938
   84MOL   H40648712   5.929   5.751   4.272 -3.1947  0.9473  3.2388
   84MOL   H40748713   5.912   5.935   4.260 -0.3061 -0.3938  0.7898
   84MOL   C40848714   6.182   5.750   4.202 -0.0689 -0.2380  0.2998
   84MOL   C40948715   6.315   5.775   4.125 -0.4601 -0.8256 -0.2047
   84MOL   O41048716   6.388   5.872   4.198 -0.1430  0.1140  0.2397
   84MOL   C41148717   6.296   5.830   3.977 -0.0197 -0.0430 -0.5624
   84MOL   O41248718   6.414   5.806   3.896 -0.7460 -0.0478 -0.0197
   84MOL   C41348719   6.413   5.890   3.780  0.3140 -0.0498  0.4492
   84MOL   C41448720   6.507   5.823   3.678  0.1080 -0.0481 -0.4022
   84MOL   C41548721   6.527   5.907   3.557  0.0133 -0.2980 -0.4169
   84MOL   O41648722   6.418   5.894   3.476 -0.2670  0.0686 -0.1546
   84MOL   C41748723   6.430   5.952   3.354  0.1086  0.1528 -0.2491
   84MOL   O41848724   6.394   6.089   3.359 -0.1988  0.1623  0.8383
   84MOL   C41948725   6.341   5.891   3.251 -0.2923 -0.3563 -1.1255
   84MOL   O42048726   6.215   5.869   3.316 -0.1442  0.1511 -0.7613
   84MOL   H42148727   6.121   5.678   4.148 -0.3144 -0.5995  1.0492
   84MOL   H42248728   6.202   5.700   4.297  1.5984 -1.8174 -0.8457
   84MOL   H42348729   6.370   5.681   4.116 -1.9007 -1.5386 -2.1869
   84MOL   H42448730   6.471   5.887   4.155  0.1223  1.9270  1.3179
   84MOL   H42548731   6.215   5.781   3.924 -1.2776  0.0971  1.2012
   84MOL   H42648732   6.267   5.933   3.991 -2.6420 -0.5567 -1.9976
   84MOL   H42748733   6.318   5.898   3.727  0.4129  1.0666  0.4449
   84MOL   H42848734   6.432   5.994   3.805  1.9727 -0.1795 -0.2163
   84MOL   H42948735   6.460   5.729   3.650  1.7399 -1.1023  0.2936
   84MOL   H43048736   6.603   5.805   3.726 -0.2613 -1.1380 -0.0647
   84MOL   H43148737   6.523   6.012   3.586 -0.1658 -0.3358 -0.3062
   84MOL   H43248738   6.620   5.886   3.505  0.8143 -2.5550  1.8301
   84MOL   H43348739   6.535   5.947   3.327  0.3069  0.0952  0.5147
   84MOL   H43448740   6.300   6.093   3.365 -0.2726  0.7226 -0.4603
   84MOL   H43548741   6.339   5.956   3.164  0.4765 -0.9120 -1.5671
   84MOL   H43648742   6.391   5.799   3.220  2.4820  1.5133 -2.3168
   84MOL   C43748743   6.144   5.767   3.257 -0.1851 -0.0820  0.5838
   84MOL   C43848744   6.183   5.636   3.330  0.2962 -0.4954 -0.0838
   84MOL   O43948745   6.130   5.541   3.242  0.4861 -0.2285 -0.6279
   84MOL   C44048746   6.119   5.625   3.470 -0.0277  0.2675  0.6615
   84MOL   O44148747   6.159   5.511   3.541  0.5214 -0.0764  0.4037
   84MOL   C44248748   6.283   5.525   3.612 -0.5044 -0.0373  0.1402
   84MOL   C44348749   6.300   5.416   3.715  0.0067  0.2262 -0.3613
   84MOL   C44448750   6.204   5.420   3.833 -0.0706  0.1585  0.0453
   84MOL   O44548751   6.244   5.320   3.930 -0.4506 -0.5295  0.4700
   84MOL   C44648752   6.181   5.331   4.052  0.5056 -0.7993  0.8260
   84MOL   O44748753   6.233   5.435   4.135 -0.1799  0.4082 -0.0202
   84MOL   C44848754   6.198   5.193   4.125  0.5973  0.2701 -0.1407
   84MOL   O44948755   6.096   5.105   4.092 -0.3735  0.3699  0.7293
   84MOL   H45048756   6.042   5.796   3.281  0.5456 -0.1108  3.9931
   84MOL   H45148757   6.146   5.765   3.148 -2.2458 -0.9731  0.5380
   84MOL   H45248758   6.291   5.621   3.333  0.7055  1.7282 -2.2788
   84MOL   H45348759   6.036   5.555   3.243  0.7848  2.0493 -0.6002
   84MOL   H45448760   6.137   5.718   3.524 -0.6628  0.6569  0.2056
   84MOL   H45548761   6.011   5.632   3.458  0.5225  1.6864 -5.4371
   84MOL   H45648762   6.281   5.622   3.662 -2.4115  0.8496 -1.6146
   84MOL   H45748763   6.367   5.509   3.545 -1.3457  2.0890 -1.4855
   84MOL   H45848764   6.397   5.429   3.762 -2.0296  1.1460  3.8318
   84MOL   H45948765   6.298   5.328   3.650 -1.5903  0.6143 -0.8646
   84MOL   H46048766   6.216   5.514   3.887  0.5557  0.1821 -0.1273
   84MOL   H46148767   6.101   5.413   3.798 -0.0578  2.5689 -0.5422
   84MOL   H46248768   6.077   5.346   4.026  0.6816 -0.6610  0.1791
   84MOL   H46348769   6.306   5.396   4.181  0.7009  0.9148 -0.9899
   84MOL   H46448770   6.295   5.151   4.101  0.6314  0.8279 -1.0018
   84MOL   H46548771   6.190   5.213   4.232  1.0321  0.2360 -0.1049
   84MOL   C46648772   6.105   4.983   4.165  0.4179  0.1187 -0.3430
   84MOL   C46748773   5.998   4.886   4.108 -0.2445  0.2671 -0.5305
   84MOL   O46848774   6.017   4.764   4.191 -0.0083 -0.0564  0.4607
   84MOL   C46948775   5.857   4.936   4.141  0.4991  0.0128 -0.3226
   84MOL   O47048776   5.767   4.870   4.051  0.3787 -0.7366  0.4462
   84MOL   C47148777   5.635   4.898   4.093  0.1832 -0.6996  0.0267
   84MOL   C47248778   5.542   4.810   4.006  1.1984  0.1068 -0.3315
   84MOL   C47348779   5.401   4.820   4.064  0.4898  0.0657 -0.3078
   84MOL   O47448780   5.360   4.952   4.091 -0.7136  0.0846 -0.5810
   84MOL   C47548781   5.224   4.965   4.104  0.1040  0.6140  0.4635
   84MOL   O47648782   5.174   5.035   3.993  0.4923 -0.5135 -0.0887
   84MOL   C47748783   5.191   5.042   4.242 -0.0110 -0.2196 -0.3154
   84MOL   O47848784   5.069   4.984   4.305  0.1199 -0.2650  0.4180
   84MOL   H47948785   6.091   5.001   4.271 -3.3347 -0.5020 -0.6936
   84MOL   H48048786   6.204   4.937   4.163  0.0782 -0.8513  2.6292
   84MOL   H48148787   6.022   4.859   4.006  0.0271 -1.2830 -0.0599
   84MOL   H48248788   5.972   4.693   4.148  2.4393 -0.3221 -1.7978
   84MOL   H48348789   5.828   4.927   4.245 -1.6704 -0.3945 -0.9405
   84MOL   H48448790   5.856   5.045   4.131 -0.8087 -0.1600 -2.5577
   84MOL   H48548791   5.622   5.006   4.083  1.1596 -0.5830 -0.0609
   84MOL   H48648792   5.624   4.865   4.196  1.3327 -1.2049 -0.0022
   84MOL   H48748793   5.582   4.710   3.992 -0.0774 -0.5366  0.4401
   84MOL   H48848794   5.536   4.856   3.908  0.4496  1.1995  0.2117
   84MOL   H48948795   5.348   4.770   3.982  2.6430 -2.4881 -0.2100
   84MOL   H49048796   5.388   4.763   4.156  1.0203  1.9467  0.9545
   84MOL   H49148797   5.187   4.862   4.107  0.2938  0.5647  1.0178
   84MOL   H49248798   5.193   4.991   3.912  0.5940 -2.5324  0.9790
   84MOL   H49348799   5.277   5.032   4.308  0.2751  2.1481 -0.2617
   84MOL   H49448800   5.191   5.147   4.212  3.1727 -0.3191 -0.8387
   84MOL   C49548801   4.948   5.049   4.257  0.2917  0.0220 -0.3041
   84MOL   C49648802   4.822   5.009   4.341 -0.1123  0.9549 -0.5514
   84MOL   O49748803   4.717   5.085   4.276 -0.1978  0.1755 -0.2307
   84MOL   C49848804   4.780   4.857   4.352 -0.2737 -0.5916  0.3998
   84MOL   O49948805   4.653   4.846   4.414  0.3437 -0.0124  0.1586
   84MOL   C50048806   4.600   4.710   4.426 -0.6741 -0.6326  0.2658
   84MOL   C50148807   4.483   4.710   4.519  0.3206 -0.4444  0.2339
   84MOL   C50248808   4.421   4.569   4.518  0.2262 -0.1768 -0.0837
   84MOL   O50348809   4.300   4.593   4.577 -0.5796 -0.0863  0.7474
   84MOL   C50448810   4.217   4.491   4.611  0.0072  0.7231 -0.2213
   84MOL   O50548811   4.280   4.410   4.710 -0.4514  0.0541 -0.2634
   84MOL   C50648812   4.173   4.404   4.492 -0.0351 -0.5317 -0.0729
   84MOL   O50748813   4.033   4.390   4.500 -0.2681 -0.3594 -0.2790
   84MOL   H50848814   4.935   5.032   4.150 -1.8003 -0.5291  0.0044
   84MOL   H50948815   4.953   5.156   4.277 -1.6973 -0.1900  1.5485
   84MOL   H51048816   4.828   5.047   4.443 -1.2547 -2.9282  1.0450
   84MOL   H51148817   4.635   5.038   4.286 -0.7406  1.4776  1.9320
   84MOL   H51248818   4.781   4.803   4.257  1.5802  1.4675 -0.8177
   84MOL   H51348819   4.844   4.795   4.414 -0.1751 -2.4640 -1.5250
   84MOL   H51448820   4.677   4.643   4.465 -0.7830 -1.0216 -0.1716
   84MOL   H51548821   4.576   4.666   4.329 -0.3552 -1.5366  0.5876
   84MOL   H51648822   4.404   4.779   4.490  1.8505  1.5679  0.7550
   84MOL   H51748823   4.505   4.737   4.622  0.5118 -1.8077  0.5544
   84MOL   H51848824   4.401   4.520   4.423 -0.5416  3.2509 -1.7330
   84MOL   H51948825   4.486   4.506   4.580  1.8169  2.0228  0.5198
   84MOL   H52048826   4.134   4.537   4.664  0.9311  0.3532  1.5894
   84MOL   H52148827   4.261   4.446   4.795 -1.0304  1.7265 -1.0940
   84MOL   H52248828   4.199   4.453   4.399  1.7785  1.0260  1.2139
   84MOL   H52348829   4.219   4.308   4.511  3.1495  0.7503 -1.0410
   84MOL   C52448830   3.983   4.300   4.410 -0.2549  0.4253  0.1581
   84MOL   C52548831   3.920   4.172   4.475 -1.1622 -1.6048 -0.0543
   84MOL   O52648832   3.810   4.212   4.544 -0.0987 -0.7607 -0.2085
   84MOL   C52748833   4.024   4.091   4.562 -0.1242 -0.3341 -0.2408
   84MOL   O52848834   3.987   3.959   4.599  1.0693 -0.4522 -0.5187
   84MOL   C52948835   4.080   3.876   4.657 -0.1147  0.8188  0.6455
   84MOL   C53048836   4.001   3.786   4.755  0.3005  0.9463  0.7650
   84MOL   C53148837   3.960   3.858   4.891 -0.5528 -0.5802 -0.0577
   84MOL   O53248838   3.864   3.766   4.938  0.5595 -0.2090  1.1826
   84MOL   C53348839   3.847   3.769   5.073 -0.2442 -0.0023  0.3244
   84MOL   O53448840   3.764   3.872   5.106  0.2922 -0.1971 -0.1333
   84MOL   C53548841   3.785   3.649   5.121  0.0455  0.4116 -0.3650
   84MOL   O53648842   3.651   3.653   5.070 -0.0563  0.3690  0.1265
   84MOL   H53748843   4.049   4.265   4.330  0.0375 -2.3393  1.5186
   84MOL   H53848844   3.901   4.342   4.353 -1.6105  0.1098  1.8302
   84MOL   H53948845   3.872   4.116   4.395 -1.1564  0.3715 -1.4760
   84MOL   H54048846   3.840   4.270   4.613 -0.0636 -0.1257 -0.7591
   84MOL   H54148847   4.120   4.092   4.510  1.7516  3.6270  2.9948
   84MOL   H54248848   4.042   4.143   4.656  0.7479  1.0980 -1.1844
   84MOL   H54348849   4.168   3.927   4.697  1.1760  0.9461 -2.2182
   84MOL   H54448850   4.112   3.814   4.574 -1.5531  1.3213 -0.3070
   84MOL   H54548851   4.065   3.698   4.764 -5.4079 -3.5679  0.2028
   84MOL   H54648852   3.922   3.751   4.688  0.4839 -1.3752  1.7185
   84MOL   H54748853   4.048   3.864   4.955 -0.8748 -0.7495  0.4039
   84MOL   H54848854   3.912   3.952   4.866  0.3077  0.3301  1.6949
   84MOL   H54948855   3.944   3.779   5.122  1.3709 -1.1313 -2.5518
   84MOL   H55048856   3.679   3.849   5.073  0.2195 -0.9572  0.5761
   84MOL   H55148857   3.847   3.561   5.102  1.1988  0.6471  2.0300
   84MOL   H55248858   3.761   3.654   5.227  1.4150 -0.6111  0.0226
   84MOL   C55348859   3.572   3.537   5.088 -0.6071  0.3636 -0.4288
   84MOL   C55448860   3.425   3.548   5.045  0.0846  0.3530  0.0311
   84MOL   O55548861   3.362   3.627   5.143  0.4622  0.2423  0.5626
   84MOL   C55648862   3.362   3.408   5.043  0.1684 -0.1451  0.4963
   84MOL   O55748863   3.219   3.418   5.019 -0.0339  0.1907  0.6305
   84MOL   C55848864   3.138   3.344   5.103 -0.0030 -0.0764  0.0562
   84MOL   C55948865   3.153   3.192   5.088 -0.2826 -0.1866  0.0810
   84MOL   C56048866   3.041   3.124   5.168 -0.2478 -0.7291 -0.2017
   84MOL   O56148867   3.085   2.987   5.174  0.1504 -0.0200  0.2636
   84MOL   C56248868   3.016   2.890   5.101 -0.4436 -0.4585  0.5082
   84MOL   O56348869   3.023   2.924   4.965  0.0289  0.3548 -0.2930
   84MOL   C56448870   3.081   2.748   5.122 -0.3506  0.4639  0.7003
   84MOL   O56548871   3.041   2.710   5.252  0.1461  0.1380 -0.0303
   84MOL   H56648872   3.581   3.519   5.195 -2.9448 -1.0244 -0.4144
   84MOL   H56748873   3.625   3.449   5.051 -0.1514  1.1558 -1.6898
   84MOL   H56848874   3.424   3.588   4.943  0.1907  0.4677  0.0748
   84MOL   H56948875   3.409   3.709   5.148 -0.4801  0.9285 -1.2796
   84MOL   H57048876   3.410   3.347   4.966  1.3683  0.5504  0.6837
   84MOL   H57148877   3.385   3.351   5.132 -1.0470  0.5037  1.2407
   84MOL   H57248878   3.155   3.368   5.208 -0.0632 -4.1748  1.0831
   84MOL   H57348879   3.033   3.367   5.081  0.2162 -0.2674 -1.1829
   84MOL   H57448880   3.251   3.166   5.128 -0.2700 -0.4622 -0.1300
   84MOL   H57548881   3.158   3.180   4.980 -1.3371  0.8739 -0.0957
   84MOL   H57648882   3.037   3.160   5.271 -0.9196 -0.9444 -0.1487
   84MOL   H57748883   2.941   3.122   5.126 -1.6107 -1.1843  2.9433
   84MOL   H57848884   2.910   2.874   5.120 -0.4236  1.0978  2.1697
   84MOL   H57948885   2.956   2.989   4.951 -1.3858 -0.5543  1.8658
   84MOL   H58048886   3.058   2.680   5.040  0.4370  0.6453  0.3272
   84MOL   H58148887   3.187   2.772   5.114  0.2415 -2.1463  0.4261
   84MOL   H58248888   3.030   2.792   5.297 -1.3430  0.6478 -1.2947
   85MOL     C148889   1.294   3.170   1.632 -0.7142 -0.2637 -0.5267
   85MOL     C248890   1.263   3.022   1.613 -0.3195  0.2168 -0.4667
   85MOL     O348891   1.384   2.975   1.566 -0.3236  0.2973 -0.3650
   85MOL     C448892   1.233   2.956   1.741  0.3070 -0.4040  0.2409
   85MOL     O548893   1.224   2.821   1.717 -0.5092  0.2352  0.0564
   85MOL     C648894   1.239   2.741   1.824 -0.1159  0.1307  0.2289
   85MOL     C748895   1.393   2.714   1.854 -0.3607 -0.2862 -0.4928
   85MOL     C848896   1.413   2.604   1.956  0.3727  0.0314 -0.2592
   85MOL     O948897   1.546   2.595   2.006 -0.3424  0.4786 -0.0879
   85MOL    C1048898   1.573   2.505   2.105  0.0414 -0.3372  1.1084
   85MOL    O1148899   1.539   2.547   2.233 -0.0491 -0.1931 -0.3599
   85MOL    C1248900   1.723   2.463   2.097  0.7680 -0.5548 -0.5363
   85MOL    O1348901   1.743   2.363   1.999 -0.6548 -0.2083  0.0966
   85MOL    H1448902   1.202   3.215   1.668  0.1666  1.9266 -0.9008
   85MOL    H1548903   1.337   3.217   1.543 -0.5166  1.4152  0.4193
   85MOL    H1648904   1.188   3.006   1.536  0.4913 -0.4891 -1.1193
   85MOL    H1748905   1.374   2.882   1.551 -0.6772  0.5324 -1.6446
   85MOL    H1848906   1.298   2.976   1.827 -0.5163  0.7924  0.6039
   85MOL    H1948907   1.138   2.982   1.788 -0.3361 -3.8061  0.9523
   85MOL    H2048908   1.191   2.644   1.814  0.2606  0.0045 -0.4028
   85MOL    H2148909   1.182   2.782   1.907 -1.1781 -0.9240  0.0298
   85MOL    H2248910   1.457   2.797   1.886 -1.7450  1.1377 -1.3643
   85MOL    H2348911   1.435   2.668   1.765  0.9192 -0.7641  0.3251
   85MOL    H2448912   1.347   2.619   2.042 -0.3219 -1.8405 -0.4336
   85MOL    H2548913   1.391   2.504   1.918 -1.1323  0.4870 -0.6061
   85MOL    H2648914   1.522   2.413   2.075 -0.8536  0.5559 -0.1899
   85MOL    H2748915   1.619   2.581   2.270 -0.1654 -0.5416  0.2059
   85MOL    H2848916   1.771   2.559   2.078 -0.1077  0.0806  0.4502
   85MOL    H2948917   1.753   2.420   2.193 -0.4320 -1.1881 -0.4373
   85MOL    H3048918   1.368   3.196   1.708 -0.0600  0.0269 -1.2578
   85MOL    C3148919   1.875   2.328   1.993  0.1099  0.1584  0.0279
   85MOL    C3248920   1.865   2.183   1.927  0.6293 -0.6070  0.5861
   85MOL    O3348921   1.839   2.086   2.027  0.2258  0.6530 -0.2169
   85MOL    C3448922   2.003   2.145   1.869  0.4419  0.1193 -0.4073
   85MOL    O3548923   2.019   2.023   1.812  0.1110  0.0469  0.1049
   85MOL    C3648924   2.141   1.990   1.762 -0.3777 -0.1017  0.1175
   85MOL    C3748925   2.127   1.838   1.741 -0.6856  0.1297 -0.5700
   85MOL    C3848926   2.256   1.763   1.717 -0.1728  0.2490  0.1508
   85MOL    O3948927   2.332   1.815   1.606  0.1420  0.0118  0.4500
   85MOL    C4048928   2.277   1.779   1.480 -0.6299 -0.3791 -0.3811
   85MOL    O4148929   2.269   1.642   1.465  0.5160  0.1234 -0.2584
   85MOL    C4248930   2.366   1.846   1.380  0.3850 -0.3246  0.5681
   85MOL    O4348931   2.350   1.989   1.375 -0.1826  0.1908  0.4788
   85MOL    H4448932   1.932   2.392   1.925 -1.1166  1.2364 -0.0068
   85MOL    H4548933   1.930   2.332   2.086  2.2344  2.5774 -1.2590
   85MOL    H4648934   1.787   2.166   1.853  1.4372 -1.2895 -0.1222
   85MOL    H4748935   1.822   2.002   1.988 -2.8711  1.5215 -0.9019
   85MOL    H4848936   2.027   2.211   1.785  1.3965 -1.5290 -1.4554
   85MOL    H4948937   2.081   2.160   1.943 -0.7474 -0.0050  0.8819
   85MOL    H5048938   2.224   2.009   1.830 -0.6486  0.3325  0.3325
   85MOL    H5148939   2.158   2.035   1.664 -0.9944 -1.1901 -0.4923
   85MOL    H5248940   2.055   1.816   1.663 -2.0816 -0.6457  0.8999
   85MOL    H5348941   2.088   1.793   1.832 -2.3925  2.0061 -0.3509
   85MOL    H5448942   2.327   1.778   1.799  2.3983 -0.7210 -1.8186
   85MOL    H5548943   2.235   1.656   1.712 -0.8100  0.4270 -1.2039
   85MOL    H5648944   2.177   1.821   1.476 -0.9736 -1.1114  0.4704
   85MOL    H5748945   2.357   1.610   1.451  1.3779  1.9074  0.9306
   85MOL    H5848946   2.472   1.818   1.383  0.2959 -0.5753  1.3995
   85MOL    H5948947   2.333   1.803   1.286 -1.1987  0.4526  0.7473
   85MOL    C6048948   2.443   2.067   1.447  0.2395 -0.0882 -0.2246
   85MOL    C6148949   2.412   2.218   1.440 -0.5764 -0.0947 -0.5560
   85MOL    O6248950   2.519   2.312   1.461  0.0010 -0.7522  0.4381
   85MOL    C6348951   2.295   2.264   1.527  0.2270 -0.3874  0.0742
   85MOL    O6448952   2.268   2.405   1.503 -0.3524  0.5616  0.6368
   85MOL    C6548953   2.162   2.458   1.578  0.5453 -0.4390  0.2266
   85MOL    C6648954   2.027   2.437   1.506 -1.1120 -0.5671  0.0137
   85MOL    C6748955   1.902   2.502   1.588 -0.6275  0.3296  0.6265
   85MOL    O6848956   1.784   2.502   1.512 -0.5280  0.9574  0.8117
   85MOL    C6948957   1.690   2.569   1.588  0.2073 -0.2478 -0.1610
   85MOL    O7048958   1.691   2.710   1.567  0.4377  0.0046  0.0375
   85MOL    C7148959   1.547   2.520   1.542 -0.7651 -0.0571  0.1950
   85MOL    O7248960   1.498   2.416   1.627  0.1565  0.4238 -0.2509
   85MOL    H7348961   2.539   2.051   1.399  0.3778  0.4013 -0.1240
   85MOL    H7448962   2.441   2.037   1.552  1.6367  2.2381  0.5049
   85MOL    H7548963   2.378   2.242   1.339 -1.8984 -1.3893 -0.4324
   85MOL    H7648964   2.473   2.393   1.477  0.4344 -0.2010 -1.0083
   85MOL    H7748965   2.210   2.199   1.505  0.0980 -0.6597  1.3383
   85MOL    H7848966   2.299   2.246   1.634 -0.0538 -0.2111  0.1131
   85MOL    H7948967   2.186   2.564   1.588 -2.2643  0.1856  0.7552
   85MOL    H8048968   2.181   2.424   1.680  0.1279  2.5267  1.3363
   85MOL    H8148969   2.017   2.329   1.494 -1.7453 -0.6324  1.0604
   85MOL    H8248970   2.033   2.494   1.413 -1.9603  0.8893  0.8313
   85MOL    H8348971   1.939   2.596   1.629 -0.8735  1.5907 -1.9269
   85MOL    H8448972   1.884   2.442   1.677  3.4998 -0.6043  0.9471
   85MOL    H8548973   1.703   2.553   1.695  2.2410  1.0928 -0.1822
   85MOL    H8648974   1.633   2.718   1.493  0.7577 -0.6930 -0.3014
   85MOL    H8748975   1.477   2.602   1.555  0.2936  1.3874 -2.8576
   85MOL    H8848976   1.550   2.482   1.440 -0.8931 -0.7741  0.4512
   85MOL    C8948977   1.376   2.362   1.589 -0.0657 -0.4260  0.5352
   85MOL    C9048978   1.316   2.279   1.715 -0.2402 -0.0898 -0.5704
   85MOL    O9148979   1.216   2.185   1.682 -0.4627 -0.2600 -0.0010
   85MOL    C9248980   1.423   2.219   1.804  0.5192  0.0876  0.4397
   85MOL    O9348981   1.376   2.164   1.929 -0.0149 -0.3566 -0.8388
   85MOL    C9448982   1.479   2.084   1.994  0.3390 -0.3518 -0.3037
   85MOL    C9548983   1.433   2.064   2.140 -0.1705  0.6713  0.4199
   85MOL    C9648984   1.480   2.178   2.225  0.4140  0.2076 -0.1778
   85MOL    O9748985   1.447   2.160   2.359  0.3270 -0.0620 -0.1341
   85MOL    C9848986   1.429   2.276   2.438 -0.3837  0.2734 -0.4658
   85MOL    O9948987   1.317   2.352   2.406 -0.6184  0.2570 -0.1353
   85MOL   C10048988   1.435   2.239   2.585  0.6558 -0.1247 -0.4351
   85MOL   O10148989   1.544   2.156   2.613  0.5831  0.0835  0.0744
   85MOL   H10248990   1.399   2.292   1.508  1.1263  0.9110 -0.3061
   85MOL   H10348991   1.305   2.434   1.547 -0.7391 -1.3231  0.1200
   85MOL   H10448992   1.260   2.356   1.768 -1.7721 -1.4402 -0.1909
   85MOL   H10548993   1.135   2.208   1.726  1.0027  0.2957  2.5614
   85MOL   H10648994   1.485   2.148   1.749 -0.1673  0.4341 -0.8142
   85MOL   H10748995   1.494   2.297   1.832  0.2431 -0.4018  2.5092
   85MOL   H10848996   1.579   2.127   1.994  0.6794 -1.1256 -0.6573
   85MOL   H10948997   1.484   1.983   1.954 -0.3452 -0.6179  0.2634
   85MOL   H11048998   1.469   1.966   2.172  0.1046  1.3906  2.4411
   85MOL   H11148999   1.325   2.054   2.139 -0.0707 -0.2974 -1.4239
   85MOL   H11249000   1.588   2.191   2.213  0.1379  0.7317 -2.2065
   85MOL   H11349001   1.434   2.273   2.196  0.0751 -1.1602 -4.4059
   85MOL   H11449002   1.520   2.335   2.425 -0.0565  0.4782  2.5257
   85MOL   H11549003   1.247   2.322   2.463 -1.0467  0.0593 -0.7633
   85MOL   H11649004   1.426   2.321   2.656 -1.3729 -1.2389  0.6454
   85MOL   H11749005   1.344   2.183   2.609  1.6314 -1.1885  0.8612
   85MOL   C11849006   1.555   2.110   2.750 -0.6544  0.2053 -0.1880
   85MOL   C11949007   1.674   2.021   2.758 -0.6964  0.7151 -0.4552
   85MOL   O12049008   1.650   1.896   2.813 -0.3728  0.5796 -0.3106
   85MOL   C12149009   1.792   2.082   2.843  0.5027 -0.2931 -0.0337
   85MOL   O12249010   1.725   2.118   2.960 -0.2328 -0.5870  0.4084
   85MOL   C12349011   1.797   2.218   3.026  0.2600  0.2895 -0.3760
   85MOL   C12449012   1.718   2.249   3.154  0.3014 -0.3647  0.2951
   85MOL   C12549013   1.800   2.335   3.251  0.3960 -0.0260  0.0706
   85MOL   O12649014   1.733   2.365   3.367  0.5633  0.0025  0.4642
   85MOL   C12749015   1.626   2.460   3.363 -0.5188  0.0825 -0.2703
   85MOL   O12849016   1.670   2.591   3.346 -0.0047  0.1416  0.1576
   85MOL   C12949017   1.549   2.462   3.502  0.1703 -0.0268 -0.7720
   85MOL   O13049018   1.484   2.341   3.517  0.6988 -0.0145  0.6273
   85MOL   H13149019   1.570   2.195   2.817 -0.5406  1.1861 -1.4378
   85MOL   H13249020   1.462   2.057   2.771 -0.4231  0.1501  0.6882
   85MOL   H13349021   1.706   1.991   2.658  0.4057 -0.4279  0.2187
   85MOL   H13449022   1.640   1.912   2.906 -3.8118 -0.6090 -0.4448
   85MOL   H13549023   1.869   2.010   2.872  0.9825  0.3571  0.2995
   85MOL   H13649024   1.841   2.166   2.794 -2.0673  1.1647 -0.1519
   85MOL   H13749025   1.798   2.316   2.979 -3.3525  0.2441 -0.7067
   85MOL   H13849026   1.900   2.194   3.049  0.3842 -1.1108 -2.3240
   85MOL   H13949027   1.691   2.159   3.209  0.5667 -0.2668  0.5893
   85MOL   H14049028   1.621   2.291   3.128  0.6872 -0.5346 -1.5246
   85MOL   H14149029   1.885   2.278   3.288 -0.7717 -1.3311  0.7914
   85MOL   H14249030   1.840   2.426   3.206 -0.4650  0.6521  0.6621
   85MOL   H14349031   1.553   2.441   3.284 -2.8392 -0.0089  1.8220
   85MOL   H14449032   1.649   2.637   3.426  1.9408 -1.6193  1.7490
   85MOL   H14549033   1.612   2.480   3.588 -0.7273  1.2635 -0.3737
   85MOL   H14649034   1.481   2.547   3.493  0.6346  0.1286 -3.4350
   85MOL   C14749035   1.431   2.315   3.645 -0.0629 -0.5595  0.6603
   85MOL   C14849036   1.501   2.197   3.712 -0.4766  0.7503  0.6049
   85MOL   O14949037   1.414   2.144   3.798 -0.1364 -0.2700 -0.2380
   85MOL   C15049038   1.616   2.243   3.800 -0.4727 -0.1667 -0.4812
   85MOL   O15149039   1.666   2.139   3.877 -0.1655  0.6525 -0.6473
   85MOL   C15249040   1.779   2.174   3.955 -0.0858  0.8522 -0.1846
   85MOL   C15349041   1.835   2.041   3.996 -0.5916  0.2963 -0.0367
   85MOL   C15449042   1.975   2.055   4.065  0.3487  0.1401 -0.0883
   85MOL   O15549043   2.010   1.930   4.123  0.3593  0.5791 -0.2659
   85MOL   C15649044   2.146   1.897   4.134 -0.0010  0.7501 -0.2662
   85MOL   O15749045   2.162   1.760   4.162  0.2925 -0.0787 -0.6399
   85MOL   C15849046   2.213   1.973   4.246 -0.6339  0.0199 -0.2255
   85MOL   O15949047   2.225   2.113   4.214  0.2396  0.4090  0.2810
   85MOL   H16049048   1.328   2.286   3.621 -0.7116  1.7347  0.6176
   85MOL   H16149049   1.413   2.400   3.710 -0.7139  1.4600 -2.0943
   85MOL   H16249050   1.537   2.122   3.642  0.6726  1.4107  0.4872
   85MOL   H16349051   1.467   2.079   3.842  3.9122  0.9987 -2.9864
   85MOL   H16449052   1.690   2.280   3.730  0.4433 -0.0925  0.5204
   85MOL   H16549053   1.582   2.329   3.859 -1.5659 -2.0931  1.7546
   85MOL   H16649054   1.737   2.234   4.035 -0.8448 -0.4784  0.4201
   85MOL   H16749055   1.848   2.232   3.893  0.1951 -1.3054 -1.9656
   85MOL   H16849056   1.848   1.970   3.914  4.3753 -1.2149  1.8792
   85MOL   H16949057   1.761   2.002   4.066  0.2961 -0.3337  0.5672
   85MOL   H17049058   2.058   2.081   3.998  1.0376 -0.4229  0.5432
   85MOL   H17149059   1.975   2.128   4.146 -0.8636 -0.2541  0.2679
   85MOL   H17249060   2.207   1.910   4.045  0.9664  2.9921  0.6776
   85MOL   H17349061   2.141   1.709   4.085  1.8970 -1.9251  0.0821
   85MOL   H17449062   2.165   1.943   4.340  1.0257 -0.1151  0.6015
   85MOL   H17549063   2.310   1.926   4.260 -0.1588  1.1724  0.3750
   85MOL   C17649064   2.302   2.194   4.305  0.3461  0.1835 -0.0157
   85MOL   C17749065   2.244   2.272   4.424  0.4052  0.8615  0.0708
   85MOL   O17849066   2.177   2.183   4.508  0.0136 -0.1669  0.0287
   85MOL   C17949067   2.145   2.377   4.385  0.5216  0.0842  0.0517
   85MOL   O18049068   2.211   2.503   4.363  0.0146  0.0183  0.5647
   85MOL   C18149069   2.130   2.601   4.302 -0.0075 -0.4012  0.1192
   85MOL   C18249070   2.201   2.735   4.285 -0.7387 -0.5699 -0.3020
   85MOL   C18349071   2.163   2.822   4.168  0.2125 -0.7243  0.0347
   85MOL   O18449072   2.021   2.852   4.178  0.1088 -0.1164 -0.2789
   85MOL   C18549073   1.972   2.938   4.077 -0.2035 -0.8131 -0.2828
   85MOL   O18649074   2.030   3.069   4.083  0.2793  0.4960  0.2150
   85MOL   C18749075   1.815   2.953   4.087 -0.2935 -0.3698  0.8086
   85MOL   O18849076   1.751   2.964   3.956  0.0277  0.3228 -0.0669
   85MOL   H18949077   2.363   2.260   4.244 -0.8796 -0.5512 -2.0720
   85MOL   H19049078   2.386   2.136   4.343  1.2521  2.1930  1.0956
   85MOL   H19149079   2.324   2.310   4.488  0.3240  1.7664 -0.3585
   85MOL   H19249080   2.228   2.104   4.522  0.3871  0.0187 -0.3023
   85MOL   H19349081   2.087   2.347   4.298  2.0013 -1.3523 -0.4704
   85MOL   H19449082   2.082   2.398   4.471 -0.3143  0.1997 -0.5834
   85MOL   H19549083   2.044   2.619   4.366  0.7848  0.1678  1.0448
   85MOL   H19649084   2.097   2.574   4.202 -0.9148 -2.2255  0.8880
   85MOL   H19749085   2.309   2.727   4.284 -0.3100  3.7096 -2.8274
   85MOL   H19849086   2.179   2.791   4.376 -1.0862  0.0673 -0.7678
   85MOL   H19949087   2.228   2.910   4.161  1.1493 -1.2466  1.8805
   85MOL   H20049088   2.164   2.767   4.074  0.8098  1.0188 -1.0044
   85MOL   H20149089   2.001   2.889   3.984 -0.3027 -0.7331 -0.3558
   85MOL   H20249090   1.993   3.111   4.008  1.1369  1.0968  0.1183
   85MOL   H20349091   1.770   2.864   4.131  1.1228 -0.1440  2.7982
   85MOL   H20449092   1.785   3.040   4.146 -1.3170 -0.3126  0.2040
   85MOL   C20549093   1.756   2.858   3.866  0.6070 -0.0720  0.0383
   85MOL   C20649094   1.675   2.902   3.737 -0.2645  0.4353  0.2465
   85MOL   O20749095   1.739   3.020   3.678 -0.5047  0.2161 -0.1102
   85MOL   C20849096   1.685   2.793   3.635 -0.1450 -0.0467 -0.0256
   85MOL   O20949097   1.578   2.788   3.537 -0.1794  0.0516 -0.0633
   85MOL   C21049098   1.591   2.885   3.439 -0.2738  0.2842  0.5491
   85MOL   C21149099   1.476   2.881   3.340 -0.1146  0.1748 -0.3700
   85MOL   C21249100   1.464   2.994   3.239  0.4178  0.3987  0.2154
   85MOL   O21349101   1.471   3.119   3.302 -0.0852 -0.4980  0.2075
   85MOL   C21449102   1.453   3.224   3.212  0.0718  0.8981  0.0769
   85MOL   O21549103   1.542   3.216   3.101  0.2544  0.4724  0.5201
   85MOL   C21649104   1.477   3.350   3.299 -0.2216 -0.4755 -0.0659
   85MOL   O21749105   1.357   3.400   3.358  0.1590  0.2109 -0.5670
   85MOL   H21849106   1.695   2.779   3.909 -1.3649  1.9747  1.1658
   85MOL   H21949107   1.861   2.834   3.854  0.6894  0.0712  0.4392
   85MOL   H22049108   1.576   2.930   3.773 -0.2794 -2.0437  2.2892
   85MOL   H22149109   1.768   3.065   3.755 -1.2861  0.1395  0.2233
   85MOL   H22249110   1.783   2.792   3.586 -0.4111 -0.5534 -0.5430
   85MOL   H22349111   1.678   2.701   3.692  1.4203 -0.4303 -0.4400
   85MOL   H22449112   1.683   2.863   3.385  0.8564 -2.5047  3.4789
   85MOL   H22549113   1.597   2.984   3.483 -1.0749  0.5031  0.1905
   85MOL   H22649114   1.390   2.879   3.406 -0.4213 -2.7521 -0.8157
   85MOL   H22749115   1.468   2.780   3.299  2.1511  0.1706 -0.8491
   85MOL   H22849116   1.559   2.981   3.188  0.5920 -2.7073  1.2128
   85MOL   H22949117   1.379   2.980   3.171 -0.0462  0.9564  0.6736
   85MOL   H23049118   1.353   3.233   3.169  0.3009  2.9663 -0.0770
   85MOL   H23149119   1.632   3.220   3.131  0.2046 -0.1837  0.7657
   85MOL   H23249120   1.546   3.329   3.381 -0.1304 -0.1350 -0.0583
   85MOL   H23349121   1.528   3.425   3.239  1.8475 -1.2890  0.6126
   85MOL   C23449122   1.271   3.457   3.261 -0.2364  0.7598  0.0731
   85MOL   C23549123   1.160   3.533   3.339 -0.5621 -0.2379  0.3032
   85MOL   O23649124   1.065   3.434   3.374 -0.0908  0.5130 -0.1453
   85MOL   C23749125   1.081   3.621   3.242  0.3755 -0.2193  0.6965
   85MOL   O23849126   0.982   3.691   3.312  0.0142 -0.1389  0.5491
   85MOL   C23949127   0.871   3.729   3.238 -0.5647  0.6815 -0.1990
   85MOL   C24049128   0.780   3.828   3.317  0.1872  0.1573 -0.5609
   85MOL   C24149129   0.642   3.839   3.256 -0.0461 -0.6725 -0.2595
   85MOL   O24249130   0.555   3.725   3.292  0.2630  0.8882  0.2927
   85MOL   C24349131   0.419   3.743   3.256  0.9698 -0.3501  0.3171
   85MOL   O24449132   0.362   3.836   3.344  0.3887  0.3353  0.1097
   85MOL   C24549133   0.338   3.612   3.260  0.4857 -0.2064 -0.2551
   85MOL   O24649134   0.384   3.522   3.158  0.7900  0.4173  0.0210
   85MOL   H24749135   1.335   3.521   3.201  1.4984 -0.1081  0.9821
   85MOL   H24849136   1.222   3.384   3.197  1.7562  0.0837 -0.7106
   85MOL   H24949137   1.191   3.580   3.432 -1.4254  2.1533 -0.5684
   85MOL   H25049138   0.992   3.482   3.411  0.8035  1.3318  0.5653
   85MOL   H25149139   1.143   3.695   3.193 -0.9058  1.2040  1.2054
   85MOL   H25249140   1.049   3.566   3.154  1.3968  0.6728 -0.2370
   85MOL   H25349141   0.827   3.631   3.220 -0.2226  0.2870  1.0647
   85MOL   H25449142   0.890   3.769   3.138 -1.7214  1.0288 -0.2934
   85MOL   H25549143   0.839   3.918   3.336  0.8440  0.2056 -2.6794
   85MOL   H25649144   0.765   3.788   3.417 -0.2504  0.1113 -0.6460
   85MOL   H25749145   0.595   3.933   3.284 -1.1139 -0.6683 -1.9796
   85MOL   H25849146   0.625   3.837   3.149 -2.6993 -0.5522  0.1036
   85MOL   H25949147   0.414   3.787   3.156  1.2453 -0.4787  0.2462
   85MOL   H26049148   0.361   3.795   3.429  2.3951  0.0924  0.0541
   85MOL   H26149149   0.329   3.586   3.365 -0.6605 -1.0823 -0.5609
   85MOL   H26249150   0.231   3.616   3.239  0.6112 -0.9800 -1.0433
   85MOL   C26349151   0.522   3.472   3.179 -0.0179 -0.0312  0.3780
   85MOL   C26449152   0.547   3.342   3.100 -0.0731 -0.2651 -0.2559
   85MOL   O26549153   0.533   3.379   2.966 -0.1011 -0.6906  0.4057
   85MOL   C26649154   0.693   3.299   3.125  0.3659 -0.8358 -0.6652
   85MOL   O26749155   0.689   3.154   3.136  0.3021  0.5722 -0.6110
   85MOL   C26849156   0.706   3.086   3.011  0.4280 -0.1384  0.0729
   85MOL   C26949157   0.652   2.948   3.041 -0.0191  0.2232  0.1822
   85MOL   C27049158   0.690   2.830   2.946  0.5455  0.2975  0.9694
   85MOL   O27149159   0.655   2.852   2.810  0.1359 -0.0916 -0.2295
   85MOL   C27249160   0.627   2.734   2.735 -0.7461 -0.2603 -0.5754
   85MOL   O27349161   0.508   2.754   2.670 -0.1109  0.1016  0.2973
   85MOL   C27449162   0.735   2.705   2.637  0.6833 -0.3029  0.3017
   85MOL   O27549163   0.860   2.669   2.704 -0.4300  0.0541 -0.2980
   85MOL   H27649164   0.548   3.447   3.281  1.5993 -1.0084 -0.2481
   85MOL   H27749165   0.603   3.540   3.150 -1.5458  1.4565 -0.4608
   85MOL   H27849166   0.472   3.269   3.131 -1.0268  0.6056 -0.4661
   85MOL   H27949167   0.451   3.423   2.954 -0.1849 -0.9467  0.0024
   85MOL   H28049168   0.763   3.327   3.046 -0.7827  1.3576 -0.9390
   85MOL   H28149169   0.733   3.336   3.220 -0.0514  0.2713 -0.9181
   85MOL   H28249170   0.812   3.082   2.987  0.4200  2.9817 -0.6378
   85MOL   H28349171   0.635   3.138   2.946  0.0454 -0.0156  0.5871
   85MOL   H28449172   0.543   2.955   3.046  0.0080  2.0641 -1.0592
   85MOL   H28549173   0.683   2.919   3.141  0.0964  2.4032  0.8079
   85MOL   H28649174   0.798   2.819   2.942  0.7237  2.2976 -1.6848
   85MOL   H28749175   0.654   2.735   2.984  0.7190 -0.3047 -0.3248
   85MOL   H28849176   0.613   2.642   2.791 -1.5817  0.9597  1.2571
   85MOL   H28949177   0.442   2.762   2.737  0.7199 -0.9548  1.2619
   85MOL   H29049178   0.702   2.625   2.571  0.6144  0.8901 -1.1335
   85MOL   H29149179   0.741   2.788   2.567  2.7535 -0.2128  0.5376
   85MOL   C29249180   0.972   2.675   2.611 -0.0589  0.4959 -0.2343
   85MOL   C29349181   1.096   2.682   2.701 -0.4084 -0.0107  0.3006
   85MOL   O29449182   1.080   2.579   2.798  0.2647 -0.2670  0.5844
   85MOL   C29549183   1.226   2.651   2.623 -0.2874 -0.8450 -0.0894
   85MOL   O29649184   1.231   2.752   2.524  0.2041 -0.1996 -0.0642
   85MOL   C29749185   1.332   2.742   2.428  0.1907  0.1623  0.6130
   85MOL   C29849186   1.347   2.879   2.361 -0.6108  0.1360 -0.1445
   85MOL   C29949187   1.464   2.887   2.260 -0.8430 -0.0432 -0.9418
   85MOL   O30049188   1.596   2.879   2.318  0.1186  0.0143  0.1084
   85MOL   C30149189   1.681   2.875   2.213  0.0708 -0.3127 -0.5587
   85MOL   O30249190   1.694   3.004   2.163  0.2770 -0.1601  0.4113
   85MOL   C30349191   1.807   2.827   2.277  0.0315  0.3391  0.4046
   85MOL   O30449192   1.799   2.691   2.292 -0.0551 -0.0281  0.1401
   85MOL   H30549193   0.962   2.585   2.550 -0.5434 -0.5459  1.3777
   85MOL   H30649194   0.968   2.765   2.548 -2.5389  1.6257  1.4945
   85MOL   H30749195   1.096   2.778   2.753  0.6120  0.4028 -0.4493
   85MOL   H30849196   0.994   2.586   2.836 -0.3964  0.9527 -1.0595
   85MOL   H30949197   1.312   2.642   2.688 -0.2945 -0.8202 -0.0767
   85MOL   H31049198   1.219   2.553   2.577 -0.3593 -0.4890 -0.8557
   85MOL   H31149199   1.318   2.657   2.360  2.0688  0.2720  0.0709
   85MOL   H31249200   1.422   2.745   2.489 -0.8835  2.7385  2.1850
   85MOL   H31349201   1.347   2.958   2.437 -0.8949 -1.8602  1.9963
   85MOL   H31449202   1.256   2.892   2.303 -1.4371  0.5818  1.2125
   85MOL   H31549203   1.449   2.816   2.179 -0.6977 -1.9549  0.6780
   85MOL   H31649204   1.454   2.984   2.210  0.6836 -1.0596 -3.2753
   85MOL   H31749205   1.651   2.806   2.134 -0.8627 -2.1762  1.3625
   85MOL   H31849206   1.766   3.004   2.102  0.0045 -0.0397  0.0903
   85MOL   H31949207   1.819   2.864   2.379 -1.3340  0.6244  0.4692
   85MOL   H32049208   1.894   2.872   2.229  0.1797 -0.8984 -0.4910
   85MOL   C32149209   1.912   2.631   2.357  0.3202 -0.2887 -0.2980
   85MOL   C32249210   1.904   2.629   2.513 -0.1055  0.3399 -0.6501
   85MOL   O32349211   1.952   2.749   2.571  0.4857 -0.4598 -0.6427
   85MOL   C32449212   1.768   2.602   2.572  0.7358  0.0205 -0.0289
   85MOL   O32549213   1.773   2.611   2.718 -0.1648  0.3075  0.3100
   85MOL   C32649214   1.644   2.573   2.767 -0.6454 -0.1099 -0.0313
   85MOL   C32749215   1.637   2.624   2.916 -0.3278  0.3701  1.4511
   85MOL   C32849216   1.493   2.584   2.973  0.0631 -0.3348 -0.3997
   85MOL   O32949217   1.477   2.444   2.975  0.8773  0.1195  0.4172
   85MOL   C33049218   1.336   2.413   2.968 -0.5573  0.5118  0.4104
   85MOL   O33149219   1.289   2.420   2.838 -0.3672 -0.2135  0.6808
   85MOL   C33249220   1.310   2.258   3.001 -0.8505 -0.3871 -0.0328
   85MOL   O33349221   1.268   2.241   3.135 -0.2640  0.5544  0.2525
   85MOL   H33449222   2.004   2.681   2.329  0.1342  0.9037  1.1706
   85MOL   H33549223   1.929   2.528   2.326  1.2606 -0.2391  0.0498
   85MOL   H33649224   1.965   2.544   2.546 -1.2001  0.6328  2.2058
   85MOL   H33749225   1.969   2.741   2.664  2.1077 -0.8501 -0.9620
   85MOL   H33849226   1.738   2.502   2.543 -0.4425  0.8365 -1.7044
   85MOL   H33949227   1.692   2.675   2.541  0.2566  0.5766  2.3280
   85MOL   H34049228   1.638   2.464   2.770  2.0217 -0.3461 -1.4984
   85MOL   H34149229   1.557   2.615   2.716  0.6201  1.4854 -0.9117
   85MOL   H34249230   1.704   2.567   2.981 -1.1322 -0.1206  1.8574
   85MOL   H34349231   1.672   2.726   2.927  1.0432  0.1776 -0.8016
   85MOL   H34449232   1.473   2.611   3.076  2.8462 -0.5585  0.2543
   85MOL   H34549233   1.420   2.634   2.910 -0.2414  0.2120  0.3938
   85MOL   H34649234   1.277   2.481   3.031 -0.5545 -0.1106  1.0915
   85MOL   H34749235   1.227   2.491   2.828 -0.0948 -0.1255 -0.4472
   85MOL   H34849236   1.233   2.232   2.928 -1.5557 -1.5980  1.1255
   85MOL   H34949237   1.396   2.194   2.982 -0.3953 -0.5961  2.6181
   85MOL   C35049238   1.276   2.102   3.174 -0.4158  0.5177  0.0116
   85MOL   C35149239   1.230   2.090   3.321 -0.3680 -0.5659  0.5843
   85MOL   O35249240   1.091   2.116   3.316  0.5334  0.1416  0.0520
   85MOL   C35349241   1.250   1.946   3.366 -0.6158 -0.0122  0.4733
   85MOL   O35449242   1.292   1.916   3.500  0.0722 -0.1351  0.0738
   85MOL   C35549243   1.182   1.930   3.593  0.4211  0.0582  0.4012
   85MOL   C35649244   1.225   1.848   3.716 -0.5157  1.1677 -0.5056
   85MOL   C35749245   1.222   1.698   3.686 -0.1865  0.7182 -0.8962
   85MOL   O35849246   1.315   1.625   3.765  0.4747  0.4047  0.1545
   85MOL   C35949247   1.317   1.481   3.750 -0.3836 -0.0018 -0.6515
   85MOL   O36049248   1.358   1.439   3.624  0.3141 -0.4441  0.1182
   85MOL   C36149249   1.401   1.423   3.863  0.4235  0.3112 -0.1387
   85MOL   O36249250   1.537   1.466   3.852 -0.4588 -0.3661  0.1841
   85MOL   H36349251   1.377   2.066   3.155 -1.1742 -0.7007 -1.9419
   85MOL   H36449252   1.205   2.036   3.124  0.2332  0.7677 -1.2431
   85MOL   H36549253   1.281   2.170   3.376  0.7477 -1.5223  0.9582
   85MOL   H36649254   1.088   2.199   3.271 -0.4425  0.0249 -0.1075
   85MOL   H36749255   1.157   1.891   3.359 -0.0825 -1.0950  1.5303
   85MOL   H36849256   1.329   1.906   3.302 -0.4960  2.6554 -1.1113
   85MOL   H36949257   1.090   1.891   3.551 -0.4819  0.6147  1.8210
   85MOL   H37049258   1.172   2.035   3.619 -0.7420  0.0966 -0.2173
   85MOL   H37149259   1.155   1.861   3.799  0.5243 -0.4452  0.6532
   85MOL   H37249260   1.324   1.866   3.757  0.2582 -1.3006 -1.2163
   85MOL   H37349261   1.123   1.659   3.709  0.1695  0.4894  0.2979
   85MOL   H37449262   1.248   1.684   3.581 -1.1787  0.7603 -1.1522
   85MOL   H37549263   1.216   1.443   3.769 -0.7111  0.3186 -1.6967
   85MOL   H37649264   1.451   1.430   3.616  0.1187 -3.1899  0.1881
   85MOL   H37749265   1.357   1.463   3.954 -3.2598 -1.6618 -0.9350
   85MOL   H37849266   1.400   1.315   3.852  1.9804  0.1289  1.3178
   85MOL   C37949267   1.621   1.408   3.953 -0.4622  0.3674  0.1994
   85MOL   C38049268   1.731   1.514   3.982 -0.2050  0.6998 -0.3737
   85MOL   O38149269   1.810   1.508   3.864  0.1324  0.4726  0.3672
   85MOL   C38249270   1.688   1.657   4.009 -0.0294  0.8261  0.1113
   85MOL   O38349271   1.594   1.649   4.115  0.4918 -0.6333 -0.1864
   85MOL   C38449272   1.532   1.773   4.148  0.0312  0.4865  0.7224
   85MOL   C38549273   1.466   1.848   4.023  0.0940 -0.5331  0.2449
   85MOL   C38649274   1.380   1.963   4.079 -0.2502 -0.4306  0.0745
   85MOL   O38749275   1.466   2.055   4.148 -0.1222  0.4782  0.3258
   85MOL   C38849276   1.403   2.113   4.258 -0.2622  0.1858  0.2201
   85MOL   O38949277   1.385   2.017   4.360 -0.3805  0.2701  0.0708
   85MOL   C39049278   1.509   2.207   4.316  0.6812 -0.4599  0.4678
   85MOL   O39149279   1.610   2.128   4.376 -0.1754 -0.3167  0.6241
   85MOL   H39249280   1.659   1.309   3.927 -0.6835 -0.3566  2.5361
   85MOL   H39349281   1.553   1.384   4.034  0.3616  0.4758  0.9354
   85MOL   H39449282   1.796   1.482   4.064 -0.0791  0.0414 -0.7320
   85MOL   H39549283   1.759   1.546   3.794  2.3498  3.8355  0.4808
   85MOL   H39649284   1.772   1.722   4.036  0.5014  0.6682 -1.1530
   85MOL   H39749285   1.634   1.684   3.919 -3.5193 -0.8954  1.6006
   85MOL   H39849286   1.608   1.841   4.186  0.4931  1.1728 -1.3438
   85MOL   H39949287   1.466   1.753   4.232 -0.5868  1.2796  0.4365
   85MOL   H40049288   1.411   1.772   3.967 -0.0305 -0.3679  0.1430
   85MOL   H40149289   1.545   1.891   3.962 -0.5716  0.0897 -0.1854
   85MOL   H40249290   1.333   2.017   3.997 -0.2186  1.9620  1.5676
   85MOL   H40349291   1.299   1.919   4.137 -1.0651  0.7272 -0.1675
   85MOL   H40449292   1.309   2.163   4.234  0.4323  0.6851 -1.5924
   85MOL   H40549293   1.465   2.035   4.407  0.1619  0.5117 -0.9392
   85MOL   H40649294   1.543   2.265   4.230  0.9597 -0.8424  0.3191
   85MOL   H40749295   1.469   2.276   4.390 -0.7021 -0.7769  0.0246
   85MOL   C40849296   1.711   2.200   4.456  0.5963 -0.5590  0.1371
   85MOL   C40949297   1.810   2.102   4.520 -0.1342 -0.3440  0.1773
   85MOL   O41049298   1.905   2.186   4.583 -0.0903  0.3597  0.5477
   85MOL   C41149299   1.888   2.009   4.421  0.1847  0.3883 -0.3515
   85MOL   O41249300   1.963   1.915   4.490 -0.3820  0.0264 -0.3213
   85MOL   C41349301   1.893   1.795   4.518  0.3489  0.1672 -1.1320
   85MOL   C41449302   1.872   1.701   4.400  0.5841  0.0701 -0.2161
   85MOL   C41549303   1.853   1.560   4.445 -0.4708 -0.1257 -0.6535
   85MOL   O41649304   1.961   1.498   4.508 -0.0974 -0.2682  0.4702
   85MOL   C41749305   1.938   1.389   4.589  0.3969 -0.0455 -0.1247
   85MOL   O41849306   1.886   1.432   4.717  0.1944  0.4511  0.1798
   85MOL   C41949307   2.062   1.304   4.606 -0.1220  0.1032  0.1579
   85MOL   O42049308   2.093   1.248   4.483  0.3823  0.1150 -0.1204
   85MOL   H42149309   1.666   2.251   4.542  0.6454 -0.1535 -0.0749
   85MOL   H42249310   1.763   2.271   4.392 -2.0189 -1.5853 -3.2402
   85MOL   H42349311   1.754   2.043   4.592  1.8165 -3.0039 -0.3975
   85MOL   H42449312   1.990   2.160   4.552 -1.3292 -2.3518 -0.7646
   85MOL   H42549313   1.806   1.968   4.362 -1.8625  0.7444  2.1356
   85MOL   H42649314   1.962   2.059   4.359  1.0501 -1.1836 -0.6062
   85MOL   H42749315   1.940   1.743   4.601  0.8699  1.0937 -0.8447
   85MOL   H42849316   1.796   1.833   4.553  1.1538  0.7584  0.5415
   85MOL   H42949317   1.954   1.714   4.329  0.2429  0.3267 -0.5644
   85MOL   H43049318   1.792   1.732   4.333  0.9255 -1.9805 -1.6217
   85MOL   H43149319   1.769   1.561   4.515  1.0854  1.2131  1.2568
   85MOL   H43249320   1.826   1.495   4.363 -2.7052 -0.9928  0.7179
   85MOL   H43349321   1.868   1.324   4.537  0.0818 -1.6599  2.2449
   85MOL   H43449322   1.957   1.474   4.762  1.4552  0.0079 -1.3388
   85MOL   H43549323   2.141   1.363   4.653  2.6337 -1.0402 -2.8134
   85MOL   H43649324   2.037   1.224   4.676 -1.7158 -0.0921 -0.6069
   85MOL   C43749325   2.193   1.323   4.410 -0.7996 -0.0126 -0.4147
   85MOL   C43849326   2.181   1.269   4.261 -0.6133  0.2868  0.0429
   85MOL   O43949327   2.265   1.331   4.166  0.1426  0.3166 -0.3213
   85MOL   C44049328   2.043   1.268   4.189 -0.3095  0.6131 -0.2626
   85MOL   O44149329   2.049   1.174   4.084  0.5170  0.0469  0.3033
   85MOL   C44249330   1.935   1.193   4.003 -0.4347 -0.0370  0.3892
   85MOL   C44349331   1.947   1.084   3.902  0.0820  0.5013 -0.0150
   85MOL   C44449332   1.836   1.080   3.793  0.3664  0.8462  0.5987
   85MOL   O44549333   1.850   1.184   3.702  0.0977 -0.0983  0.1654
   85MOL   C44649334   1.752   1.205   3.604 -0.4601 -0.5704  0.0902
   85MOL   O44749335   1.752   1.106   3.501  0.0944  0.7155  0.6853
   85MOL   C44849336   1.789   1.333   3.531  0.0908  0.4610 -0.1718
   85MOL   O44949337   1.677   1.421   3.529  0.1992  0.2524 -0.1012
   85MOL   H45049338   2.189   1.431   4.424 -1.0635 -0.2159  1.0936
   85MOL   H45149339   2.292   1.286   4.439 -0.1276  1.3692 -0.8943
   85MOL   H45249340   2.209   1.163   4.260  1.3955  0.7913  0.5660
   85MOL   H45349341   2.252   1.290   4.083  0.2130  0.5977 -0.4721
   85MOL   H45449342   1.957   1.238   4.249  0.3785 -0.5301  0.1602
   85MOL   H45549343   2.019   1.370   4.159 -0.2807  0.7814  0.2752
   85MOL   H45649344   1.943   1.291   3.956 -0.6745  0.0305  0.4905
   85MOL   H45749345   1.835   1.192   4.046 -1.0649 -0.8457 -1.0638
   85MOL   H45849346   1.945   0.989   3.955  2.1803  1.5090  1.9676
   85MOL   H45949347   2.041   1.096   3.849  0.1786 -0.2064  0.0021
   85MOL   H46049348   1.855   0.989   3.735 -0.6276 -0.1612  1.8277
   85MOL   H46149349   1.735   1.063   3.829  0.0205  1.0931 -0.2445
   85MOL   H46249350   1.653   1.206   3.649 -1.1342  1.9446 -1.3712
   85MOL   H46349351   1.834   1.108   3.454 -1.5246  0.8391 -2.2464
   85MOL   H46449352   1.885   1.372   3.565  0.3088  0.5198 -0.8338
   85MOL   H46549353   1.817   1.319   3.426 -1.7818 -1.4125 -0.4544
   85MOL   C46649354   1.709   1.552   3.479  0.0849  0.2667 -0.2001
   85MOL   C46749355   1.601   1.651   3.516 -0.9145  0.0387 -0.1535
   85MOL   O46849356   1.601   1.692   3.651 -0.0378 -0.2908  0.2104
   85MOL   C46949357   1.614   1.785   3.425 -0.5013 -0.1254  0.3267
   85MOL   O47049358   1.745   1.834   3.406  0.1204  0.2106 -0.3893
   85MOL   C47149359   1.778   1.905   3.521  0.3107 -0.4404  0.4195
   85MOL   C47249360   1.902   1.976   3.479 -0.8360  0.2983  0.0809
   85MOL   C47349361   1.955   2.083   3.576 -0.2920  0.1728 -0.0481
   85MOL   O47449362   2.055   2.157   3.500  0.0523  0.3063 -0.1142
   85MOL   C47549363   2.099   2.266   3.578  0.1168 -0.1521  0.3324
   85MOL   O47649364   2.001   2.370   3.585 -0.2065 -0.3740  0.0555
   85MOL   C47749365   2.225   2.322   3.529  0.3769  0.7550  0.3550
   85MOL   O47849366   2.209   2.394   3.405 -0.0154  0.4234  0.0001
   85MOL   H47949367   1.717   1.554   3.370  0.8887 -3.4314 -0.2776
   85MOL   H48049368   1.809   1.588   3.504 -0.0430 -0.0148  0.7178
   85MOL   H48149369   1.507   1.606   3.484 -1.1302 -1.1083  2.0454
   85MOL   H48249370   1.522   1.660   3.693 -0.0021  0.0469  0.5370
   85MOL   H48349371   1.589   1.753   3.323  0.9526 -2.0828  0.5575
   85MOL   H48449372   1.537   1.857   3.453  0.7674  1.8440 -1.0880
   85MOL   H48549373   1.792   1.849   3.613  1.9330  2.1135  1.7984
   85MOL   H48649374   1.709   1.984   3.551  1.3076 -0.9823  4.4615
   85MOL   H48749375   1.881   2.017   3.380  1.1615  1.0777 -0.0614
   85MOL   H48849376   1.984   1.904   3.478 -0.0034  1.2380  0.0903
   85MOL   H48949377   1.875   2.149   3.609 -2.1365 -1.0379 -1.9145
   85MOL   H49049378   2.006   2.037   3.660 -0.7939 -1.8181 -0.8071
   85MOL   H49149379   2.113   2.238   3.682  2.7889  1.0614  0.3392
   85MOL   H49249380   2.019   2.410   3.501  1.3606 -1.4175 -0.1332
   85MOL   H49349381   2.269   2.385   3.607  1.4127  2.3289 -1.4580
   85MOL   H49449382   2.296   2.240   3.517 -1.3373 -0.3835 -2.5775
   85MOL   C49549383   2.327   2.450   3.349 -0.5290  0.6252 -0.2800
   85MOL   C49649384   2.294   2.498   3.205  0.2533  0.8324 -0.5910
   85MOL   O49749385   2.320   2.402   3.110 -0.1114  0.7085 -1.2562
   85MOL   C49849386   2.150   2.549   3.183  0.2032  0.1310  0.0900
   85MOL   O49949387   2.141   2.630   3.066  0.3629  0.1381  0.1479
   85MOL   C50049388   2.018   2.710   3.066  0.3665  0.2145 -0.0694
   85MOL   C50149389   2.037   2.839   3.152  0.2404  0.0407 -0.0185
   85MOL   C50249390   1.903   2.914   3.178  0.2399 -0.0748 -0.6377
   85MOL   O50349391   1.933   3.024   3.259 -0.4861  0.3772  0.0847
   85MOL   C50449392   1.841   3.126   3.277  0.4029  0.3860 -0.2623
   85MOL   O50549393   1.811   3.187   3.155  0.0285 -0.2260  0.1758
   85MOL   C50649394   1.885   3.233   3.372  0.2986  0.3689 -0.7852
   85MOL   O50749395   1.988   3.304   3.321  0.1610 -0.5790 -0.3589
   85MOL   H50849396   2.413   2.383   3.348 -0.3485  0.8580 -0.3778
   85MOL   H50949397   2.365   2.529   3.415  0.2576 -0.7244  0.9168
   85MOL   H51049398   2.356   2.587   3.194  0.5908  1.0419  2.7080
   85MOL   H51149399   2.268   2.324   3.124  1.4425  0.2017  2.3076
   85MOL   H51249400   2.075   2.470   3.182  0.7748 -0.4124  0.5646
   85MOL   H51349401   2.114   2.608   3.267  0.3795  2.0555 -1.1393
   85MOL   H51449402   1.946   2.644   3.113 -0.3921  1.5220  0.6336
   85MOL   H51549403   1.995   2.731   2.961 -0.2882  1.0260  0.2335
   85MOL   H51649404   2.111   2.901   3.101 -1.2353  1.3674 -0.5968
   85MOL   H51749405   2.088   2.809   3.244 -2.2303 -2.1848  0.6984
   85MOL   H51849406   1.859   2.953   3.087 -0.4131  0.9328  0.1049
   85MOL   H51949407   1.831   2.844   3.220  0.0937 -1.1216 -2.5586
   85MOL   H52049408   1.752   3.075   3.313  1.0119 -0.1189  0.5288
   85MOL   H52149409   1.897   3.221   3.133 -0.1121  0.3476  0.5201
   85MOL   H52249410   1.802   3.302   3.390  1.2206  2.0071 -2.6216
   85MOL   H52349411   1.893   3.188   3.470 -0.7462 -3.6420 -2.4332
   85MOL   C52449412   2.111   3.241   3.359 -0.1777 -0.6860  0.4834
   85MOL   C52549413   2.229   3.313   3.287 -0.5595  0.1425 -0.3432
   85MOL   O52649414   2.219   3.304   3.150  0.1733 -0.4806  0.2434
   85MOL   C52749415   2.368   3.258   3.323  0.1584  0.5185 -0.4022
   85MOL   O52849416   2.391   3.129   3.278  0.3686  0.2942  0.1251
   85MOL   C52949417   2.487   3.122   3.174  0.9671 -0.7379 -0.0931
   85MOL   C53049418   2.479   2.989   3.106 -0.0220 -0.1735  0.7026
   85MOL   C53149419   2.600   2.973   3.018 -0.3754 -0.0261 -0.2611
   85MOL   O53249420   2.572   2.846   2.955 -0.1546 -0.2290 -0.0383
   85MOL   C53349421   2.651   2.808   2.859  0.9262 -0.2088 -0.4008
   85MOL   O53449422   2.788   2.802   2.907 -0.0898  0.3286 -0.2834
   85MOL   C53549423   2.605   2.670   2.808 -0.0630  0.0403 -0.3452
   85MOL   O53649424   2.478   2.678   2.746 -0.5904  0.0961  0.5828
   85MOL   H53749425   2.119   3.134   3.339 -0.7381 -0.9517  1.6627
   85MOL   H53849426   2.133   3.254   3.465  0.9111 -0.3762  0.2309
   85MOL   H53949427   2.229   3.418   3.315 -0.2047  0.0018  0.1863
   85MOL   H54049428   2.303   3.268   3.127 -0.7426 -2.1991 -0.5296
   85MOL   H54149429   2.445   3.328   3.290 -1.0959  1.0972 -2.2297
   85MOL   H54249430   2.371   3.256   3.432 -0.0240  0.7749 -0.3909
   85MOL   H54349431   2.587   3.153   3.202 -0.1236  1.8147  1.1204
   85MOL   H54449432   2.468   3.192   3.093 -1.8440 -0.3155  0.8650
   85MOL   H54549433   2.392   2.976   3.042  1.1817 -0.4258 -0.9169
   85MOL   H54649434   2.475   2.911   3.182  0.5740  0.4959  1.4446
   85MOL   H54749435   2.605   3.055   2.946  3.0600  1.3697  1.4275
   85MOL   H54849436   2.692   2.968   3.076 -1.5731  0.0545  1.6578
   85MOL   H54949437   2.644   2.884   2.781 -0.4695 -0.2327 -0.3147
   85MOL   H55049438   2.841   2.831   2.834  1.0586 -1.0781 -0.0412
   85MOL   H55149439   2.671   2.625   2.734  0.0542 -2.0510  0.9780
   85MOL   H55249440   2.614   2.594   2.886 -0.0012 -0.5062 -0.8859
   85MOL   C55349441   2.366   2.679   2.828  0.0318 -0.3443 -0.2083
   85MOL   C55449442   2.255   2.605   2.750 -0.1507 -0.4395  0.3119
   85MOL   O55549443   2.138   2.675   2.773  0.5785 -0.1816  0.4740
   85MOL   C55649444   2.244   2.458   2.789  0.1383 -0.7712 -0.1754
   85MOL   O55749445   2.184   2.370   2.695  0.1719  0.1734 -0.1711
   85MOL   C55849446   2.179   2.243   2.751 -0.3372 -0.0425 -0.1409
   85MOL   C55949447   2.149   2.131   2.647  0.4260  0.0693  0.2545
   85MOL   C56049448   2.195   1.994   2.700 -0.3257  0.2464 -0.5472
   85MOL   O56149449   2.136   1.898   2.616  0.2764 -0.0050 -0.0315
   85MOL   C56249450   2.216   1.783   2.594 -0.2776  0.3308  0.3172
   85MOL   O56349451   2.235   1.718   2.718  0.2943  0.1512  0.0180
   85MOL   C56449452   2.135   1.695   2.497 -0.4286 -0.2910  0.4932
   85MOL   O56549453   2.055   1.606   2.568  0.0920  0.0862 -0.0219
   85MOL   H56649454   2.337   2.782   2.849  0.1483 -0.4623  0.5423
   85MOL   H56749455   2.385   2.620   2.918  1.1266  0.3510  0.0225
   85MOL   H56849456   2.272   2.609   2.642 -1.8402 -1.1679  0.0120
   85MOL   H56949457   2.127   2.663   2.866  3.9843  1.7038  1.1948
   85MOL   H57049458   2.341   2.417   2.817  1.9398  2.7022 -1.1079
   85MOL   H57149459   2.190   2.458   2.884 -1.1356 -0.8727 -0.8905
   85MOL   H57249460   2.266   2.212   2.808 -1.8098 -1.1142  1.5899
   85MOL   H57349461   2.100   2.242   2.826 -1.1376  1.2242 -0.9496
   85MOL   H57449462   2.216   2.150   2.564  3.2131 -2.7472  1.7679
   85MOL   H57549463   2.043   2.128   2.620  0.8873 -2.5931 -1.4203
   85MOL   H57649464   2.302   1.986   2.684  0.3798  2.4076  2.5493
   85MOL   H57749465   2.179   1.976   2.807  0.1073  0.8513 -0.3779
   85MOL   H57849466   2.313   1.813   2.555  0.8724 -0.6339  2.3774
   85MOL   H57949467   2.153   1.676   2.741  0.9027 -1.6056 -0.9313
   85MOL   H58049468   2.075   1.766   2.439 -2.1710  0.7510  3.4556
   85MOL   H58149469   2.207   1.642   2.435 -1.2454  1.5026 -2.0537
   85MOL   H58249470   1.964   1.617   2.544  0.4167  1.6058 -0.5590
   7.69436   7.69436   7.69436
