Control file title. For DL_FIELD 4.10
49896
    1MOL     C1    1   1.527   4.861   2.638  0.1878 -0.8548 -0.0308
    1MOL     C2    2   1.572   4.986   2.715  0.1516  0.8887  1.0076
    1MOL     N3    3   1.462   5.071   2.743  0.4520 -0.2666  0.6299
    1MOL     H4    4   1.502   4.784   2.712  1.6930 -0.1813  1.2083
    1MOL     H5    5   1.608   4.824   2.576  1.4218  2.1500 -0.2393
    1MOL     H6    6   1.635   5.042   2.646  0.6456  0.4443  1.0997
    1MOL     H7    7   1.383   5.080   2.680  1.2041  0.0642 -0.2737
    1MOL     H8    8   1.495   5.166   2.738 -0.4833  0.1301  1.6270
    1MOL     H9    9   1.438   4.877   2.577  0.7074 -1.5084 -0.9582
    1MOL    C10   10   1.647   4.937   2.847 -0.6466 -0.1246  0.6497
    1MOL    C11   11   1.740   5.035   2.922  0.4155 -0.3527  0.5711
    1MOL    N12   12   1.740   5.004   3.061  0.0839  0.3505  0.1575
    1MOL    H13   13   1.575   4.883   2.908 -0.5088  0.2663  1.1563
    1MOL    H14   14   1.711   4.852   2.825  0.8425  1.2333 -0.3883
    1MOL    H15   15   1.717   5.140   2.902 -0.7452 -0.8415 -0.7978
    1MOL    H16   16   1.658   5.036   3.111 -1.4095 -0.7444 -1.5469
    1MOL    H17   17   1.737   4.906   3.087  4.3919  1.0028  3.8015
    1MOL    C18   18   1.896   5.027   2.874 -0.3239 -0.8541 -0.2305
    1MOL    C19   19   1.918   5.064   2.729  0.3218 -0.2777 -0.5736
    1MOL    N20   20   1.907   5.207   2.716 -0.0313  0.0049 -0.1751
    1MOL    H21   21   1.956   5.087   2.943 -2.2159 -2.2429  2.7494
    1MOL    H22   22   1.933   4.926   2.890  1.5192 -0.1900 -0.1825
    1MOL    H23   23   1.836   5.018   2.673  1.8601 -5.6941  1.2273
    1MOL    H24   24   1.985   5.259   2.753 -0.3217 -1.1695  2.1973
    1MOL    H25   25   1.825   5.248   2.758 -0.4650 -0.5466 -0.4786
    1MOL    C26   26   2.048   5.020   2.667  0.0940  0.8265  0.7400
    1MOL    C27   27   2.068   4.872   2.642  0.1084  0.3564 -0.0116
    1MOL    N28   28   1.955   4.821   2.574 -0.5878  0.2743  0.7566
    1MOL    H29   29   2.046   5.078   2.575 -1.7282 -1.4566 -0.7095
    1MOL    H30   30   2.134   5.041   2.731  1.2809 -2.4297  0.2977
    1MOL    H31   31   2.090   4.829   2.740 -0.9983  0.2445  0.1956
    1MOL    H32   32   1.868   4.857   2.610 -1.6458 -1.0988 -0.3821
    1MOL    H33   33   1.953   4.730   2.617 -0.4789  1.1240  2.6153
    1MOL    C34   34   2.182   4.844   2.551 -0.1713 -0.3231  0.2566
    1MOL    C35   35   2.252   4.709   2.565 -0.5174 -0.1542 -0.1001
    1MOL    N36   36   2.176   4.598   2.517  0.1983 -0.1319  0.8361
    1MOL    H37   37   2.155   4.856   2.447 -0.7227  0.3473  0.4763
    1MOL    H38   38   2.257   4.917   2.581 -0.1660 -0.7442  1.3006
    1MOL    H39   39   2.264   4.703   2.673 -1.9574 -0.2821  0.0503
    1MOL    H40   40   2.085   4.642   2.509  1.0943  1.5633 -0.1953
    1MOL    H41   41   2.194   4.577   2.420 -2.0600 -1.6734  0.7002
    1MOL    C42   42   2.390   4.716   2.505  0.0363 -0.0145 -0.1908
    1MOL    C43   43   2.497   4.613   2.552 -0.3561 -0.0307 -0.2303
    1MOL    N44   44   2.594   4.599   2.441  0.0393  0.0014  0.2481
    1MOL    H45   45   2.385   4.709   2.396 -1.6990 -0.5712 -0.1060
    1MOL    H46   46   2.429   4.817   2.518 -0.3574  0.2032 -0.6718
    1MOL    H47   47   2.437   4.523   2.566  0.8799 -0.9012 -0.5148
    1MOL    H48   48   2.649   4.516   2.462  1.3917  1.0462  0.9363
    1MOL    H49   49   2.544   4.569   2.359 -0.1666 -0.8993  0.6991
    1MOL    C50   50   2.563   4.665   2.688  0.2215 -0.3986  0.1008
    1MOL    C51   51   2.621   4.557   2.777  0.4456 -0.6947 -0.3153
    1MOL    N52   52   2.714   4.616   2.871 -0.4391 -0.1218 -0.2113
    1MOL    H53   53   2.641   4.734   2.656  0.5484 -0.8578 -0.1010
    1MOL    H54   54   2.491   4.724   2.744  1.4752  0.0939  1.2223
    1MOL    H55   55   2.691   4.493   2.723 -0.2549 -1.9993  0.3200
    1MOL    H56   56   2.669   4.699   2.908 -4.8907 -2.3162 -0.4297
    1MOL    H57   57   2.801   4.638   2.824 -0.9113 -1.3109 -1.6931
    1MOL    C58   58   2.515   4.479   2.864 -0.6191  0.2357 -0.5584
    1MOL    C59   59   2.464   4.355   2.799 -0.3046  0.5119  0.0215
    1MOL    N60   60   2.578   4.260   2.817 -0.6785  0.1375  0.3197
    1MOL    H61   61   2.557   4.450   2.960  0.6654  0.3404 -1.0806
    1MOL    H62   62   2.435   4.551   2.881 -2.3178 -1.2489 -2.0411
    1MOL    H63   63   2.451   4.364   2.691  1.0169 -1.2964 -0.3126
    1MOL    H64   64   2.667   4.308   2.819 -0.3812 -0.2858 -2.1260
    1MOL    H65   65   2.578   4.172   2.767  2.0658  1.1186 -1.5179
    1MOL    C66   66   2.337   4.297   2.860 -0.1385  0.1084 -0.2922
    1MOL    C67   67   2.204   4.371   2.826  0.8963  0.2335  0.5064
    1MOL    N68   68   2.171   4.337   2.686  0.3005 -0.2693 -0.4009
    1MOL    H69   69   2.335   4.189   2.841 -1.4894 -0.0922  0.8944
    1MOL    H70   70   2.351   4.303   2.968 -1.2264 -0.4970 -0.1098
    1MOL    H71   71   2.216   4.479   2.828  1.0298  0.2273  0.1132
    1MOL    H72   72   2.181   4.414   2.621  0.9850  0.8686  0.9987
    1MOL    H73   73   2.075   4.308   2.684 -0.2482  1.4961 -0.7809
    1MOL    C74   74   2.080   4.315   2.910 -0.4426  0.2991 -0.3218
    1MOL    C75   75   2.077   4.339   3.062 -0.1881 -0.3034  0.3495
    1MOL    N76   76   2.015   4.458   3.102 -0.2809 -0.4478 -0.6762
    1MOL    H77   77   1.987   4.344   2.860  0.0512  1.5191 -0.5614
    1MOL    H78   78   2.081   4.207   2.902 -4.8227  0.2240 -0.9801
    1MOL    H79   79   2.181   4.344   3.093  0.0309  2.2109 -0.6475
    1MOL    H80   80   2.066   4.541   3.075  0.0372 -0.0476  1.0931
    1MOL    H81   81   2.017   4.466   3.203  2.0642  0.8750 -0.7987
    1MOL    C82   82   2.022   4.220   3.143 -0.6681 -0.1358 -0.1461
    1MOL    C83   83   2.120   4.097   3.143 -0.1241 -0.0685 -0.7050
    1MOL    N84   84   2.214   4.108   3.250 -0.2865  0.4559 -0.1975
    1MOL    H85   85   1.995   4.243   3.246  0.1759  1.7031 -0.3179
    1MOL    H86   86   1.925   4.178   3.116  0.8198 -2.9817 -1.2149
    1MOL    H87   87   2.176   4.106   3.050 -0.6336 -0.1433 -1.0214
    1MOL    H88   88   2.284   4.035   3.242 -0.3146  0.2218  1.4974
    1MOL    H89   89   2.171   4.079   3.336 -0.9941  2.7621  0.2290
    1MOL    C90   90   2.047   3.968   3.123 -0.2698  0.2831  0.3034
    1MOL    C91   91   2.137   3.845   3.137 -0.3136  0.1784  0.0969
    1MOL    N92   92   2.049   3.730   3.135 -0.1742 -0.3961 -0.0882
    1MOL    H93   93   1.955   3.967   3.182  1.4705  0.8497  3.0888
    1MOL    H94   94   2.016   3.971   3.018  3.7562 -0.3773 -0.9835
    1MOL    H95   95   2.177   3.850   3.238 -1.0312 -2.6026  0.5534
    1MOL    H96   96   2.100   3.651   3.172  2.6849  1.6711  0.5793
    1MOL    H97   97   1.976   3.751   3.203  0.1934 -2.4230  0.9662
    1MOL    C98   98   2.255   3.821   3.041  0.4912  0.3949  0.1865
    1MOL    C99   99   2.379   3.918   3.037 -0.0129  0.4428  0.6638
    1MOL   N100  100   2.447   3.921   3.164 -0.6271 -0.5085  0.2040
    1MOL   H101  101   2.293   3.720   3.055  0.6582  0.4214 -0.0698
    1MOL   H102  102   2.207   3.809   2.944  0.3774  1.4466  0.1138
    1MOL   H103  103   2.348   4.021   3.025  0.3947  0.6929  1.7400
    1MOL   H104  104   2.512   3.997   3.152 -0.8593 -0.3166  0.1634
    1MOL   H105  105   2.500   3.837   3.183 -1.8620 -0.9569  1.8417
    1MOL   C106  106   2.494   3.885   2.934 -0.3050 -0.3914 -0.0605
    1MOL   C107  107   2.491   3.918   2.786 -0.3209 -0.3093 -0.0955
    1MOL   N108  108   2.626   3.883   2.736  0.6501 -0.2797  0.1132
    1MOL   H109  109   2.577   3.951   2.959 -0.4835  0.3167 -1.2782
    1MOL   H110  110   2.538   3.787   2.950  0.5050 -0.0467 -0.1181
    1MOL   H111  111   2.472   4.026   2.784 -0.2852 -0.3080 -0.7756
    1MOL   H112  112   2.692   3.898   2.812 -0.9679  1.2661  1.2509
    1MOL   H113  113   2.657   3.952   2.669  0.1439  0.6701  0.8503
    1MOL   C114  114   2.389   3.843   2.705  0.1316 -0.8543 -0.5630
    1MOL   C115  115   2.375   3.887   2.558 -0.1890  0.0419 -0.0828
    1MOL   N116  116   2.267   3.816   2.499  0.1760 -0.2573  0.0066
    1MOL   H117  117   2.400   3.735   2.709  1.4104 -0.7935 -1.9384
    1MOL   H118  118   2.290   3.857   2.749  0.4688 -0.6546  0.1479
    1MOL   H119  119   2.466   3.857   2.507 -0.1034 -0.1479  0.1801
    1MOL   H120  120   2.179   3.853   2.531  1.0125  1.8906 -0.0813
    1MOL   H121  121   2.276   3.834   2.400  0.4414 -0.0021  0.0762
    1MOL   C122  122   2.342   4.036   2.545  0.1576 -0.0830  0.0296
    1MOL   C123  123   2.349   4.099   2.399  0.4251 -0.0141 -0.8399
    1MOL   N124  124   2.252   4.212   2.404  0.1130 -0.0228 -0.6885
    1MOL   H125  125   2.247   4.052   2.595  0.5840  1.6401  0.3176
    1MOL   H126  126   2.408   4.103   2.599  0.2085  0.7794 -1.0746
    1MOL   H127  127   2.324   4.027   2.321 -0.2074 -0.0185 -0.6392
    1MOL   H128  128   2.270   4.258   2.493  1.8469 -1.7525 -0.1156
    1MOL   H129  129   2.162   4.177   2.432 -0.4951  0.9772 -1.3823
    1MOL   C130  130   2.485   4.163   2.366  0.3512 -0.0391  0.3045
    1MOL   C131  131   2.606   4.061   2.355  0.3089  0.1216  0.3130
    1MOL   N132  132   2.611   3.999   2.223  0.9747  0.6537 -0.0427
    1MOL   H133  133   2.492   4.229   2.279  0.2134  0.3634  0.6034
    1MOL   H134  134   2.511   4.232   2.446  2.7568 -0.9861  0.4182
    1MOL   H135  135   2.595   3.992   2.438  1.2637 -2.2515 -1.4606
    1MOL   H136  136   2.651   3.907   2.236 -0.7244  0.0141  0.8815
    1MOL   H137  137   2.675   4.051   2.164 -0.0217 -0.6130 -2.3427
    1MOL   C138  138   2.742   4.124   2.368 -1.1231  0.1590 -0.6533
    1MOL   C139  139   2.781   4.201   2.497  0.3926 -0.3016  0.4721
    1MOL   N140  140   2.782   4.112   2.614 -0.6417 -0.5657  0.2934
    1MOL   H141  141   2.810   4.044   2.337  0.8395  2.2410 -1.8710
    1MOL   H142  142   2.758   4.191   2.283 -1.8107 -0.4546 -1.2793
    1MOL   H143  143   2.705   4.277   2.514 -0.2611 -0.7393 -0.4918
    1MOL   H144  144   2.847   4.155   2.679 -1.8558  2.8657 -0.6501
    1MOL   H145  145   2.817   4.024   2.578  2.5824  0.8541 -0.2871
    1MOL   C146  146   2.922   4.263   2.499 -0.3385  0.5038 -0.1472
    1MOL   C147  147   2.959   4.357   2.615 -1.4280  0.0656  0.1528
    1MOL   N148  148   3.053   4.292   2.709  0.2674 -0.2565  0.0159
    1MOL   H149  149   2.990   4.182   2.472  1.1858  2.1190 -1.2986
    1MOL   H150  150   2.926   4.320   2.406  2.4417 -0.7971 -0.8763
    1MOL   H151  151   2.864   4.386   2.662 -0.7590 -0.1686  1.6738
    1MOL   H152  152   3.150   4.310   2.689 -0.2496  1.7954 -0.7905
    1MOL   H153  153   3.037   4.335   2.799 -0.9901  1.3134 -0.9260
    1MOL   C154  154   3.020   4.488   2.569  0.5562 -0.3557 -0.2858
    1MOL   C155  155   2.923   4.586   2.492 -0.5763  0.2647  0.3173
    1MOL   N156  156   3.000   4.701   2.453 -0.2043  0.3538  0.3553
    1MOL   H157  157   3.047   4.541   2.660  0.9598  1.2228 -1.3037
    1MOL   H158  158   3.115   4.479   2.516 -0.6131  1.5344 -2.8329
    1MOL   H159  159   2.827   4.608   2.539  0.2191  1.4743  1.4049
    1MOL   H160  160   3.082   4.671   2.402 -0.3703  3.0393 -1.6374
    1MOL   H161  161   2.951   4.740   2.373  1.1847  0.7200 -0.3293
    1MOL   H162  162   2.910   4.536   2.396 -0.9683 -0.9203  0.9797
    2MOL     C1  163   0.807   4.270   4.322  0.1671 -0.5704 -0.3396
    2MOL     C2  164   0.734   4.225   4.197  0.6928 -0.4147 -0.4682
    2MOL     N3  165   0.822   4.196   4.086  0.3131  0.2461 -0.8671
    2MOL     H4  166   0.845   4.184   4.377  1.0748 -0.4802 -0.8179
    2MOL     H5  167   0.764   4.350   4.383  3.3349  0.4241  0.6998
    2MOL     H6  168   0.667   4.298   4.151 -0.8427 -0.7376  1.2149
    2MOL     H7  169   0.880   4.274   4.057  0.4858  0.2134 -0.6065
    2MOL     H8  170   0.765   4.177   4.004 -1.4048 -2.2916  0.8468
    2MOL     H9  171   0.893   4.319   4.277  0.5293 -0.2235  0.7107
    2MOL    C10  172   0.656   4.100   4.240  0.2569  1.0880  0.1565
    2MOL    C11  173   0.532   4.125   4.325  0.5339 -0.4957 -0.0820
    2MOL    N12  174   0.437   4.173   4.229  0.5807 -0.4337 -0.0470
    2MOL    H13  175   0.623   4.051   4.149 -0.0982  2.3339 -0.4076
    2MOL    H14  176   0.719   4.024   4.286  1.2953  1.7395 -0.1724
    2MOL    H15  177   0.549   4.195   4.408  1.7492  0.1941 -0.8952
    2MOL    H16  178   0.397   4.097   4.175 -0.0938 -0.6444  0.7226
    2MOL    H17  179   0.484   4.240   4.171 -0.7602 -0.0390 -0.7012
    2MOL    C18  180   0.463   3.996   4.388  0.3813 -0.0149  0.1613
    2MOL    C19  181   0.539   3.940   4.519  0.0527  0.4917  0.0314
    2MOL    N20  182   0.482   3.997   4.639  0.3285 -0.1371  0.2166
    2MOL    H21  183   0.359   4.023   4.406  0.6999 -0.0209  2.1537
    2MOL    H22  184   0.461   3.930   4.302  1.5223  1.0026 -0.6805
    2MOL    H23  185   0.644   3.962   4.503 -0.0243 -0.3699 -1.9008
    2MOL    H24  186   0.510   3.957   4.727 -0.0806  0.3368  0.5666
    2MOL    H25  187   0.479   4.097   4.651  0.2106  0.1628 -1.9732
    2MOL    C26  188   0.535   3.787   4.526  0.0918 -0.1233 -0.2425
    2MOL    C27  189   0.648   3.709   4.472 -0.0592 -0.8788 -0.4493
    2MOL    N28  190   0.618   3.574   4.515  0.7126  0.1226  0.1590
    2MOL    H29  191   0.523   3.762   4.631 -0.7422  0.6213 -0.1517
    2MOL    H30  192   0.438   3.752   4.489  0.1029  0.1870 -0.5778
    2MOL    H31  193   0.741   3.738   4.521 -0.4124  0.2554 -0.4224
    2MOL    H32  194   0.534   3.549   4.465 -0.1737  2.3438  0.4669
    2MOL    H33  195   0.580   3.564   4.608 -1.4916 -1.0063 -0.8291
    2MOL    C34  196   0.663   3.713   4.323 -0.2507  0.0752  0.5014
    2MOL    C35  197   0.801   3.657   4.275  0.3800 -0.9085 -0.6729
    2MOL    N36  198   0.813   3.644   4.131  0.6948 -0.0178  0.4464
    2MOL    H37  199   0.577   3.657   4.285 -0.9092  0.4787  1.3634
    2MOL    H38  200   0.650   3.814   4.284 -0.3808 -0.4837 -0.9479
    2MOL    H39  201   0.797   3.556   4.314 -1.0146 -0.8804 -0.7115
    2MOL    H40  202   0.720   3.623   4.098  0.9393 -2.1408  1.0526
    2MOL    H41  203   0.845   3.549   4.124 -2.5425 -1.2215  0.7271
    2MOL    C42  204   0.931   3.727   4.329 -0.1688 -1.0079 -0.2842
    2MOL    C43  205   1.073   3.663   4.286  0.1970  0.0983  0.6245
    2MOL    N44  206   1.174   3.725   4.365  0.3156  0.1496  0.2698
    2MOL    H45  207   0.918   3.832   4.304 -0.6038 -1.0422 -0.2200
    2MOL    H46  208   0.931   3.725   4.438  0.5355 -0.6668 -0.2732
    2MOL    H47  209   1.100   3.686   4.183 -0.9706  0.6942  0.4385
    2MOL    H48  210   1.268   3.698   4.341  0.4805  1.2247 -0.3010
    2MOL    H49  211   1.176   3.824   4.348 -2.2365  0.6389  2.4135
    2MOL    C50  212   1.091   3.508   4.299 -0.2204 -0.8000 -0.5203
    2MOL    C51  213   1.191   3.451   4.196 -0.2240 -0.7036 -0.0667
    2MOL    N52  214   1.232   3.323   4.246 -0.0978 -0.0524 -0.6096
    2MOL    H53  215   1.115   3.490   4.403 -0.0548 -1.8905 -0.7464
    2MOL    H54  216   0.994   3.460   4.285 -1.1155  0.7642  0.1449
    2MOL    H55  217   1.278   3.517   4.198 -0.5496 -0.1272 -3.1009
    2MOL    H56  218   1.323   3.305   4.206  0.2373 -0.3193  0.2539
    2MOL    H57  219   1.168   3.248   4.228  2.4925 -2.2083 -1.0691
    2MOL    C58  220   1.140   3.448   4.056 -0.2532 -0.6204  0.2279
    2MOL    C59  221   1.245   3.409   3.951 -0.4357 -0.0488  0.0990
    2MOL    N60  222   1.171   3.398   3.832  0.6757  0.0523 -0.8538
    2MOL    H61  223   1.062   3.373   4.046 -1.9851  1.0107  1.2192
    2MOL    H62  224   1.088   3.541   4.032 -0.2949 -0.1984  1.8790
    2MOL    H63  225   1.271   3.303   3.963  0.8247  0.1564 -0.7602
    2MOL    H64  226   1.083   3.356   3.859  1.0254  0.1462  0.4731
    2MOL    H65  227   1.144   3.488   3.795 -1.0500 -0.3998 -0.7202
    2MOL    C66  228   1.376   3.503   3.940 -0.8894  0.4735  0.4946
    2MOL    C67  229   1.466   3.487   3.817 -0.2674  0.4597 -0.1450
    2MOL    N68  230   1.556   3.598   3.784  0.4990  0.8507  1.0839
    2MOL    H69  231   1.341   3.606   3.939 -0.7286  0.5541  1.9285
    2MOL    H70  232   1.420   3.500   4.040  0.1638 -0.3366  0.0187
    2MOL    H71  233   1.397   3.480   3.734 -0.1791  1.2199 -0.2851
    2MOL    H72  234   1.645   3.571   3.823 -0.1110 -1.3917  1.0020
    2MOL    H73  235   1.534   3.679   3.841 -0.7614  1.7573 -0.6718
    2MOL    C74  236   1.546   3.359   3.828 -0.0776  0.4289 -1.3307
    2MOL    C75  237   1.598   3.290   3.690  0.0280 -0.6918  0.8910
    2MOL    N76  238   1.709   3.209   3.727  0.2107  0.6568  0.0895
    2MOL    H77  239   1.633   3.370   3.892 -0.7216  1.2992 -0.5877
    2MOL    H78  240   1.490   3.294   3.896 -0.9390  0.4693 -1.9910
    2MOL    H79  241   1.633   3.364   3.618 -0.3493 -1.5112 -0.1502
    2MOL    H80  242   1.699   3.108   3.733  3.4106  0.3296  0.5749
    2MOL    H81  243   1.702   3.222   3.827 -0.8184 -2.5151  0.5054
    2MOL    C82  244   1.483   3.213   3.618  0.4096  0.3772 -0.2431
    2MOL    C83  245   1.519   3.154   3.482 -0.5948  0.3758 -0.6022
    2MOL    N84  246   1.596   3.033   3.509  0.2351  0.3985 -0.6404
    2MOL    H85  247   1.444   3.135   3.683  0.3373 -0.5370 -1.3564
    2MOL    H86  248   1.401   3.284   3.614  0.5469  0.7364  2.3749
    2MOL    H87  249   1.584   3.216   3.420 -0.0825  1.3580  0.8821
    2MOL    H88  250   1.617   2.972   3.431  1.1910  0.7299 -0.6554
    2MOL    H89  251   1.682   3.079   3.536 -0.0162  0.3767  0.2206
    2MOL    C90  252   1.388   3.110   3.418 -0.9850  0.5400 -0.6606
    2MOL    C91  253   1.321   3.235   3.357  0.3444  0.2869  0.3450
    2MOL    N92  254   1.373   3.254   3.225  0.0725  0.1691 -0.1182
    2MOL    H93  255   1.413   3.036   3.342  0.9926  0.6293 -0.1144
    2MOL    H94  256   1.321   3.056   3.484  1.4521 -1.0481  0.5819
    2MOL    H95  257   1.346   3.327   3.409  2.3515  0.2967 -0.5912
    2MOL    H96  258   1.470   3.280   3.211 -0.0971 -0.1482 -2.1092
    2MOL    H97  259   1.322   3.321   3.169  0.0897 -1.0530 -1.6427
    2MOL    C98  260   1.162   3.212   3.347 -0.2797 -0.3824  0.2593
    2MOL    C99  261   1.097   3.269   3.486  0.0628 -0.1950  0.5088
    2MOL   N100  262   1.091   3.414   3.476  0.6866  0.0736  0.5486
    2MOL   H101  263   1.121   3.279   3.271 -0.6968 -0.0657  0.7561
    2MOL   H102  264   1.143   3.107   3.328  4.0774 -0.8337 -2.2373
    2MOL   H103  265   1.170   3.267   3.566 -0.5739 -0.8919  1.0797
    2MOL   H104  266   1.177   3.448   3.517 -0.3752  0.8773  2.1429
    2MOL   H105  267   1.017   3.445   3.538 -0.8033 -2.6650  0.2222
    2MOL   C106  268   0.962   3.203   3.515 -0.0595 -0.4765  0.5697
    2MOL   C107  269   0.966   3.069   3.593  0.0640 -0.6200  0.3356
    2MOL   N108  270   1.006   3.096   3.733  0.4505 -0.2155  0.2633
    2MOL   H109  271   0.907   3.269   3.583  1.2110  2.4609 -1.1431
    2MOL   H110  272   0.904   3.201   3.423 -2.2136  0.1271  1.8504
    2MOL   H111  273   1.042   3.006   3.547 -0.8795 -1.9147  0.5391
    2MOL   H112  274   1.063   3.019   3.767  2.0197  1.8466  2.4755
    2MOL   H113  275   1.081   3.163   3.729 -0.3679  0.7275  0.5270
    2MOL   C114  276   0.829   2.995   3.604  0.1162 -0.0543 -0.2445
    2MOL   C115  277   0.809   2.886   3.494 -0.2664  0.9544  0.3320
    2MOL   N116  278   0.671   2.838   3.516 -0.1550  0.3276  0.0742
    2MOL   H117  279   0.822   2.938   3.697 -1.1824 -0.4522 -0.5764
    2MOL   H118  280   0.748   3.067   3.603  0.5420  0.4288 -0.9149
    2MOL   H119  281   0.880   2.804   3.506  0.2949  1.7057  2.4272
    2MOL   H120  282   0.670   2.785   3.602 -2.3314  0.0081 -0.1258
    2MOL   H121  283   0.603   2.912   3.515 -1.0275 -0.4725 -1.5446
    2MOL   C122  284   0.822   2.935   3.347 -0.2706 -0.0581  0.5341
    2MOL   C123  285   0.804   2.812   3.243  0.2001 -0.3108  0.0562
    2MOL   N124  286   0.657   2.801   3.226 -0.2964  0.3573  0.5905
    2MOL   H125  287   0.752   3.015   3.322  0.1375  0.2383  0.3510
    2MOL   H126  288   0.921   2.972   3.324  0.2384 -2.6333 -1.7330
    2MOL   H127  289   0.843   2.721   3.288  2.2256  0.1337 -0.7735
    2MOL   H128  290   0.619   2.823   3.317  1.0215 -1.1484  1.5484
    2MOL   H129  291   0.619   2.709   3.206  0.8079 -0.1432  0.7627
    2MOL   C130  292   0.873   2.837   3.105  0.0959  0.7972 -0.4252
    2MOL   C131  293   1.022   2.806   3.094 -0.4577 -0.0731  0.0896
    2MOL   N132  294   1.035   2.663   3.077  0.6784  0.1388  0.0643
    2MOL   H133  295   0.825   2.774   3.030  0.6684 -0.3658  0.1728
    2MOL   H134  296   0.848   2.938   3.074 -3.1569  0.6687  1.5280
    2MOL   H135  297   1.072   2.839   3.185  1.3945  0.9705 -1.2796
    2MOL   H136  298   1.060   2.614   3.162 -1.1113 -0.2928  0.3723
    2MOL   H137  299   1.113   2.650   3.015  1.2162  1.7301  0.3720
    2MOL   C138  300   1.080   2.882   2.976 -0.7906 -0.2014 -0.3488
    2MOL   C139  301   1.145   3.020   3.025  0.1004 -0.4413  0.9213
    2MOL   N140  302   1.273   2.993   3.084  0.3674 -0.4503  0.8168
    2MOL   H141  303   1.155   2.820   2.927 -0.8822 -0.2464 -0.4317
    2MOL   H142  304   1.010   2.899   2.894  1.2580 -0.0238 -2.1139
    2MOL   H143  305   1.088   3.080   3.096  2.9665  0.5535  2.4853
    2MOL   H144  306   1.263   2.955   3.177  2.2141  0.5571  1.4580
    2MOL   H145  307   1.313   3.084   3.103 -0.3983  0.5880 -2.3253
    2MOL   C146  308   1.177   3.116   2.903 -0.5615  0.4761 -0.2831
    2MOL   C147  309   1.055   3.190   2.843  0.0188 -0.2932 -0.4513
    2MOL   N148  310   1.036   3.311   2.922 -0.2301 -0.2427  0.9871
    2MOL   H149  311   1.252   3.186   2.942 -0.0687  0.0087 -0.3742
    2MOL   H150  312   1.230   3.056   2.829 -1.2606  0.6825 -0.9453
    2MOL   H151  313   0.973   3.121   2.857 -1.3158  1.2657 -0.3808
    2MOL   H152  314   0.941   3.338   2.902  0.3712  0.7397 -0.6673
    2MOL   H153  315   1.030   3.280   3.017  0.2499 -0.1515  1.0493
    2MOL   C154  316   1.078   3.233   2.702  0.3955  0.5269  0.6404
    2MOL   C155  317   1.076   3.126   2.594  0.2871 -0.1750  0.8919
    2MOL   N156  318   1.088   3.177   2.458  0.0972  0.4100  0.6085
    2MOL   H157  319   1.005   3.309   2.675  0.2925  0.2241  0.0663
    2MOL   H158  320   1.174   3.285   2.693 -0.1212  1.3732 -0.0489
    2MOL   H159  321   0.987   3.063   2.603 -0.1394  0.2159 -0.4385
    2MOL   H160  322   1.149   3.110   2.414  0.1621  0.9967 -0.2094
    2MOL   H161  323   1.139   3.260   2.482 -0.9984  1.3751 -0.3500
    2MOL   H162  324   1.155   3.053   2.611 -0.8028 -1.3012  1.2035
    3MOL     C1  325   1.823   3.513   1.750 -0.1174  0.5108  0.4688
    3MOL     C2  326   1.732   3.393   1.771  0.2653 -0.3122 -0.1739
    3MOL     N3  327   1.728   3.365   1.917 -0.5605 -0.3460 -0.0359
    3MOL     H4  328   1.864   3.501   1.649 -1.5955 -2.3124  0.1514
    3MOL     H5  329   1.905   3.507   1.822 -0.1954  3.2563  0.8409
    3MOL     H6  330   1.777   3.302   1.731  1.2587  0.5750 -1.0893
    3MOL     H7  331   1.746   3.267   1.939  0.6182 -0.3169 -0.8069
    3MOL     H8  332   1.639   3.376   1.962 -0.2752  0.6843  0.2798
    3MOL     H9  333   1.770   3.606   1.767 -1.5968 -0.5454  1.7330
    3MOL    C10  334   1.588   3.409   1.720 -0.1459 -0.3802  0.1816
    3MOL    C11  335   1.576   3.399   1.566 -0.1635  0.2929 -0.0406
    3MOL    N12  336   1.458   3.322   1.524  0.0599  0.1427  0.0421
    3MOL    H13  337   1.529   3.330   1.767 -1.3674  1.5045  1.9328
    3MOL    H14  338   1.551   3.508   1.748  0.4085  0.0164 -0.4629
    3MOL    H15  339   1.661   3.339   1.533 -0.7839 -1.5546  1.5398
    3MOL    H16  340   1.383   3.355   1.584 -0.6405 -1.2036 -0.0792
    3MOL    H17  341   1.435   3.336   1.427  0.4259  0.0484 -0.0603
    3MOL    C18  342   1.574   3.535   1.490 -0.7721  0.1132  0.0515
    3MOL    C19  343   1.637   3.522   1.351  0.7578 -0.0471  0.1945
    3MOL    N20  344   1.592   3.639   1.271 -0.2422 -0.5801  0.1692
    3MOL    H21  345   1.470   3.568   1.481 -1.4868 -1.1158  3.2387
    3MOL    H22  346   1.624   3.602   1.559  0.8046 -0.9597 -0.0278
    3MOL    H23  347   1.602   3.432   1.300 -0.5716 -0.8285  2.4187
    3MOL    H24  348   1.650   3.659   1.191  0.7390  0.9842  1.2515
    3MOL    H25  349   1.500   3.631   1.229 -1.1436 -1.9740  2.2858
    3MOL    C26  350   1.789   3.514   1.365  0.5676 -0.4429  1.1116
    3MOL    C27  351   1.872   3.469   1.241  1.0609 -0.2564 -0.4052
    3MOL    N28  352   1.885   3.587   1.154 -0.2532 -0.0432  0.1243
    3MOL    H29  353   1.815   3.611   1.408  1.0930 -0.4508  0.8113
    3MOL    H30  354   1.824   3.447   1.443  0.8381  0.3455  1.6756
    3MOL    H31  355   1.807   3.393   1.198 -2.0033  2.0490 -0.0167
    3MOL    H32  356   1.810   3.568   1.089 -0.5962 -0.9918  0.7852
    3MOL    H33  357   1.847   3.664   1.208  0.1279  1.3277 -1.5245
    3MOL    C34  358   2.015   3.422   1.279 -0.1131 -0.4034 -0.4737
    3MOL    C35  359   2.111   3.380   1.168  0.0250 -0.6508  0.1604
    3MOL    N36  360   2.244   3.371   1.222  0.2042 -0.1049  0.1047
    3MOL    H37  361   2.070   3.505   1.324 -0.6149 -1.5221  2.3100
    3MOL    H38  362   2.007   3.349   1.359  0.8138  0.7322  0.6798
    3MOL    H39  363   2.115   3.467   1.102  0.0049 -0.0945  0.8967
    3MOL    H40  364   2.288   3.451   1.266 -0.0839  1.3225 -2.1185
    3MOL    H41  365   2.310   3.337   1.153  1.0823 -0.5766  1.1577
    3MOL    C42  366   2.076   3.250   1.098  0.6662 -0.2921 -0.0252
    3MOL    C43  367   2.135   3.247   0.957 -0.4303 -0.0948 -0.0584
    3MOL    N44  368   2.119   3.111   0.913 -0.5659 -0.6257  0.1848
    3MOL    H45  369   2.100   3.161   1.156 -1.3222 -1.1266 -0.4298
    3MOL    H46  370   1.968   3.257   1.089  0.8650  2.6757 -0.5135
    3MOL    H47  371   2.239   3.270   0.938 -0.2650  1.7161  2.6682
    3MOL    H48  372   2.178   3.085   0.835  0.3382 -0.6918  0.8809
    3MOL    H49  373   2.132   3.050   0.993  2.1102  0.2283  0.4617
    3MOL    C50  374   2.068   3.350   0.859  0.3602 -0.3616 -0.3604
    3MOL    C51  375   2.169   3.428   0.772 -0.5538  0.0161 -0.1655
    3MOL    N52  376   2.088   3.463   0.660 -0.5501 -0.0194 -0.2448
    3MOL    H53  377   1.994   3.297   0.800  0.2586  0.5507 -1.0644
    3MOL    H54  378   2.010   3.427   0.911  1.1068  1.6289 -2.3918
    3MOL    H55  379   2.243   3.355   0.738  0.0717 -0.3139  1.8403
    3MOL    H56  380   2.149   3.476   0.580 -1.4880 -1.5651 -1.2568
    3MOL    H57  381   2.044   3.376   0.630  0.9573 -1.4423  1.5814
    3MOL    C58  382   2.226   3.560   0.831  0.4123  0.0091 -0.1025
    3MOL    C59  383   2.305   3.657   0.741 -0.5495 -0.2539 -0.3166
    3MOL    N60  384   2.325   3.791   0.804  0.1049 -0.1611  0.5790
    3MOL    H61  385   2.149   3.620   0.880  0.5489  0.2973 -0.2372
    3MOL    H62  386   2.298   3.542   0.912  0.5290  1.6011  0.1780
    3MOL    H63  387   2.223   3.680   0.673 -0.4962 -1.2308 -0.7110
    3MOL    H64  388   2.409   3.783   0.859 -0.9114 -1.7175  1.9204
    3MOL    H65  389   2.259   3.807   0.878  1.7098  1.3763  1.7232
    3MOL    C66  390   2.426   3.599   0.662 -0.5202 -0.6321 -0.4832
    3MOL    C67  391   2.460   3.679   0.534  0.5337 -0.0856 -0.1313
    3MOL    N68  392   2.597   3.667   0.481 -1.0458  0.0533  0.1986
    3MOL    H69  393   2.505   3.597   0.737 -1.8589  0.8499  1.0091
    3MOL    H70  394   2.400   3.496   0.635  0.0865 -0.4167 -1.9186
    3MOL    H71  395   2.463   3.787   0.555  0.8998 -0.0786 -0.2040
    3MOL    H72  396   2.628   3.758   0.450  0.0894 -0.4136 -0.0657
    3MOL    H73  397   2.588   3.622   0.391  0.2214  2.9179 -1.4232
    3MOL    C74  398   2.357   3.644   0.417  0.0068  0.9225  0.4874
    3MOL    C75  399   2.310   3.753   0.324  0.2122 -0.6186  0.2847
    3MOL    N76  400   2.269   3.696   0.200 -0.2283  0.0251  0.1601
    3MOL    H77  401   2.418   3.578   0.355  1.2728  2.1652  0.3719
    3MOL    H78  402   2.279   3.579   0.455  0.3260 -0.5147 -1.2471
    3MOL    H79  403   2.390   3.823   0.298 -0.7654  1.7209  3.2045
    3MOL    H80  404   2.356   3.706   0.149 -0.3665  0.9197  0.0819
    3MOL    H81  405   2.202   3.757   0.156  1.0810  3.4459  2.6775
    3MOL    C82  406   2.186   3.816   0.392 -0.4446 -0.0231  0.3301
    3MOL    C83  407   2.110   3.927   0.323  0.0613 -0.3726  0.3389
    3MOL    N84  408   1.998   3.956   0.416 -0.0759 -0.2000  0.2892
    3MOL    H85  409   2.114   3.735   0.403 -1.0359  0.0455 -2.8015
    3MOL    H86  410   2.216   3.852   0.491  2.3591  1.9875 -1.1787
    3MOL    H87  411   2.080   3.896   0.223  1.0877  0.0298 -0.1024
    3MOL    H88  412   2.020   4.019   0.491  1.5300  0.5203 -0.7497
    3MOL    H89  413   1.972   3.873   0.466 -0.7256 -0.0860  0.1461
    3MOL    C90  414   2.193   4.052   0.306 -0.4805 -0.1311 -0.4749
    3MOL    C91  415   2.259   4.063   0.169  0.0156 -0.2526  0.3463
    3MOL    N92  416   2.163   4.072   0.062 -0.5668  0.1043 -0.9262
    3MOL    H93  417   2.143   4.143   0.338  1.8994  0.4945  1.6786
    3MOL    H94  418   2.270   4.054   0.383 -1.4889  2.7820  0.5214
    3MOL    H95  419   2.325   3.976   0.162  1.5677  0.8638  0.8566
    3MOL    H96  420   2.206   4.104   7.252 -0.9778 -0.4611 -1.3388
    3MOL    H97  421   2.100   4.149   0.078  1.6934  1.3810  2.5780
    3MOL    C98  422   2.350   4.191   0.152  0.0062 -0.1773  0.3139
    3MOL    C99  423   2.452   4.171   0.044 -0.3472  0.2927 -0.2944
    3MOL   N100  424   2.498   4.301   7.271  0.3177 -0.1728  0.1729
    3MOL   H101  425   2.292   4.282   0.138  3.4894  2.1460  0.6005
    3MOL   H102  426   2.407   4.204   0.244  1.4005 -0.5287 -0.4976
    3MOL   H103  427   2.391   4.137   7.236 -1.6447 -0.9330  1.1296
    3MOL   H104  428   2.427   4.349   7.219 -1.1318 -1.6646  0.7342
    3MOL   H105  429   2.568   4.284   7.199  1.5283  3.3880  0.4388
    3MOL   C106  430   2.568   4.073   0.077  0.0647  0.2599 -0.8200
    3MOL   C107  431   2.563   3.930   0.019 -0.0116 -0.0643 -0.1358
    3MOL   N108  432   2.530   3.926   7.152 -0.4271 -0.2516 -0.0311
    3MOL   H109  433   2.657   4.126   0.042 -0.5406  1.0751 -1.1321
    3MOL   H110  434   2.581   4.056   0.184 -1.0152 -0.1262 -0.7453
    3MOL   H111  435   2.484   3.870   0.066 -0.5925  0.7822 -0.0238
    3MOL   H112  436   2.547   3.841   7.099 -0.6763  0.6025 -1.5217
    3MOL   H113  437   2.439   3.958   7.121  0.5582  0.0371 -2.7762
    3MOL   C114  438   2.694   3.850   0.034 -0.3336 -0.1336 -0.1570
    3MOL   C115  439   2.703   3.793   0.177  0.2085  0.4304  0.7585
    3MOL   N116  440   2.682   3.648   0.166 -0.5827  0.5195  1.1266
    3MOL   H117  441   2.705   3.772   7.235  0.1775  1.3298 -1.6390
    3MOL   H118  442   2.774   3.918   0.006 -0.8320  0.4430 -0.2007
    3MOL   H119  443   2.637   3.831   0.254 -2.4461 -2.1685 -0.1239
    3MOL   H120  444   2.603   3.643   0.104  0.5775  2.5884 -0.5827
    3MOL   H121  445   2.763   3.616   0.114  0.1699  2.5100  1.0285
    3MOL   C122  446   2.852   3.810   0.215 -0.6015  0.0068  0.6122
    3MOL   C123  447   2.878   3.952   0.272  0.3798  0.1588  0.2352
    3MOL   N124  448   2.803   3.966   0.393 -0.4243  0.6542 -0.2937
    3MOL   H125  449   2.875   3.732   0.288 -3.6599 -0.9581  0.6194
    3MOL   H126  450   2.911   3.785   0.127  0.0042 -1.3720  1.3838
    3MOL   H127  451   2.840   4.029   0.205 -3.1360 -0.4530  1.3968
    3MOL   H128  452   2.813   3.874   0.435 -0.6724 -0.2424 -2.1358
    3MOL   H129  453   2.844   4.030   0.459  0.9329 -1.4153  0.9452
    3MOL   C130  454   3.023   3.982   0.316 -0.3621 -0.3327  0.4658
    3MOL   C131  455   3.054   4.133   0.302  0.8168  0.1860  0.2637
    3MOL   N132  456   2.990   4.191   0.417  0.3382 -0.4409 -0.0039
    3MOL   H133  457   3.043   3.933   0.411 -1.0834 -3.3746 -0.9027
    3MOL   H134  458   3.076   3.924   0.240 -0.5341  1.7128 -1.2883
    3MOL   H135  459   3.017   4.170   0.207  0.4456 -0.1774  0.2687
    3MOL   H136  460   2.899   4.225   0.389  0.7567 -1.1923 -2.4417
    3MOL   H137  461   3.027   4.272   0.464 -0.7166 -0.3135  0.6312
    3MOL   C138  462   3.206   4.153   0.310 -0.3521 -0.2695  0.1084
    3MOL   C139  463   3.282   4.107   0.181  0.3715  0.3417 -0.0113
    3MOL   N140  464   3.275   4.230   0.105  0.2611  0.4908 -0.0574
    3MOL   H141  465   3.241   4.250   0.346 -3.2768  0.4354  1.1690
    3MOL   H142  466   3.246   4.084   0.385 -1.0299 -0.4857  0.2701
    3MOL   H143  467   3.231   4.029   0.125 -0.0675  0.1880  0.5877
    3MOL   H144  468   3.279   4.190   0.012  2.3156  0.7481 -0.1067
    3MOL   H145  469   3.180   4.262   0.107 -0.2227 -0.9142  0.3136
    3MOL   C146  470   3.426   4.071   0.213  1.0485 -0.2877  0.2564
    3MOL   C147  471   3.442   3.951   0.307  0.1171 -1.1535 -0.1408
    3MOL   N148  472   3.494   3.835   0.234 -0.0389 -0.0156 -0.3856
    3MOL   H149  473   3.467   4.056   0.113 -0.4923  1.0153 -0.5925
    3MOL   H150  474   3.476   4.161   0.251  2.1176 -1.0843  0.7811
    3MOL   H151  475   3.345   3.921   0.346 -0.0241 -0.6270 -0.0736
    3MOL   H152  476   3.458   3.838   0.140 -0.2585 -0.5945 -0.3192
    3MOL   H153  477   3.454   3.753   0.277 -2.6511  0.7768 -1.2160
    3MOL   C154  478   3.536   3.979   0.427 -0.1992 -0.3029  0.1701
    3MOL   C155  479   3.484   4.085   0.526  0.8137 -0.2232 -0.1208
    3MOL   N156  480   3.571   4.088   0.644 -0.1458  0.0567 -0.0507
    3MOL   H157  481   3.575   3.891   0.477 -1.8246 -1.0083  0.2439
    3MOL   H158  482   3.626   4.015   0.377 -2.3105  0.3549 -3.3766
    3MOL   H159  483   3.384   4.060   0.560  0.2414 -0.3313 -1.8052
    3MOL   H160  484   3.551   4.002   0.694 -2.1531  1.7782  2.2484
    3MOL   H161  485   3.534   4.160   0.705 -1.0895 -0.2862 -0.2198
    3MOL   H162  486   3.477   4.181   0.474  0.7022 -1.3099 -2.1569
    4MOL     C1  487   4.543   7.157   0.594  0.2776 -0.0721  0.4342
    4MOL     C2  488   4.420   7.082   0.631 -0.4650 -0.2615 -0.3393
    4MOL     N3  489   4.434   7.045   0.771 -0.4243 -1.1615 -0.3928
    4MOL     H4  490   4.636   7.100   0.584  0.8152  0.9348 -0.3723
    4MOL     H5  491   4.550   7.249   0.653  0.3481  0.3954 -0.2929
    4MOL     H6  492   4.424   6.991   0.570  1.1072 -0.4588  0.0269
    4MOL     H7  493   4.410   7.120   0.834  0.0014  0.3910 -2.0423
    4MOL     H8  494   4.534   7.033   0.784 -0.5048 -0.5050  0.8179
    4MOL     H9  495   4.532   7.197   0.494 -1.7838 -0.9740  0.2926
    4MOL    C10  496   4.280   7.147   0.598 -0.8501  0.1029 -0.9701
    4MOL    C11  497   4.257   7.191   0.453 -0.0241  0.0940  0.0438
    4MOL    N12  498   4.278   7.091   0.354  0.0641  0.1225 -0.1330
    4MOL    H13  499   4.205   7.080   0.640  1.4347 -0.7946  1.8623
    4MOL    H14  500   4.286   7.242   0.653  1.8394 -0.6171  0.0672
    4MOL    H15  501   4.328   7.273   0.438 -1.0377  0.9876  0.0852
    4MOL    H16  502   4.245   7.124   0.265 -1.3663  2.2782  1.1521
    4MOL    H17  503   4.371   7.053   0.343 -0.0817 -0.4993  0.7198
    4MOL    C18  504   4.115   7.270   0.430 -0.3750  0.0237  0.0776
    4MOL    C19  505   4.060   0.070   0.555  0.3961  0.2483  0.3499
    4MOL    N20  506   4.141   0.183   0.600 -0.2309  0.2314  0.1748
    4MOL    H21  507   4.135   0.064   0.349  1.0605 -0.1544  0.2635
    4MOL    H22  508   4.040   7.194   0.408 -1.1823  1.5003 -2.4623
    4MOL    H23  509   4.065   7.270   0.633  1.8728  0.4466  0.4570
    4MOL    H24  510   4.168   0.238   0.520  0.7126  0.8473  0.9185
    4MOL    H25  511   4.231   0.151   0.632  0.1397  0.9490 -0.1423
    4MOL    C26  512   3.917   0.119   0.539 -0.1519  0.5426  0.0386
    4MOL    C27  513   3.805   0.012   0.530  0.8883  0.4186 -0.1059
    4MOL    N28  514   3.743   7.264   0.664 -0.2086 -0.4452 -0.2056
    4MOL    H29  515   3.883   0.188   0.616  0.5164  0.0854  0.7605
    4MOL    H30  516   3.905   0.162   0.440 -2.1992 -1.7876 -0.7946
    4MOL    H31  517   3.856   7.193   0.507  0.6070  0.6599 -1.7863
    4MOL    H32  518   3.664   7.205   0.647 -0.9746  0.6654 -0.5834
    4MOL    H33  519   3.813   7.210   0.714 -0.2110 -0.2001  0.0686
    4MOL    C34  520   3.683   0.031   0.426  0.3739 -0.5543 -0.1581
    4MOL    C35  521   3.731   0.001   0.284  0.1087 -0.5781  0.3563
    4MOL    N36  522   3.746   7.129   0.273 -0.5240  0.1786  0.0274
    4MOL    H37  523   3.594   7.247   0.445 -1.9656  1.7141 -3.3797
    4MOL    H38  524   3.656   0.134   0.446 -0.9438 -1.0529  0.6959
    4MOL    H39  525   3.835   0.029   0.263  0.9826 -3.3282  0.7989
    4MOL    H40  526   3.782   7.097   0.184 -0.0323 -2.5303  1.1797
    4MOL    H41  527   3.652   7.094   0.261 -0.0588 -0.7505 -1.0215
    4MOL    C42  528   3.637   0.056   0.178 -0.1837  0.1902 -0.1203
    4MOL    C43  529   3.672   0.196   0.116  0.0582 -0.4908 -0.5042
    4MOL    N44  530   3.582   0.218   0.002 -0.0916 -0.3091 -0.0058
    4MOL    H45  531   3.625   7.264   0.094 -0.6950 -1.4942  1.2872
    4MOL    H46  532   3.541   0.069   0.228 -0.5696 -3.4729  0.1961
    4MOL    H47  533   3.774   0.176   0.086 -0.0763 -1.3692 -0.3812
    4MOL    H48  534   3.630   0.276   7.211 -0.0223 -0.4338 -0.0641
    4MOL    H49  535   3.501   0.275   0.024 -0.5750 -1.1793  0.5118
    4MOL    C50  536   3.652   0.318   0.203  0.4212  0.7592 -0.1685
    4MOL    C51  537   3.756   0.433   0.179 -0.0023  0.1996 -0.1389
    4MOL    N52  538   3.729   0.523   0.067  0.3981 -0.0350 -0.2554
    4MOL    H53  539   3.556   0.368   0.186  0.9849  1.2372 -2.0379
    4MOL    H54  540   3.649   0.279   0.305 -2.9281 -1.4710 -1.0299
    4MOL    H55  541   3.847   0.376   0.161 -0.1218 -0.1031  0.2285
    4MOL    H56  542   3.642   0.572   0.079  1.6016  1.6933  1.5720
    4MOL    H57  543   3.797   0.595   0.088  0.3684  0.1626 -0.8158
    4MOL    C58  544   3.777   0.519   0.307  0.7591  0.6732  0.5770
    4MOL    C59  545   3.920   0.556   0.318 -0.0253 -0.9927  0.0079
    4MOL    N60  546   3.935   0.682   0.374  0.6227 -0.9101  0.4238
    4MOL    H61  547   3.706   0.600   0.295 -1.2502 -1.4023 -2.4988
    4MOL    H62  548   3.745   0.461   0.393 -1.3354 -0.4726 -0.9224
    4MOL    H63  549   3.976   0.562   0.225  0.9865 -2.4676  0.5117
    4MOL    H64  550   3.926   0.746   0.297 -2.9301 -1.3592  0.3654
    4MOL    H65  551   4.034   0.696   0.389  0.1717  1.4502  1.4449
    4MOL    C66  552   4.022   0.463   0.402  0.6265 -0.8140  0.2916
    4MOL    C67  553   4.158   0.436   0.341 -0.4467 -0.1877  0.8383
    4MOL    N68  554   4.252   0.378   0.430 -0.0453  0.1045  0.0203
    4MOL    H69  555   4.026   0.486   0.508 -0.5587  0.2002  0.1368
    4MOL    H70  556   3.969   0.368   0.407 -1.0434  0.0937  0.3070
    4MOL    H71  557   4.203   0.528   0.305 -2.7120 -0.5328 -3.1364
    4MOL    H72  558   4.302   0.452   0.477 -0.4304 -0.5698  1.5216
    4MOL    H73  559   4.325   0.336   0.374 -0.7904  0.9349 -1.5957
    4MOL    C74  560   4.151   0.348   0.215  0.3685  0.0473  0.6836
    4MOL    C75  561   4.255   0.384   0.104  0.0933 -0.2916 -0.6934
    4MOL    N76  562   4.258   0.288   7.273  0.1488  0.5328 -0.5593
    4MOL    H77  563   4.162   0.243   0.243  0.5286 -0.0984  0.0993
    4MOL    H78  564   4.055   0.349   0.163  1.2427 -0.7415 -0.9968
    4MOL    H79  565   4.356   0.380   0.144 -0.1927 -1.2430 -0.0424
    4MOL    H80  566   4.325   0.314   7.201 -1.5122  0.1795 -2.2851
    4MOL    H81  567   4.167   0.290   7.229 -0.6297 -0.7457  0.9825
    4MOL    C82  568   4.230   0.528   0.036  0.0027 -0.1629 -0.0066
    4MOL    C83  569   4.348   0.591   7.240  0.1347  0.0234 -0.3279
    4MOL    N84  570   4.295   0.720   7.184  0.4144  0.1976 -0.5979
    4MOL    H85  571   4.149   0.531   7.239  0.4366  0.3154 -0.4837
    4MOL    H86  572   4.200   0.591   0.119  0.6742 -0.7514  0.6920
    4MOL    H87  573   4.384   0.530   7.157 -0.5187  0.4459 -0.9293
    4MOL    H88  574   4.369   0.769   7.137  1.0275  0.1870  0.3368
    4MOL    H89  575   4.220   0.703   7.118  0.6576  2.3942 -1.4546
    4MOL    C90  576   4.465   0.619   0.062 -0.8077  0.1825 -0.1530
    4MOL    C91  577   4.587   0.514   0.080 -0.5087  0.4135  0.1089
    4MOL    N92  578   4.696   0.551   7.266 -0.1902  0.0172 -0.4042
    4MOL    H93  579   4.498   0.721   0.041 -1.3363  0.4566  0.3229
    4MOL    H94  580   4.414   0.627   0.158 -1.0732  1.8551 -0.4072
    4MOL    H95  581   4.544   0.417   0.057  3.1073 -1.3293  0.2961
    4MOL    H96  582   4.726   0.647   0.001 -0.6702 -0.0619  1.8471
    4MOL    H97  583   4.679   0.542   7.166  1.6405 -0.6236 -0.6706
    4MOL    C98  584   4.638   0.515   0.224 -0.2136 -0.2646  0.1713
    4MOL    C99  585   4.729   0.390   0.250 -0.2634 -0.2652  0.2556
    4MOL   N100  586   4.865   0.416   0.195  0.3857  0.3329 -0.3482
    4MOL   H101  587   4.699   0.602   0.247  1.6208 -1.5508  0.2800
    4MOL   H102  588   4.552   0.507   0.291 -0.5945  0.0866 -0.2710
    4MOL   H103  589   4.692   0.311   0.184  1.4402 -1.0105  0.1608
    4MOL   H104  590   4.835   0.441   0.102  0.5389 -2.3645 -1.1458
    4MOL   H105  591   4.898   0.509   0.216  1.0218  0.1948 -0.7485
    4MOL   C106  592   4.756   0.346   0.399  0.2135 -0.1724  1.0975
    4MOL   C107  593   4.621   0.324   0.480 -0.3870  0.2194 -0.4819
    4MOL   N108  594   4.524   0.227   0.424  0.0724  0.0548 -0.2082
    4MOL   H109  595   4.822   0.259   0.406  0.2805 -0.1747  0.4975
    4MOL   H110  596   4.804   0.435   0.442 -0.2325  0.6304 -0.0530
    4MOL   H111  597   4.582   0.425   0.489  2.0529  0.9316  2.8913
    4MOL   H112  598   4.524   0.257   0.328 -0.3296  0.3280 -0.1216
    4MOL   H113  599   4.564   0.135   0.424 -1.1833 -0.4976 -0.0129
    4MOL   C114  600   4.655   0.282   0.623 -0.1561 -0.3371  0.5224
    4MOL   C115  601   4.555   0.319   0.743  0.3276  0.3670  0.0511
    4MOL   N116  602   4.434   0.246   0.716 -0.1720 -0.0978 -0.2585
    4MOL   H117  603   4.680   0.177   0.615 -0.8952 -0.3144 -3.1843
    4MOL   H118  604   4.750   0.324   0.656 -1.4518  1.1239  2.5341
    4MOL   H119  605   4.534   0.426   0.748  1.3479  0.5640  0.2690
    4MOL   H120  606   4.357   0.308   0.740 -0.6396 -0.5375 -0.6075
    4MOL   H121  607   4.422   0.239   0.616  1.6910  1.3864 -0.6202
    4MOL   C122  608   4.603   0.282   0.889 -0.6378  0.3302  0.1672
    4MOL   C123  609   4.515   0.334   1.009  0.0849  0.1954 -0.0519
    4MOL   N124  610   4.577   0.285   1.131  0.1202 -0.3262 -0.6492
    4MOL   H125  611   4.607   0.173   0.891 -3.5658  0.1489 -1.6882
    4MOL   H126  612   4.703   0.322   0.906  1.1833 -3.9158  0.0046
    4MOL   H127  613   4.419   0.284   0.994 -0.6748  1.7514 -0.4952
    4MOL   H128  614   4.619   0.194   1.120  1.2061  0.2058 -0.9450
    4MOL   H129  615   4.508   0.263   1.201  0.2003 -1.3897 -0.9084
    4MOL   C130  616   4.499   0.485   1.013  0.1049  0.0581  1.0246
    4MOL   C131  617   4.426   0.543   1.136 -0.3408 -0.1852  0.0350
    4MOL   N132  618   4.399   0.684   1.104  0.3321  0.5237  0.2059
    4MOL   H133  619   4.598   0.531   1.007 -0.0792  0.1994 -1.1293
    4MOL   H134  620   4.439   0.505   0.925  0.3652 -1.0582  0.5853
    4MOL   H135  621   4.488   0.561   1.224  1.7388  2.2337 -1.8219
    4MOL   H136  622   4.485   0.736   1.092 -0.2704  1.4962  0.1132
    4MOL   H137  623   4.363   0.720   1.192  2.1576 -0.1259  1.2449
    4MOL   C138  624   4.298   0.469   1.179  0.5139 -0.6900 -0.0034
    4MOL   C139  625   4.239   0.509   1.318  0.0951 -0.0367 -0.2249
    4MOL   N140  626   4.099   0.474   1.325 -0.3412 -0.1952  0.2066
    4MOL   H141  627   4.218   0.475   1.105 -0.1259  1.4176  0.8358
    4MOL   H142  628   4.324   0.363   1.186  1.4594 -0.7233 -3.2797
    4MOL   H143  629   4.242   0.617   1.327  0.2981 -0.1351  0.9162
    4MOL   H144  630   4.060   0.552   1.275  1.9130 -0.8608 -2.7636
    4MOL   H145  631   4.079   0.406   1.253  3.1089 -0.6018 -0.4639
    4MOL   C146  632   4.312   0.447   1.440 -0.0206 -0.4096 -0.1735
    4MOL   C147  633   4.281   0.511   1.580 -0.1746 -0.8293  1.0601
    4MOL   N148  634   4.323   0.410   1.674  0.0296  0.1421 -0.1277
    4MOL   H149  635   4.303   0.339   1.435 -3.2401 -0.4265  3.7387
    4MOL   H150  636   4.418   0.471   1.426 -0.4749  0.8995 -1.5845
    4MOL   H151  637   4.174   0.528   1.588 -0.7532 -1.2970 -3.8260
    4MOL   H152  638   4.279   0.433   1.762 -0.7170  1.6407 -0.8803
    4MOL   H153  639   4.285   0.323   1.641 -0.4410 -0.2310  1.3586
    4MOL   C154  640   4.357   0.649   1.597 -0.2216 -0.1117  0.0234
    4MOL   C155  641   4.343   0.708   1.737 -0.1462 -0.0736  0.4173
    4MOL   N156  642   4.406   0.842   1.748 -0.2633 -0.1783 -0.6191
    4MOL   H157  643   4.464   0.636   1.579 -0.6995 -4.0490 -0.3201
    4MOL   H158  644   4.332   0.719   1.517 -1.6859 -1.6092 -0.8405
    4MOL   H159  645   4.393   0.637   1.804  2.3763  1.5123  0.2714
    4MOL   H160  646   4.501   0.834   1.714 -0.2574 -0.4662 -0.5373
    4MOL   H161  647   4.371   0.883   1.663  0.5343  1.3807 -0.2089
    4MOL   H162  648   4.238   0.725   1.760  0.6042  1.5423  2.9246
    5MOL     C1  649   6.215   5.045   0.625 -0.6102  0.2789 -0.0449
    5MOL     C2  650   6.356   5.094   0.643 -0.2569 -0.3513  0.1300
    5MOL     N3  651   6.430   4.974   0.682  0.1701 -0.4233  0.0649
    5MOL     H4  652   6.141   5.124   0.613 -1.0802 -0.3254 -1.2238
    5MOL     H5  653   6.177   4.984   0.707  0.1575  1.3236  1.1005
    5MOL     H6  654   6.363   5.175   0.716  2.4713 -0.0978 -0.3446
    5MOL     H7  655   6.410   4.959   0.780 -1.3200 -0.8741 -0.2897
    5MOL     H8  656   6.528   4.997   0.675  0.1822 -0.5982 -0.3610
    5MOL     H9  657   6.200   4.983   0.537  1.2363  1.4973 -1.2417
    5MOL    C10  658   6.407   5.147   0.507 -0.4912  0.4583 -0.1384
    5MOL    C11  659   6.352   5.281   0.464 -0.3836 -0.5736 -0.0927
    5MOL    N12  660   6.454   5.385   0.445 -0.1908  0.4969  0.0726
    5MOL    H13  661   6.513   5.172   0.518 -0.6942  1.3647 -0.2501
    5MOL    H14  662   6.402   5.065   0.435 -0.5187  0.6394 -0.3458
    5MOL    H15  663   6.300   5.325   0.549  1.0958  0.0250  0.5173
    5MOL    H16  664   6.441   5.463   0.383  0.9770 -0.5815 -1.5806
    5MOL    H17  665   6.544   5.341   0.433 -0.5677  0.5020 -2.9536
    5MOL    C18  666   6.263   5.274   0.342 -0.2235 -0.7763  0.0171
    5MOL    C19  667   6.182   5.399   0.301 -0.9798  0.4800 -0.0255
    5MOL    N20  668   6.126   5.363   0.172  0.7095  0.1596  0.1929
    5MOL    H21  669   6.328   5.241   0.260 -1.5159  0.0405 -1.3709
    5MOL    H22  670   6.196   5.190   0.361 -1.2541  0.6220  2.7503
    5MOL    H23  671   6.253   5.481   0.283 -0.3667  0.1415  0.8446
    5MOL    H24  672   6.200   5.325   0.114 -1.2799 -0.5532 -1.9894
    5MOL    H25  673   6.065   5.285   0.190  1.8474 -0.9758 -0.7435
    5MOL    C26  674   6.069   5.453   0.390 -0.1801  0.1864  0.2392
    5MOL    C27  675   6.097   5.558   0.501 -0.4143 -0.4190 -0.2541
    5MOL    N28  676   6.106   5.690   0.448 -0.4088 -0.5558  0.1843
    5MOL    H29  677   5.988   5.505   0.337 -2.5311 -1.2185  2.3287
    5MOL    H30  678   6.017   5.367   0.432  0.8350 -0.3985  0.2902
    5MOL    H31  679   6.183   5.545   0.567 -1.1520  2.3752  1.3596
    5MOL    H32  680   6.142   5.746   0.524  0.1043 -1.0620  0.3121
    5MOL    H33  681   6.015   5.732   0.433 -0.3811 -0.1295  1.1967
    5MOL    C34  682   5.978   5.560   0.596 -0.5494  0.1868 -0.3864
    5MOL    C35  683   5.985   5.649   0.721 -0.5490 -0.7041  0.2714
    5MOL    N36  684   5.848   5.667   0.778 -0.3051  0.5449 -0.1802
    5MOL    H37  685   5.888   5.581   0.539 -1.0058  3.0450  1.3224
    5MOL    H38  686   5.949   5.457   0.615 -0.6727  0.5483  1.4244
    5MOL    H39  687   6.007   5.752   0.692 -2.0917 -0.1388  1.0584
    5MOL    H40  688   5.870   5.705   0.869 -2.0242  3.0071 -0.7484
    5MOL    H41  689   5.803   5.739   0.723  0.9132  2.1866  0.9248
    5MOL    C42  690   6.091   5.602   0.822  0.4791 -0.1553 -0.1827
    5MOL    C43  691   6.222   5.684   0.810 -0.4194 -0.0724 -0.3354
    5MOL    N44  692   6.191   5.813   0.865  0.0406 -0.1278 -0.5848
    5MOL    H45  693   6.051   5.601   0.924 -2.0918  2.7082 -1.0860
    5MOL    H46  694   6.111   5.498   0.794  1.7033 -0.1181  0.5649
    5MOL    H47  695   6.250   5.707   0.706 -1.9085 -0.2760 -0.7834
    5MOL    H48  696   6.274   5.871   0.858 -0.1560  0.4072  1.1324
    5MOL    H49  697   6.169   5.803   0.963 -1.0872  1.0015 -0.7101
    5MOL    C50  698   6.357   5.626   0.877 -0.7487  0.3675 -0.3692
    5MOL    C51  699   6.400   5.488   0.820 -0.1689  0.6651  0.2925
    5MOL    N52  700   6.498   5.524   0.717 -0.5646 -0.1394  0.4606
    5MOL    H53  701   6.441   5.694   0.867  0.4845 -1.0516  0.0804
    5MOL    H54  702   6.329   5.616   0.982  0.3608 -0.4139 -0.1427
    5MOL    H55  703   6.317   5.427   0.784  0.6694 -0.1843 -0.2111
    5MOL    H56  704   6.519   5.448   0.654  0.5496 -0.8888  1.7132
    5MOL    H57  705   6.461   5.589   0.649  1.9089  1.2163  0.3531
    5MOL    C58  706   6.471   5.396   0.920  0.1657 -0.5111  0.0601
    5MOL    C59  707   6.384   5.293   1.003 -0.4270  0.0227 -0.2299
    5MOL    N60  708   6.453   5.176   1.029 -0.5887 -0.2210 -0.0097
    5MOL    H61  709   6.548   5.332   0.877 -0.1263 -0.9635  0.2128
    5MOL    H62  710   6.529   5.459   0.988 -2.5037 -0.7585  2.6957
    5MOL    H63  711   6.300   5.259   0.943 -2.0884 -1.0149  2.5902
    5MOL    H64  712   6.491   5.143   0.942 -0.1062 -1.2970  0.6023
    5MOL    H65  713   6.387   5.103   1.052  0.8778 -1.0886  1.5217
    5MOL    C66  714   6.344   5.360   1.138 -0.0375  0.5782 -0.3074
    5MOL    C67  715   6.219   5.317   1.199  0.1185  0.5245  0.3678
    5MOL    N68  716   6.203   5.391   1.326  0.5962 -0.1065  0.3260
    5MOL    H69  717   6.422   5.349   1.213  2.1723 -0.2473 -2.6686
    5MOL    H70  718   6.344   5.468   1.121 -1.4702  0.6051 -0.2297
    5MOL    H71  719   6.215   5.211   1.223 -1.7476  0.2896 -0.8120
    5MOL    H72  720   6.287   5.385   1.382  1.5627  3.0821 -0.6535
    5MOL    H73  721   6.133   5.341   1.379 -1.3618 -0.3886 -2.4393
    5MOL    C74  722   6.093   5.369   1.116  0.1303  0.0800  0.3399
    5MOL    C75  723   5.973   5.270   1.135 -0.2596 -0.5196  0.3545
    5MOL    N76  724   5.852   5.347   1.094  0.0798  0.2602  0.5765
    5MOL    H77  725   6.068   5.470   1.148 -0.7946  0.2860 -1.0084
    5MOL    H78  726   6.108   5.380   1.009  2.0113 -1.1362  0.4511
    5MOL    H79  727   5.957   5.251   1.241  1.1447 -2.6825  0.2069
    5MOL    H80  728   5.861   5.382   1.000 -1.4253  0.5282  0.5191
    5MOL    H81  729   5.850   5.440   1.133  0.6027  0.7357 -0.5252
    5MOL    C82  730   5.994   5.142   1.048  0.2071  0.9609  1.5386
    5MOL    C83  731   5.882   5.029   1.068 -0.1339 -0.8406  0.0848
    5MOL    N84  732   5.859   4.960   0.948  0.0882 -0.3658  0.2924
    5MOL    H85  733   5.994   5.177   0.945 -0.1031  0.0365  1.2162
    5MOL    H86  734   6.093   5.096   1.044 -0.3592 -0.0874 -4.1454
    5MOL    H87  735   5.783   5.071   1.086 -0.9493 -0.6267 -4.3128
    5MOL    H88  736   5.784   4.897   0.971 -0.8772  0.7151  0.1191
    5MOL    H89  737   5.815   5.024   0.883 -0.8996 -1.0813  0.2580
    5MOL    C90  738   5.920   4.926   1.171  0.4261  0.2722 -0.4878
    5MOL    C91  739   5.918   4.969   1.322 -0.0006  0.7060 -0.4427
    5MOL    N92  740   5.781   5.008   1.358 -0.2916 -0.0750 -0.7643
    5MOL    H93  741   5.857   4.837   1.164  1.3341 -0.3890 -0.4271
    5MOL    H94  742   6.019   4.891   1.142 -0.2131 -1.8794 -0.2058
    5MOL    H95  743   5.983   5.057   1.328 -0.0436  0.6499  1.0696
    5MOL    H96  744   5.758   5.104   1.335  1.9721  0.7053  0.0318
    5MOL    H97  745   5.708   4.953   1.316  0.8280  1.0747 -4.4223
    5MOL    C98  746   5.972   4.856   1.418  0.4307 -0.8134  0.2275
    5MOL    C99  747   6.013   4.902   1.561  0.2308  0.8982 -0.2672
    5MOL   N100  748   5.997   4.796   1.657  0.5021  0.6236  0.1863
    5MOL   H101  749   5.887   4.789   1.429 -0.3796  0.5420  2.2860
    5MOL   H102  750   6.048   4.790   1.376  1.0404  0.2897 -0.4316
    5MOL   H103  751   5.939   4.977   1.590  0.7602  1.5084 -0.4731
    5MOL   H104  752   5.985   4.846   1.743  2.3493 -0.4138  1.0876
    5MOL   H105  753   5.912   4.742   1.642 -1.4742  3.7034 -0.1572
    5MOL   C106  754   6.150   4.971   1.557  0.2573  0.3761 -0.2175
    5MOL   C107  755   6.174   5.075   1.676  0.1393 -0.6053  1.1337
    5MOL   N108  756   6.319   5.093   1.670 -0.2355 -0.0269  0.7877
    5MOL   H109  757   6.234   4.902   1.562  0.5007  0.7208  0.6257
    5MOL   H110  758   6.159   5.021   1.461 -0.4225  0.7184 -0.1079
    5MOL   H111  759   6.135   5.028   1.767  0.1018 -0.5941  1.1231
    5MOL   H112  760   6.365   5.141   1.746 -1.4755 -1.6484  2.5684
    5MOL   H113  761   6.354   4.999   1.675 -1.4066 -0.4177  1.6296
    5MOL   C114  762   6.110   5.211   1.644 -0.2591  0.2486 -0.2270
    5MOL   C115  763   6.146   5.332   1.744  0.5789 -0.5601 -0.1986
    5MOL   N116  764   6.084   5.449   1.686  0.0272  0.4461  0.3645
    5MOL   H117  765   6.140   5.230   1.540  0.1988 -1.8807 -0.5014
    5MOL   H118  766   6.003   5.202   1.627 -0.0639 -0.1342 -1.3422
    5MOL   H119  767   6.254   5.335   1.761  0.3149 -2.5534  2.0761
    5MOL   H120  768   6.139   5.472   1.604  1.3851 -1.9766  0.5823
    5MOL   H121  769   6.086   5.527   1.751  2.2094  2.9409 -2.5591
    5MOL   C122  770   6.084   5.317   1.878 -0.0493 -0.6340  0.4397
    5MOL   C123  771   6.157   5.229   1.978 -0.6117 -0.5493 -0.5717
    5MOL   N124  772   6.260   5.301   2.053  0.0172  0.0553  0.3638
    5MOL   H125  773   6.068   5.416   1.922 -0.4258 -0.4067 -0.1997
    5MOL   H126  774   5.989   5.267   1.863 -0.8709  1.2477 -0.7264
    5MOL   H127  775   6.227   5.157   1.934  0.7933  0.6651 -0.3376
    5MOL   H128  776   6.201   5.369   2.099  0.9981 -0.0720  1.8331
    5MOL   H129  777   6.300   5.271   2.141  0.2957  2.8280  1.2335
    5MOL   C130  778   6.066   5.157   2.079  0.3061 -0.3531  0.5541
    5MOL   C131  779   6.010   5.021   2.030 -0.4276  0.2926  0.4493
    5MOL   N132  780   6.117   4.928   2.027  0.5985 -0.3638 -0.1391
    5MOL   H133  781   6.108   5.141   2.178 -1.0739  2.5638  1.6772
    5MOL   H134  782   5.987   5.227   2.106  1.6010  2.2660 -2.0492
    5MOL   H135  783   5.977   5.040   1.928  1.1885 -2.9148 -0.7419
    5MOL   H136  784   6.168   4.927   2.113 -0.6994  2.5745  0.7348
    5MOL   H137  785   6.179   4.955   1.952 -0.4866  2.5664 -0.0736
    5MOL   C138  786   5.907   4.959   2.122 -0.3213 -0.3864  0.2851
    5MOL   C139  787   5.775   4.953   2.046 -0.0467  0.7298 -0.1517
    5MOL   N140  788   5.690   4.886   2.136  0.0621  0.3550  0.2420
    5MOL   H141  789   5.938   4.860   2.155 -1.6187 -0.4942  1.1864
    5MOL   H142  790   5.907   5.010   2.218 -1.5669 -0.0392  0.1052
    5MOL   H143  791   5.788   4.889   1.959  0.3006 -2.6115  2.2729
    5MOL   H144  792   5.716   4.789   2.135  0.7286  0.5277 -2.0767
    5MOL   H145  793   5.596   4.874   2.099  0.0962 -1.6907  0.7718
    5MOL   C146  794   5.719   5.092   2.007  0.5461 -0.2877  0.2193
    5MOL   C147  795   5.603   5.089   1.911 -0.0666  0.0425  0.0253
    5MOL   N148  796   5.564   5.233   1.898 -0.4897  0.0165 -0.8812
    5MOL   H149  797   5.692   5.153   2.092 -0.7616  1.3725 -1.3370
    5MOL   H150  798   5.797   5.156   1.967 -1.5313  1.9396 -0.3820
    5MOL   H151  799   5.525   5.027   1.954 -1.0982  0.5809 -1.0488
    5MOL   H152  800   5.467   5.228   1.873 -0.4795 -2.6263 -0.5686
    5MOL   H153  801   5.611   5.271   1.817 -0.2099  0.2822 -0.5924
    5MOL   C154  802   5.654   5.041   1.775 -0.1588  0.0801 -0.4677
    5MOL   C155  803   5.540   5.043   1.685  0.3821  0.0226  0.0608
    5MOL   N156  804   5.582   4.988   1.560 -0.1286  0.3789  0.5029
    5MOL   H157  805   5.723   5.114   1.733  2.0905 -0.6507  1.8113
    5MOL   H158  806   5.701   4.942   1.768  1.6798  0.8860  0.1423
    5MOL   H159  807   5.498   5.142   1.664  1.5969  0.3483 -0.8634
    5MOL   H160  808   5.679   5.003   1.538  0.0392 -0.4619  0.6896
    5MOL   H161  809   5.530   5.026   1.482 -3.5003 -1.2749  1.8617
    5MOL   H162  810   5.453   4.990   1.723 -0.2725  0.9757 -0.0801
    6MOL     C1  811   6.168   4.897   4.040 -0.5095  0.6963 -0.1585
    6MOL     C2  812   6.082   4.835   3.935  0.1878 -0.0074  0.0878
    6MOL     N3  813   5.949   4.894   3.935  0.8240 -0.6580  0.0324
    6MOL     H4  814   6.268   4.853   4.041 -0.3004  1.1567 -0.4728
    6MOL     H5  815   6.122   4.887   4.138 -0.4643 -0.2936 -0.2269
    6MOL     H6  816   6.062   4.731   3.962 -0.1661 -0.2462 -1.0480
    6MOL     H7  817   5.914   4.855   4.021 -0.0782 -0.6595 -0.3308
    6MOL     H8  818   5.888   4.861   3.861  0.1523  1.4130 -0.3663
    6MOL     H9  819   6.181   5.002   4.015  0.5856  0.3536 -1.1023
    6MOL    C10  820   6.147   4.850   3.790 -0.1112 -0.8115  0.0222
    6MOL    C11  821   6.085   4.758   3.684 -0.5279  0.3050  0.5922
    6MOL    N12  822   6.146   4.788   3.553  0.3413  0.2814  0.3784
    6MOL    H13  823   6.141   4.957   3.769  1.9346 -0.8313 -0.8105
    6MOL    H14  824   6.254   4.829   3.798 -0.3745 -2.2769 -0.1045
    6MOL    H15  825   5.978   4.780   3.673 -0.3283  0.3835 -1.2768
    6MOL    H16  826   6.090   4.858   3.506  0.6265  0.0354 -0.3353
    6MOL    H17  827   6.133   4.720   3.479 -2.4940  1.3652 -0.1871
    6MOL    C18  828   6.122   4.616   3.710  0.3137 -0.6328 -0.3699
    6MOL    C19  829   6.012   4.509   3.687  0.8577  0.9948 -0.0549
    6MOL    N20  830   6.073   4.379   3.706  0.3739 -0.4270  0.2892
    6MOL    H21  831   6.201   4.591   3.640 -1.3697 -1.6767 -1.9357
    6MOL    H22  832   6.151   4.605   3.815  0.1361  1.0818 -0.1309
    6MOL    H23  833   5.978   4.519   3.584  0.0732  0.7392  0.1741
    6MOL    H24  834   6.165   4.366   3.666  0.0919  0.8609 -0.8145
    6MOL    H25  835   6.008   4.316   3.660  0.1979 -0.2322  0.2661
    6MOL    C26  836   5.877   4.517   3.760 -0.1820 -0.2113 -0.1783
    6MOL    C27  837   5.769   4.578   3.664 -0.1365  0.5887  0.0749
    6MOL    N28  838   5.734   4.480   3.564 -0.5014  0.4559 -0.4036
    6MOL    H29  839   5.847   4.421   3.801  2.8972 -0.9354  0.5001
    6MOL    H30  840   5.891   4.574   3.852  0.1031 -0.7877  0.1358
    6MOL    H31  841   5.819   4.664   3.619  3.2210 -0.9755  0.6284
    6MOL    H32  842   5.696   4.399   3.611  0.3769  0.4201  0.2649
    6MOL    H33  843   5.813   4.430   3.527 -2.2473 -1.4249 -1.6877
    6MOL    C34  844   5.644   4.617   3.744 -0.1232 -0.4301 -0.0404
    6MOL    C35  845   5.550   4.705   3.670  0.0012 -0.5772  0.9989
    6MOL    N36  846   5.415   4.673   3.729  0.2864  0.3063  0.2741
    6MOL    H37  847   5.605   4.521   3.778  1.0536 -1.0905 -0.5524
    6MOL    H38  848   5.683   4.673   3.830 -1.9949  0.4207  0.2843
    6MOL    H39  849   5.544   4.672   3.566 -2.3254 -1.0508  1.2419
    6MOL    H40  850   5.349   4.709   3.661 -0.5405 -1.6412  0.0134
    6MOL    H41  851   5.396   4.574   3.730 -1.0393  0.5357 -0.9689
    6MOL    C42  852   5.579   4.858   3.675 -0.1334 -0.1277 -0.3683
    6MOL    C43  853   5.631   4.917   3.541  0.4301 -0.5418 -0.1972
    6MOL    N44  854   5.522   4.922   3.451  0.1622  0.8814  1.1431
    6MOL    H45  855   5.496   4.917   3.712  0.3570 -0.5273  1.4245
    6MOL    H46  856   5.658   4.872   3.749  0.7010 -2.4112 -0.7857
    6MOL    H47  857   5.689   4.835   3.497 -1.4151 -0.7372 -2.3505
    6MOL    H48  858   5.529   4.880   3.359  0.7180  1.9136  0.6996
    6MOL    H49  859   5.505   5.020   3.431 -0.3379  0.3802 -1.0638
    6MOL    C50  860   5.710   5.045   3.550  0.3483 -0.3832 -0.0506
    6MOL    C51  861   5.859   5.027   3.591 -0.0820 -0.0425 -0.4110
    6MOL    N52  862   5.931   4.984   3.479  0.1671 -0.1657  0.4226
    6MOL    H53  863   5.717   5.094   3.453  1.3521 -2.1041 -0.8775
    6MOL    H54  864   5.662   5.126   3.604 -1.4449 -1.7921  0.5371
    6MOL    H55  865   5.862   4.957   3.674  0.6165 -1.6853 -1.7798
    6MOL    H56  866   5.870   4.910   3.447  0.9320 -0.0543 -1.3788
    6MOL    H57  867   5.925   5.044   3.398  0.5667  0.4142  0.8212
    6MOL    C58  868   5.913   5.165   3.632  0.0385  0.1920 -0.1866
    6MOL    C59  869   5.858   5.215   3.761  0.1069 -0.2299 -0.0933
    6MOL    N60  870   5.959   5.190   3.866  0.1455 -0.2779  0.5219
    6MOL    H61  871   6.021   5.150   3.637  0.1847  0.8210 -1.2827
    6MOL    H62  872   5.903   5.237   3.551 -1.5134  0.7668  0.4890
    6MOL    H63  873   5.772   5.157   3.796 -0.1101  0.2094  0.1068
    6MOL    H64  874   6.041   5.214   3.811  2.2932 -2.4259  2.6934
    6MOL    H65  875   5.970   5.090   3.876 -1.1871 -0.6882 -1.7114
    6MOL    C66  876   5.834   5.367   3.768  0.5092  0.3759  0.0466
    6MOL    C67  877   5.703   5.417   3.700 -0.1900 -0.1749 -0.3180
    6MOL    N68  878   5.590   5.389   3.789 -0.6625 -0.0772 -0.1747
    6MOL    H69  879   5.830   5.395   3.873  1.8660  2.5626 -0.4579
    6MOL    H70  880   5.915   5.429   3.731  1.3910 -1.4805 -1.2397
    6MOL    H71  881   5.690   5.351   3.615  1.4540 -1.0486  0.0902
    6MOL    H72  882   5.584   5.455   3.866  0.7955 -0.9168  0.6823
    6MOL    H73  883   5.604   5.296   3.826 -1.1222 -0.0598  0.0449
    6MOL    C74  884   5.697   5.565   3.669 -0.4342 -0.1482  0.1148
    6MOL    C75  885   5.794   5.615   3.558 -0.3321 -0.9478  0.0521
    6MOL    N76  886   5.746   5.574   3.423 -0.5451  0.3175 -0.0055
    6MOL    H77  887   5.594   5.596   3.649 -0.7005 -2.4250 -2.1950
    6MOL    H78  888   5.711   5.610   3.767 -1.1246  0.1579  0.0783
    6MOL    H79  889   5.889   5.565   3.575 -0.8358 -2.1580 -0.6065
    6MOL    H80  890   5.780   5.481   3.402  1.0757  0.9984 -0.4473
    6MOL    H81  891   5.789   5.637   3.357 -0.3903  1.2584  0.9711
    6MOL    C82  892   5.825   5.776   3.565 -0.7277  0.3784  0.1898
    6MOL    C83  893   5.920   5.816   3.684  0.1830 -1.0431 -0.1552
    6MOL    N84  894   6.009   5.930   3.644 -0.7149 -0.4867  0.0678
    6MOL    H85  895   5.874   5.811   3.475  0.3358 -1.7992 -0.0996
    6MOL    H86  896   5.730   5.829   3.568  0.3913  2.4567 -0.5543
    6MOL    H87  897   5.965   5.721   3.711  0.9273  0.0028  2.3869
    6MOL    H88  898   5.967   6.017   3.672 -0.9311 -0.5223 -0.1447
    6MOL    H89  899   6.087   5.927   3.707 -1.0429 -0.0825  0.4950
    6MOL    C90  900   5.838   5.866   3.801 -0.4721  0.1537 -0.5365
    6MOL    C91  901   5.910   5.861   3.932  0.1083 -0.1098 -0.2769
    6MOL    N92  902   5.837   5.951   4.018 -0.0072  0.9084  0.0051
    6MOL    H93  903   5.801   5.965   3.773 -0.6549  0.4173  0.6128
    6MOL    H94  904   5.746   5.807   3.810 -0.3852 -0.1113 -1.2941
    6MOL    H95  905   6.004   5.910   3.907  0.3667 -0.2456  0.4081
    6MOL    H96  906   5.843   6.044   3.977  0.4634  0.4371 -1.0219
    6MOL    H97  907   5.887   5.947   4.106 -1.3460 -1.1221  0.6936
    6MOL    C98  908   5.939   5.721   3.998  0.0986 -0.0725  0.6482
    6MOL    C99  909   6.071   5.713   4.075 -0.8388 -0.8250  0.1156
    6MOL   N100  910   6.184   5.714   3.982 -0.1257  0.1319  0.8039
    6MOL   H101  911   5.856   5.686   4.061 -3.6231 -0.0529 -3.9192
    6MOL   H102  912   5.945   5.636   3.929  1.0254 -0.4219  1.1486
    6MOL   H103  913   6.073   5.629   4.145 -0.5118  0.5316  1.7687
    6MOL   H104  914   6.262   5.703   4.045  1.5041 -1.2496 -1.3796
    6MOL   H105  915   6.174   5.622   3.941 -0.8392  0.0957  1.0494
    6MOL   C106  916   6.091   5.827   4.175 -0.0260 -0.0524 -0.1493
    6MOL   C107  917   6.211   5.813   4.272 -0.4567  0.4386  0.1282
    6MOL   N108  918   6.229   5.951   4.319 -0.0582 -0.0689 -0.5944
    6MOL   H109  919   6.103   5.911   4.106 -1.3161 -0.5805 -1.0352
    6MOL   H110  920   6.001   5.841   4.234  0.6912 -1.9715  1.4514
    6MOL   H111  921   6.304   5.794   4.218 -1.1622  0.6256 -1.1730
    6MOL   H112  922   6.294   5.953   4.396 -0.8227 -0.5369  0.0750
    6MOL   H113  923   6.276   6.006   4.249 -0.8020  2.5514  0.8822
    6MOL   C114  924   6.188   5.712   4.386  0.7931  0.4653 -0.5197
    6MOL   C115  925   6.316   5.667   4.468  0.1306  0.4691  0.7895
    6MOL   N116  926   6.274   5.586   4.582  0.3122 -0.2937  0.8984
    6MOL   H117  927   6.103   5.745   4.447  1.7104 -0.6142  1.3770
    6MOL   H118  928   6.138   5.626   4.340 -2.3999  1.7595  0.3455
    6MOL   H119  929   6.357   5.759   4.509  0.4335  0.3119  0.8447
    6MOL   H120  930   6.330   5.502   4.587 -0.6436 -0.8808  2.0541
    6MOL   H121  931   6.297   5.628   4.671 -0.3842  0.2937  0.8088
    6MOL   C122  932   6.427   5.590   4.387 -0.9421  0.0544  0.4606
    6MOL   C123  933   6.543   5.680   4.326  0.4086  0.0526 -0.0506
    6MOL   N124  934   6.639   5.707   4.434 -0.4507 -0.8188 -0.4720
    6MOL   H125  935   6.479   5.520   4.452 -0.2731 -0.2010 -0.3393
    6MOL   H126  936   6.377   5.538   4.305  0.4085 -2.5068  1.1976
    6MOL   H127  937   6.506   5.772   4.282  0.3229 -0.5605 -1.2691
    6MOL   H128  938   6.719   5.727   4.376 -1.2156  3.0280 -0.2915
    6MOL   H129  939   6.619   5.801   4.464  1.4224 -0.2757 -0.8248
    6MOL   C130  940   6.612   5.603   4.210  0.4444 -0.1338 -0.2477
    6MOL   C131  941   6.544   5.630   4.073  0.4353 -0.2255  0.0662
    6MOL   N132  942   6.618   5.732   4.004  0.7382  0.7266  0.8622
    6MOL   H133  943   6.719   5.622   4.203  1.2479 -4.1189  0.1100
    6MOL   H134  944   6.609   5.498   4.239  1.2807 -0.1614 -0.2676
    6MOL   H135  945   6.443   5.668   4.083 -0.1317 -2.2328  2.4382
    6MOL   H136  946   6.586   5.745   3.909 -0.7025  1.6348  1.4619
    6MOL   H137  947   6.716   5.711   3.993  0.3134  0.1506 -2.3227
    6MOL   C138  948   6.554   5.495   3.979 -0.6200 -0.2875  0.1339
    6MOL   C139  949   6.476   5.363   4.022 -0.1779  0.6223 -0.2097
    6MOL   N140  950   6.334   5.360   3.971 -0.8697 -0.3346  0.3689
    6MOL   H141  951   6.517   5.523   3.880 -1.8424  1.9295  1.1672
    6MOL   H142  952   6.662   5.479   3.978 -0.5715  0.0432 -1.8581
    6MOL   H143  953   6.459   5.351   4.129  1.8753 -0.9319 -0.0449
    6MOL   H144  954   6.286   5.441   4.008  2.4414  1.5186  0.7734
    6MOL   H145  955   6.285   5.278   4.005 -2.3148  0.6960  0.8286
    6MOL   C146  956   6.549   5.242   3.959  0.6135  0.3685  0.0157
    6MOL   C147  957   6.514   5.105   4.033 -0.5858  0.2687 -0.2005
    6MOL   N148  958   6.583   4.991   3.975 -0.2886  0.0728  0.2275
    6MOL   H149  959   6.514   5.234   3.856 -0.8226 -1.6994  0.6470
    6MOL   H150  960   6.657   5.262   3.956  0.4460  1.2154 -0.5886
    6MOL   H151  961   6.408   5.081   4.028 -0.5942 -0.1845  1.6434
    6MOL   H152  962   6.570   4.997   3.875 -1.1555  2.5250  0.4621
    6MOL   H153  963   6.683   4.996   3.987  0.1383  0.4846 -3.0545
    6MOL   C154  964   6.557   5.108   4.187 -0.0374  0.1961  0.0985
    6MOL   C155  965   6.529   4.968   4.259  0.9115  0.0165 -0.1837
    6MOL   N156  966   6.528   4.985   4.407  0.3081  0.1388  0.7433
    6MOL   H157  967   6.661   5.132   4.207  0.7730 -3.0677  0.1745
    6MOL   H158  968   6.506   5.187   4.242  0.8198  2.4781 -2.2937
    6MOL   H159  969   6.588   4.883   4.221  0.1214 -0.6230  0.0064
    6MOL   H160  970   6.625   4.969   4.430 -0.6266 -3.4220  2.6458
    6MOL   H161  971   6.483   4.904   4.447  0.1977 -0.0108  0.3277
    6MOL   H162  972   6.428   4.939   4.230  0.9809  2.5719 -3.2004
    7MOL     C1  973   3.324   6.217   1.839 -0.2929 -0.4788  0.2353
    7MOL     C2  974   3.475   6.220   1.868  0.2501  0.3161  0.2427
    7MOL     N3  975   3.499   6.120   1.971 -0.0717  0.3085 -0.5999
    7MOL     H4  976   3.300   6.300   1.773 -2.2295 -1.5051 -0.3818
    7MOL     H5  977   3.273   6.244   1.931 -0.2335 -0.9865  0.4189
    7MOL     H6  978   3.506   6.318   1.904 -1.5852  0.4578  1.5591
    7MOL     H7  979   3.499   6.025   1.938 -1.7673  0.0208  0.1510
    7MOL     H8  980   3.596   6.130   1.997 -0.0159  0.1091 -0.7372
    7MOL     H9  981   3.290   6.121   1.799 -0.2019  0.1592 -1.3990
    7MOL    C10  982   3.564   6.183   1.746  0.0577  0.1526 -0.1307
    7MOL    C11  983   3.599   6.303   1.652 -0.1085 -0.1739  0.7586
    7MOL    N12  984   3.704   6.375   1.722  0.1119 -0.2259  0.0883
    7MOL    H13  985   3.655   6.133   1.778 -1.0483 -0.2858  2.4490
    7MOL    H14  986   3.510   6.104   1.695 -0.1094  0.2542 -0.1117
    7MOL    H15  987   3.514   6.372   1.649 -1.3190 -1.6311  0.8260
    7MOL    H16  988   3.685   6.474   1.720  1.7707  0.1420  1.0903
    7MOL    H17  989   3.801   6.366   1.695 -0.6024  1.0571 -3.1166
    7MOL    C18  990   3.630   6.255   1.507  0.4888  0.2383 -0.2629
    7MOL    C19  991   3.513   6.206   1.421  0.6642  0.2600 -0.0870
    7MOL    N20  992   3.422   6.317   1.399  0.3647  0.6603 -0.1310
    7MOL    H21  993   3.674   6.333   1.444  0.3193 -2.6640 -4.1675
    7MOL    H22  994   3.709   6.180   1.513  1.1218  0.7660 -1.6701
    7MOL    H23  995   3.454   6.127   1.468 -1.4539  1.9313  0.1403
    7MOL    H24  996   3.356   6.285   1.330  0.5166  3.4507 -1.6323
    7MOL    H25  997   3.472   6.382   1.340  1.2409 -1.3475 -1.6650
    7MOL    C26  998   3.556   6.160   1.280 -0.4748  0.3598 -0.3674
    7MOL    C27  999   3.628   6.018   1.293 -0.0398 -0.4176  0.3501
    7MOL    N28 1000   3.563   5.928   1.199 -0.4241 -0.3249  0.2882
    7MOL    H29 1001   3.467   6.151   1.218 -1.3556 -0.5148  0.9974
    7MOL    H30 1002   3.617   6.230   1.224  0.5926 -0.2415  0.0158
    7MOL    H31 1003   3.606   5.987   1.396  0.0480 -0.2228  0.4277
    7MOL    H32 1004   3.463   5.919   1.205 -0.5019 -0.5465 -1.2294
    7MOL    H33 1005   3.597   5.833   1.204  0.5514  0.0426  0.9911
    7MOL    C34 1006   3.775   6.027   1.266 -0.8137 -0.1294  0.2965
    7MOL    C35 1007   3.853   5.899   1.307  0.0405 -0.1731  0.4425
    7MOL    N36 1008   3.972   5.904   1.234  0.5434  0.4693 -0.0784
    7MOL    H37 1009   3.791   6.056   1.162 -0.5498  0.5716  0.5266
    7MOL    H38 1010   3.824   6.114   1.310 -0.6244 -0.3435  0.5132
    7MOL    H39 1011   3.795   5.812   1.275 -3.0560  1.0108  2.6257
    7MOL    H40 1012   3.947   5.917   1.137 -2.3943  0.6774  0.6750
    7MOL    H41 1013   4.016   5.990   1.265 -0.8726  1.3470 -0.4711
    7MOL    C42 1014   3.879   5.896   1.458  0.5009 -0.4752 -0.2401
    7MOL    C43 1015   3.890   5.755   1.526 -0.0493 -0.4092  0.4762
    7MOL    N44 1016   4.011   5.699   1.475  0.2039  0.1914  0.0299
    7MOL    H45 1017   3.967   5.954   1.483 -0.2039 -0.0662  1.3553
    7MOL    H46 1018   3.796   5.945   1.509  2.6017  1.6839  1.1815
    7MOL    H47 1019   3.809   5.685   1.503  0.6158 -0.6978 -1.0402
    7MOL    H48 1020   4.020   5.736   1.381 -0.9598  1.4444  0.3852
    7MOL    H49 1021   3.985   5.603   1.457 -0.5139  0.5745 -1.0580
    7MOL    C50 1022   3.895   5.771   1.676 -0.3068  0.2970  0.6271
    7MOL    C51 1023   3.764   5.728   1.749  0.3229 -0.3298  0.2944
    7MOL    N52 1024   3.796   5.706   1.888  0.1512 -0.1541 -0.3486
    7MOL    H53 1025   3.977   5.711   1.715  0.4461  1.9319  1.5998
    7MOL    H54 1026   3.917   5.876   1.697  4.2991 -0.5142  0.3984
    7MOL    H55 1027   3.737   5.630   1.711  2.8450 -1.1623  0.5292
    7MOL    H56 1028   3.861   5.775   1.923  1.8455 -2.2954  0.8660
    7MOL    H57 1029   3.714   5.711   1.946  0.9051 -1.7150  0.8809
    7MOL    C58 1030   3.643   5.828   1.743  0.4490  0.3350  0.4902
    7MOL    C59 1031   3.504   5.770   1.788 -0.0956  0.6907  0.0964
    7MOL    N60 1032   3.475   5.824   1.925 -0.0357 -0.6844 -0.0319
    7MOL    H61 1033   3.665   5.919   1.799  0.5603  0.0235  0.9473
    7MOL    H62 1034   3.631   5.848   1.636 -0.7027 -0.9202  0.3721
    7MOL    H63 1035   3.515   5.662   1.799  0.8141  0.7173 -0.5178
    7MOL    H64 1036   3.473   5.745   1.987  1.8781  0.1717  1.1989
    7MOL    H65 1037   3.389   5.876   1.927 -0.1479 -0.9128  1.7581
    7MOL    C66 1038   3.397   5.800   1.679  0.3199 -0.1994  0.4802
    7MOL    C67 1039   3.359   5.681   1.588  0.6961 -0.1797  0.3382
    7MOL    N68 1040   3.240   5.721   1.509  0.2693  0.2004 -0.6363
    7MOL    H69 1041   3.313   5.838   1.737 -0.5195 -1.4825  0.1274
    7MOL    H70 1042   3.423   5.885   1.616  0.7525 -1.0927 -0.5555
    7MOL    H71 1043   3.322   5.598   1.648 -1.7532 -0.4086 -1.4046
    7MOL    H72 1044   3.251   5.677   1.418 -0.4130  0.6860 -0.9592
    7MOL    H73 1045   3.235   5.821   1.494  0.3075  0.1120 -1.2749
    7MOL    C74 1046   3.478   5.643   1.497 -0.2564 -0.2637 -0.6086
    7MOL    C75 1047   3.461   5.526   1.401 -1.0324  0.1360  0.4511
    7MOL    N76 1048   3.428   5.584   1.272 -0.4241  0.0047  0.2673
    7MOL    H77 1049   3.512   5.731   1.444 -1.0773  1.5508  1.7851
    7MOL    H78 1050   3.561   5.614   1.561 -0.8561  1.4032  0.9533
    7MOL    H79 1051   3.377   5.465   1.434  0.7033 -1.6920  1.5500
    7MOL    H80 1052   3.504   5.614   1.214  1.0522 -0.9057  1.7006
    7MOL    H81 1053   3.376   5.519   1.215 -0.4346  0.6987 -0.5176
    7MOL    C82 1054   3.581   5.441   1.378 -0.1640  0.0995  0.1099
    7MOL    C83 1055   3.599   5.332   1.488 -0.2282 -0.2359  0.1586
    7MOL    N84 1056   3.606   5.205   1.411  0.1191  0.7735 -0.1625
    7MOL    H85 1057   3.579   5.405   1.275  0.1026  1.3838 -0.3605
    7MOL    H86 1058   3.673   5.500   1.372 -0.2207  0.0923 -0.9140
    7MOL    H87 1059   3.506   5.306   1.539 -0.9467 -2.1787 -2.0209
    7MOL    H88 1060   3.522   5.192   1.356  1.2644  0.9147 -1.9797
    7MOL    H89 1061   3.609   5.126   1.474  1.6961 -0.6498 -1.9447
    7MOL    C90 1062   3.727   5.336   1.575  0.9194 -0.1945 -0.1574
    7MOL    C91 1063   3.719   5.292   1.722  0.5554 -0.2921  0.2852
    7MOL    N92 1064   3.850   5.330   1.773  0.7504 -0.2896  0.4126
    7MOL    H93 1065   3.808   5.272   1.542  2.4064  2.7724 -2.5637
    7MOL    H94 1066   3.763   5.439   1.570  2.2934 -0.6382  0.4905
    7MOL    H95 1067   3.706   5.184   1.726 -0.2254 -0.1511  1.9209
    7MOL    H96 1068   3.914   5.364   1.703  2.5617  0.0681  2.2007
    7MOL    H97 1069   3.827   5.418   1.818 -0.3146  0.4449 -1.4850
    7MOL    C98 1070   3.611   5.356   1.809 -0.7149 -0.4705  0.4420
    7MOL    C99 1071   3.604   5.328   1.962  0.4477 -0.8363  0.4371
    7MOL   N100 1072   3.522   5.432   2.013 -0.6263 -0.3201  0.4567
    7MOL   H101 1073   3.623   5.464   1.808  1.6410 -0.6564  2.7256
    7MOL   H102 1074   3.514   5.334   1.763 -0.6095 -0.5254  0.2458
    7MOL   H103 1075   3.704   5.334   2.005  0.6420 -0.1284 -0.1050
    7MOL   H104 1076   3.531   5.435   2.113  0.0333 -0.4193  0.4026
    7MOL   H105 1077   3.428   5.398   1.998  0.9038 -5.0590  0.7656
    7MOL   C106 1078   3.544   5.185   1.988  0.3989  0.1900 -0.7679
    7MOL   C107 1079   3.533   5.144   2.132 -0.1902  0.1337  0.1390
    7MOL   N108 1080   3.400   5.183   2.178 -0.2065  0.9291 -0.1985
    7MOL   H109 1081   3.450   5.169   1.935  0.9402 -3.0810 -0.8632
    7MOL   H110 1082   3.621   5.128   1.935 -0.4940 -0.4631 -1.3779
    7MOL   H111 1083   3.606   5.197   2.193 -1.5585  1.9526  0.2303
    7MOL   H112 1084   3.398   5.283   2.193 -2.0902  1.0012 -0.7510
    7MOL   H113 1085   3.389   5.137   2.267 -0.7418 -1.7422 -1.5914
    7MOL   C114 1086   3.546   4.994   2.155  0.5202 -0.2814 -0.4020
    7MOL   C115 1087   3.687   4.945   2.183 -0.5698 -0.3690 -0.1431
    7MOL   N116 1088   3.713   4.981   2.320 -0.5724  0.1743  0.0918
    7MOL   H117 1089   3.477   4.955   2.231 -1.2133 -1.4991 -2.5583
    7MOL   H118 1090   3.524   4.945   2.061  2.1530 -0.1014 -0.8848
    7MOL   H119 1091   3.763   4.997   2.125  0.0275 -1.1518 -0.0826
    7MOL   H120 1092   3.807   4.946   2.332  0.1405  1.5852 -1.2479
    7MOL   H121 1093   3.662   4.917   2.379 -0.7808  1.0710  0.9060
    7MOL   C122 1094   3.714   4.798   2.164 -0.5495 -0.4087 -0.0440
    7MOL   C123 1095   3.709   4.748   2.023  0.3610 -0.0552 -0.0043
    7MOL   N124 1096   3.805   4.641   2.009  1.1212  0.5303  0.2220
    7MOL   H125 1097   3.806   4.763   2.210 -0.7390 -0.3769  0.3575
    7MOL   H126 1098   3.644   4.736   2.220 -0.4498 -1.0094 -0.5739
    7MOL   H127 1099   3.744   4.826   1.955  0.8588 -0.3892 -0.1397
    7MOL   H128 1100   3.812   4.604   1.915 -1.4039 -3.2816  1.3941
    7MOL   H129 1101   3.898   4.669   2.035  1.8822  0.6741 -2.5129
    7MOL   C130 1102   3.569   4.695   1.982 -0.1320 -0.1394  0.7703
    7MOL   C131 1103   3.539   4.710   1.829 -0.4013  0.5353 -0.2127
    7MOL   N132 1104   3.428   4.614   1.800  0.3067 -0.4049  0.5376
    7MOL   H133 1105   3.573   4.588   2.002 -1.3899 -0.2112  0.6734
    7MOL   H134 1106   3.486   4.736   2.039 -0.1570  1.6570 -0.5228
    7MOL   H135 1107   3.626   4.660   1.786 -0.0082  0.5029  0.6091
    7MOL   H136 1108   3.444   4.555   1.719  1.3484 -1.3867  1.4445
    7MOL   H137 1109   3.416   4.559   1.883  1.4210  0.5467  1.3589
    7MOL   C138 1110   3.519   4.860   1.786 -0.2910 -0.8065 -1.0935
    7MOL   C139 1111   3.505   4.870   1.630 -0.5113 -0.4192 -0.4741
    7MOL   N140 1112   3.465   5.007   1.605  0.0745  0.0291 -0.4293
    7MOL   H141 1113   3.423   4.897   1.822  0.9309 -0.6095  2.1097
    7MOL   H142 1114   3.595   4.929   1.821 -0.2738  0.5296 -3.6143
    7MOL   H143 1115   3.435   4.796   1.591  0.0392 -2.4634  2.2525
    7MOL   H144 1116   3.436   5.021   1.509  0.4397  1.8139 -0.2829
    7MOL   H145 1117   3.382   5.023   1.661  2.1509  2.3578  2.0614
    7MOL   C146 1118   3.636   4.836   1.554 -0.3168 -0.1948 -0.7677
    7MOL   C147 1119   3.615   4.760   1.425 -0.4167  0.4265  0.0069
    7MOL   N148 1120   3.584   4.855   1.316  0.0041  0.4234  0.3888
    7MOL   H149 1121   3.697   4.925   1.543 -1.8084  0.9344  0.0211
    7MOL   H150 1122   3.682   4.772   1.629 -3.1869 -0.9856  0.4095
    7MOL   H151 1123   3.536   4.684   1.424  0.1600 -0.1660 -1.1563
    7MOL   H152 1124   3.666   4.913   1.305  0.4603 -0.3382 -0.2360
    7MOL   H153 1125   3.585   4.799   1.233 -2.0180  0.6286  0.1917
    7MOL   C154 1126   3.744   4.687   1.394  0.4582 -0.0678 -0.0008
    7MOL   C155 1127   3.747   4.557   1.471 -0.5555 -0.2183  0.0352
    7MOL   N156 1128   3.882   4.499   1.460  0.3718  0.3254  0.5764
    7MOL   H157 1129   3.750   4.667   1.287 -0.4376 -2.3097  0.3367
    7MOL   H158 1130   3.832   4.749   1.415  0.3231 -0.2953  1.2673
    7MOL   H159 1131   3.671   4.495   1.422  1.1679  0.8605 -4.2125
    7MOL   H160 1132   3.900   4.489   1.362 -1.3166  1.7194  0.0915
    7MOL   H161 1133   3.873   4.401   1.484  1.2571 -0.0944 -0.8162
    7MOL   H162 1134   3.732   4.585   1.575 -0.0713  0.4177 -0.0630
    8MOL     C1 1135   4.562   3.166   5.457  0.1795  0.0286 -0.3445
    8MOL     C2 1136   4.573   3.016   5.482  0.7431  0.2552  0.1568
    8MOL     N3 1137   4.452   2.978   5.544 -0.2610 -0.6411  0.4284
    8MOL     H4 1138   4.653   3.206   5.412  1.0500  0.0651  1.4026
    8MOL     H5 1139   4.530   3.229   5.540  0.8386  0.1053 -0.1424
    8MOL     H6 1140   4.663   3.000   5.541  1.9976  2.6717 -1.0177
    8MOL     H7 1141   4.466   2.984   5.644 -0.0396  1.4379  0.2985
    8MOL     H8 1142   4.442   2.878   5.531 -0.4436 -1.0657  3.4997
    8MOL     H9 1143   4.496   3.189   5.373  2.5647  0.2040 -2.2372
    8MOL    C10 1144   4.584   2.935   5.356 -0.0236  0.2800  0.0341
    8MOL    C11 1145   4.726   2.920   5.305  0.3565  0.4707 -0.9754
    8MOL    N12 1146   4.803   2.834   5.387  0.4702  0.3973  0.3791
    8MOL    H13 1147   4.551   2.833   5.377  2.3473 -0.7523 -1.0201
    8MOL    H14 1148   4.527   2.974   5.272  1.0635 -0.8985 -1.2836
    8MOL    H15 1149   4.771   3.020   5.307  1.4791 -0.0374 -0.2848
    8MOL    H16 1150   4.901   2.844   5.364  0.6543 -1.4190  0.2974
    8MOL    H17 1151   4.796   2.863   5.484  1.0361  1.4709  0.1102
    8MOL    C18 1152   4.727   2.867   5.161  0.2877  0.0835 -0.2587
    8MOL    C19 1153   4.787   2.960   5.052 -0.5881  0.0452 -0.0519
    8MOL    N20 1154   4.804   2.886   4.924  0.1922  0.1251 -0.0107
    8MOL    H21 1155   4.797   2.783   5.156  0.2492  0.1348 -2.1976
    8MOL    H22 1156   4.631   2.826   5.130 -1.0855  1.9624  1.4194
    8MOL    H23 1157   4.889   2.978   5.088 -1.5107  0.0404  2.6731
    8MOL    H24 1158   4.713   2.871   4.884  0.8232 -1.2506 -0.9970
    8MOL    H25 1159   4.853   2.940   4.854  3.0374 -2.0116  0.2183
    8MOL    C26 1160   4.711   3.099   5.034 -0.5761 -0.1166 -0.1143
    8MOL    C27 1161   4.781   3.202   4.937 -0.1068  0.0608 -0.6330
    8MOL    N28 1162   4.716   3.327   4.961  0.0829  0.0987  0.2396
    8MOL    H29 1163   4.610   3.075   5.003 -0.3315 -0.9198 -0.2965
    8MOL    H30 1164   4.704   3.141   5.134 -3.4677  0.0331 -0.3551
    8MOL    H31 1165   4.756   3.163   4.839  0.0001 -1.4397 -0.0667
    8MOL    H32 1166   4.754   3.400   4.903 -1.4658  2.0744  1.6786
    8MOL    H33 1167   4.624   3.322   4.921  1.1419 -0.1312 -2.2344
    8MOL    C34 1168   4.933   3.208   4.951 -0.4134 -0.6499 -0.4750
    8MOL    C35 1169   5.003   3.329   4.897 -0.0670  0.2777 -0.6327
    8MOL    N36 1170   5.144   3.325   4.905 -0.0486 -0.1106  0.5042
    8MOL    H37 1171   4.960   3.215   5.057 -0.0514 -1.1770 -0.5301
    8MOL    H38 1172   4.983   3.114   4.927  0.8399  0.3280 -1.6956
    8MOL    H39 1173   4.967   3.407   4.963 -2.3974 -1.1833 -0.1286
    8MOL    H40 1174   5.177   3.321   5.001  2.3503 -0.6667 -0.2984
    8MOL    H41 1175   5.168   3.416   4.869  0.3363 -1.0354 -1.6417
    8MOL    C42 1176   4.976   3.356   4.747  0.3263  0.1540 -0.0066
    8MOL    C43 1177   4.926   3.496   4.707 -0.2504 -0.6996  0.3619
    8MOL    N44 1178   4.791   3.532   4.764 -0.3960  0.1604 -0.5587
    8MOL    H45 1179   5.065   3.341   4.686 -0.2510 -0.6455 -0.6772
    8MOL    H46 1180   4.905   3.291   4.694  0.8315  0.2068 -0.7437
    8MOL    H47 1181   4.905   3.502   4.601  0.9727  0.5283  0.1764
    8MOL    H48 1182   4.785   3.632   4.773  1.9663  0.5051 -2.2634
    8MOL    H49 1183   4.715   3.491   4.711 -1.4607  0.4456  0.7276
    8MOL    C50 1184   5.026   3.607   4.739  0.0544 -0.4077 -0.2905
    8MOL    C51 1185   4.985   3.755   4.713  0.5045  0.1525  0.6927
    8MOL    N52 1186   5.092   3.845   4.759 -0.4249 -0.0894 -0.1304
    8MOL    H53 1187   5.051   3.600   4.845 -0.0604 -0.7090 -0.2832
    8MOL    H54 1188   5.117   3.591   4.680  0.3143  1.7552 -0.5001
    8MOL    H55 1189   4.904   3.772   4.784  0.2791  0.3875  0.3789
    8MOL    H56 1190   5.061   3.921   4.817  0.7880  0.2800  0.0631
    8MOL    H57 1191   5.135   3.893   4.681  2.2504 -2.3275 -0.0967
    8MOL    C58 1192   4.950   3.784   4.568 -0.3187  0.6612 -0.3713
    8MOL    C59 1193   4.837   3.892   4.553 -0.7208 -0.4461  0.0495
    8MOL    N60 1194   4.870   3.960   4.429  0.0432  0.1045 -0.0728
    8MOL    H61 1195   5.037   3.809   4.508 -1.4523  1.6451 -1.6226
    8MOL    H62 1196   4.916   3.689   4.525 -1.4584  0.8219  0.1416
    8MOL    H63 1197   4.860   3.962   4.634  3.3057 -1.7806  0.1970
    8MOL    H64 1198   4.850   3.910   4.344  2.2711  0.1296 -0.6362
    8MOL    H65 1199   4.815   4.045   4.430  1.6253  1.1333  1.5619
    8MOL    C66 1200   4.692   3.844   4.572 -0.4933  0.1001  0.3462
    8MOL    C67 1201   4.602   3.943   4.651  0.2304 -0.0912  0.5233
    8MOL    N68 1202   4.460   3.931   4.628  1.1531  0.3804  0.6001
    8MOL    H69 1203   4.650   3.850   4.471 -0.2317  0.3691  0.2539
    8MOL    H70 1204   4.699   3.742   4.611  1.5161  0.8785  2.0935
    8MOL    H71 1205   4.617   4.050   4.639  1.1334  0.1447  3.2378
    8MOL    H72 1206   4.450   3.948   4.528 -1.7163  0.8814  0.9378
    8MOL    H73 1207   4.411   4.012   4.663 -0.2908 -1.2754  2.5786
    8MOL    C74 1208   4.633   3.914   4.802 -0.1484  0.3397  0.1114
    8MOL    C75 1209   4.561   3.996   4.912 -0.3332 -0.0681  0.2655
    8MOL    N76 1210   4.431   3.938   4.949  0.3573  0.1164 -0.0450
    8MOL    H77 1211   4.616   3.807   4.817 -1.0324  0.4278 -0.2076
    8MOL    H78 1212   4.738   3.942   4.809  0.6999 -2.3348 -1.1277
    8MOL    H79 1213   4.535   4.092   4.866  0.9994  0.4654  0.5874
    8MOL    H80 1214   4.467   3.850   4.985  3.8448  0.4056 -2.5172
    8MOL    H81 1215   4.393   3.925   4.856 -1.4694 -2.4285  0.9886
    8MOL    C82 1216   4.655   4.035   5.031 -1.0068  0.0513  0.7240
    8MOL    C83 1217   4.737   4.173   5.025  0.1517 -0.4162  0.5814
    8MOL    N84 1218   4.805   4.200   5.150 -0.3996  0.0322 -0.9024
    8MOL    H85 1219   4.584   4.030   5.114 -0.3383 -0.4900  1.2729
    8MOL    H86 1220   4.725   3.951   5.032  0.3010  1.1041 -0.2152
    8MOL    H87 1221   4.648   4.237   5.025  0.0320 -0.4971 -2.5611
    8MOL    H88 1222   4.735   4.233   5.215  1.8058  1.4974  0.7749
    8MOL    H89 1223   4.853   4.288   5.142 -1.7130  0.8473 -0.0714
    8MOL    C90 1224   4.838   4.187   4.911  0.2279  0.4020  0.1397
    8MOL    C91 1225   4.920   4.317   4.900 -0.6186 -0.1130  0.2765
    8MOL    N92 1226   5.016   4.303   4.783  0.2362  0.1103 -0.5256
    8MOL    H93 1227   4.908   4.103   4.900 -0.4748 -0.3503  1.3536
    8MOL    H94 1228   4.777   4.185   4.820  0.7760  0.6199 -0.2363
    8MOL    H95 1229   4.997   4.331   4.976 -0.0868  0.0715 -0.2894
    8MOL    H96 1230   5.074   4.386   4.788  0.0465  0.1697  0.9765
    8MOL    H97 1231   5.081   4.228   4.800  0.5529  0.7658  1.2778
    8MOL    C98 1232   4.836   4.433   4.862  0.0063 -0.1956  0.2954
    8MOL    C99 1233   4.896   4.571   4.872 -0.7524  0.1725 -0.2626
    8MOL   N100 1234   4.839   4.670   4.781 -0.1529 -0.2829 -0.0938
    8MOL   H101 1235   4.806   4.420   4.758  0.2613 -2.0985  0.4380
    8MOL   H102 1236   4.745   4.442   4.922  0.6303  0.5685  1.1474
    8MOL   H103 1237   5.002   4.556   4.850 -1.2367 -1.9879 -1.2072
    8MOL   H104 1238   4.811   4.629   4.693 -0.3990 -1.1180  0.3661
    8MOL   H105 1239   4.926   4.720   4.768  0.4734 -1.6448 -1.4005
    8MOL   C106 1240   4.904   4.635   5.018  0.0668 -0.6987  0.0078
    8MOL   C107 1241   4.975   4.776   5.036 -0.5926  0.3060  1.2415
    8MOL   N108 1242   4.933   4.838   5.159 -0.1701  0.0397  0.0234
    8MOL   H109 1243   4.803   4.628   5.058  0.2639  0.8840  0.8102
    8MOL   H110 1244   4.969   4.570   5.078  0.2347 -0.7029 -0.1768
    8MOL   H111 1245   4.926   4.836   4.959 -0.6325  0.3057  1.2664
    8MOL   H112 1246   4.856   4.892   5.124 -0.9483 -0.6457  0.6458
    8MOL   H113 1247   4.889   4.769   5.220 -0.7730  1.5623  1.3667
    8MOL   C114 1248   5.121   4.750   5.033 -0.3952  0.2818  0.4327
    8MOL   C115 1249   5.195   4.868   4.969  0.1974  0.0277  0.0185
    8MOL   N116 1250   5.169   4.991   5.039  0.7147 -0.1057  0.9443
    8MOL   H117 1251   5.168   4.740   5.131  0.9620  1.7228 -0.0465
    8MOL   H118 1252   5.149   4.661   4.976  1.0954  1.9779 -1.5643
    8MOL   H119 1253   5.156   4.885   4.869  1.1258 -0.9986 -0.5277
    8MOL   H120 1254   5.226   4.992   5.122  2.9716  1.9595 -0.5687
    8MOL   H121 1255   5.082   4.962   5.083  0.0514  0.0884 -0.2104
    8MOL   C122 1256   5.348   4.846   4.973  0.5968 -0.6422 -0.1215
    8MOL   C123 1257   5.398   4.715   4.910  0.1667  0.4600  0.4823
    8MOL   N124 1258   5.513   4.737   4.825 -0.4853 -0.4503  0.4895
    8MOL   H125 1259   5.392   4.933   4.926 -0.4327  0.6781  1.3035
    8MOL   H126 1260   5.382   4.861   5.076 -0.5969  3.0753 -0.2145
    8MOL   H127 1261   5.320   4.673   4.847  0.0517 -2.0942  2.2116
    8MOL   H128 1262   5.498   4.810   4.756 -0.7929 -1.1215 -0.1588
    8MOL   H129 1263   5.526   4.656   4.766 -0.2930 -0.7618  0.9551
    8MOL   C130 1264   5.432   4.603   5.007 -0.1590  0.4409  0.3972
    8MOL   C131 1265   5.462   4.459   4.954 -0.4591 -0.1975 -0.1821
    8MOL   N132 1266   5.536   4.388   5.055 -0.2547  0.5171  0.3258
    8MOL   H133 1267   5.518   4.631   5.067 -0.1766  0.2482  0.5148
    8MOL   H134 1268   5.349   4.584   5.075  0.4920 -0.7932  0.8693
    8MOL   H135 1269   5.517   4.463   4.859 -0.4398 -1.3078 -0.2281
    8MOL   H136 1270   5.633   4.377   5.030  0.0004 -2.8257  2.4645
    8MOL   H137 1271   5.539   4.441   5.142  0.7752 -1.2052  1.3707
    8MOL   C138 1272   5.338   4.382   4.920 -0.3479 -0.4796  0.9145
    8MOL   C139 1273   5.363   4.259   4.819  0.4691 -0.2568  0.2733
    8MOL   N140 1274   5.262   4.154   4.846 -0.5945 -0.2879  0.5250
    8MOL   H141 1275   5.299   4.353   5.017  1.9386 -0.9705  1.7274
    8MOL   H142 1276   5.266   4.449   4.875 -0.0449  0.6418  2.0934
    8MOL   H143 1277   5.464   4.218   4.830  1.3402  0.7024 -3.5140
    8MOL   H144 1278   5.302   4.069   4.809 -0.8094 -0.4275  0.6098
    8MOL   H145 1279   5.250   4.148   4.946  1.6328 -0.7701  0.7925
    8MOL   C146 1280   5.355   4.309   4.671 -0.2163 -0.1992 -0.0230
    8MOL   C147 1281   5.441   4.238   4.569 -0.4559 -0.3719 -0.9544
    8MOL   N148 1282   5.393   4.294   4.443  0.6729 -0.0262 -0.5818
    8MOL   H149 1283   5.250   4.311   4.642 -0.3751 -1.6687  0.3992
    8MOL   H150 1284   5.400   4.408   4.674  0.4263 -0.4839 -0.2134
    8MOL   H151 1285   5.426   4.131   4.573 -2.7495 -0.0273  1.5813
    8MOL   H152 1286   5.378   4.392   4.461 -2.7604 -0.6013  0.0616
    8MOL   H153 1287   5.306   4.248   4.418  1.4215 -1.6877 -0.1766
    8MOL   C154 1288   5.590   4.272   4.572 -0.1818 -0.7737  0.6046
    8MOL   C155 1289   5.667   4.202   4.676  0.0051 -0.1425 -0.9236
    8MOL   N156 1290   5.806   4.207   4.655 -0.1651 -0.7243 -0.4834
    8MOL   H157 1291   5.652   4.273   4.482 -0.0542  1.8151  0.6880
    8MOL   H158 1292   5.606   4.373   4.611  0.8256 -0.2753 -1.0527
    8MOL   H159 1293   5.643   4.096   4.684  1.3376 -0.5797 -2.5074
    8MOL   H160 1294   5.850   4.168   4.737  1.4549 -0.7046 -1.3166
    8MOL   H161 1295   5.825   4.136   4.585  3.5811 -0.4587  0.1203
    8MOL   H162 1296   5.655   4.251   4.773 -1.2298 -0.9577 -0.6620
    9MOL     C1 1297   1.927   0.928   5.440 -0.7986 -0.0402 -0.2671
    9MOL     C2 1298   1.980   0.847   5.324  0.0950 -0.3934 -0.0828
    9MOL     N3 1299   1.913   0.720   5.336  0.1519 -0.2407  0.2862
    9MOL     H4 1300   1.951   0.893   5.541  0.4196 -1.1424 -0.9179
    9MOL     H5 1301   1.819   0.919   5.436 -0.9157  1.9575 -3.0380
    9MOL     H6 1302   2.087   0.839   5.340  0.4242  3.9141  0.2898
    9MOL     H7 1303   1.819   0.737   5.369 -0.3315 -1.5144 -0.3669
    9MOL     H8 1304   1.919   0.667   5.250 -0.6752 -1.8079  1.1667
    9MOL     H9 1305   1.964   1.029   5.421 -0.2284 -0.2522 -0.3189
    9MOL    C10 1306   1.953   0.895   5.185  0.5405 -0.8746  1.1782
    9MOL    C11 1307   2.044   1.014   5.139 -0.1866 -0.1861  0.4800
    9MOL    N12 1308   2.158   0.957   5.068 -0.4306  0.1102  0.6482
    9MOL    H13 1309   1.954   0.825   5.101  0.4481 -1.2970  1.5309
    9MOL    H14 1310   1.849   0.930   5.192  0.4680 -1.1363  1.3912
    9MOL    H15 1311   2.104   1.050   5.222 -0.2225 -2.0672  1.3546
    9MOL    H16 1312   2.237   1.020   5.055  0.3600 -0.8083  0.9415
    9MOL    H17 1313   2.140   0.918   4.977  1.8349  0.5398 -0.0189
    9MOL    C18 1314   1.976   1.126   5.056 -0.2209 -0.0202 -0.6267
    9MOL    C19 1315   1.874   1.195   5.143  0.2609  0.6251  0.4222
    9MOL    N20 1316   1.881   1.339   5.122 -0.4307  0.2670 -0.4539
    9MOL    H21 1317   2.049   1.201   5.024  1.9520  0.2550  4.5526
    9MOL    H22 1318   1.932   1.087   4.964  0.1259  0.1313 -0.8599
    9MOL    H23 1319   1.895   1.171   5.248  1.1115  1.2572  0.3962
    9MOL    H24 1320   1.873   1.346   5.022  0.1133 -2.1236 -0.6970
    9MOL    H25 1321   1.978   1.364   5.137  0.2233 -3.1229  1.6904
    9MOL    C26 1322   1.731   1.154   5.107 -1.1318 -0.7722 -0.0952
    9MOL    C27 1323   1.624   1.207   5.203 -0.5422  0.8877 -0.7873
    9MOL    N28 1324   1.497   1.176   5.141  0.5877  0.5235 -0.6896
    9MOL    H29 1325   1.710   1.204   5.012  4.3810 -1.5299 -1.8884
    9MOL    H30 1326   1.723   1.048   5.083  0.1546 -0.7523 -0.6639
    9MOL    H31 1327   1.630   1.315   5.215 -1.3553  0.8418  0.1127
    9MOL    H32 1328   1.471   1.252   5.080 -1.9530  0.7037  0.5755
    9MOL    H33 1329   1.430   1.187   5.216 -0.4280  0.4550 -1.5768
    9MOL    C34 1330   1.623   1.137   5.340 -1.3891 -0.7329 -0.3114
    9MOL    C35 1331   1.628   1.231   5.462  0.0961 -0.6673  0.3945
    9MOL    N36 1332   1.752   1.298   5.467  0.1211 -0.6201  0.2112
    9MOL    H37 1333   1.533   1.076   5.350 -0.2241 -2.1955  1.5576
    9MOL    H38 1334   1.700   1.060   5.348  0.5597  1.2477  0.6385
    9MOL    H39 1335   1.633   1.161   5.545  2.6099  0.1685  0.9830
    9MOL    H40 1336   1.732   1.397   5.470  0.1006 -0.5546 -1.6412
    9MOL    H41 1337   1.811   1.282   5.387 -1.0609 -0.2438 -0.7644
    9MOL    C42 1338   1.510   1.331   5.482  0.0774 -0.2787  0.3315
    9MOL    C43 1339   1.371   1.254   5.502 -0.3735 -0.1599 -0.7494
    9MOL    N44 1340   1.380   1.186   5.636  0.2664  0.1333  0.0546
    9MOL    H45 1341   1.536   1.401   5.562  1.2637  1.2974 -1.3982
    9MOL    H46 1342   1.497   1.400   5.399 -0.5091 -1.8670 -0.9246
    9MOL    H47 1343   1.360   1.175   5.428  0.1827 -3.6819  2.7638
    9MOL    H48 1344   1.465   1.132   5.642 -2.1295 -4.0142 -0.6579
    9MOL    H49 1345   1.381   1.255   5.709  3.4433  0.2779 -0.0776
    9MOL    C50 1346   1.239   1.329   5.516  0.0195  0.2569 -0.2663
    9MOL    C51 1347   1.216   1.408   5.381  0.4435  0.8491 -0.2147
    9MOL    N52 1348   1.079   1.399   5.348  0.0122  0.6695 -0.6111
    9MOL    H53 1349   1.158   1.258   5.533 -1.1895  1.0396 -2.6472
    9MOL    H54 1350   1.234   1.396   5.602 -0.9146 -0.3376  0.1560
    9MOL    H55 1351   1.271   1.361   5.300 -3.0704 -0.2891 -2.0356
    9MOL    H56 1352   1.020   1.442   5.418  1.0447  0.8991  0.1418
    9MOL    H57 1353   1.032   1.312   5.327 -1.4382  1.0082  1.0952
    9MOL    C58 1354   1.253   1.554   5.395  0.3431 -0.4140  0.1390
    9MOL    C59 1355   1.266   1.634   5.258 -0.5558  0.6717  1.0094
    9MOL    N60 1356   1.204   1.765   5.275  0.3345 -0.2213  0.2330
    9MOL    H61 1357   1.183   1.607   5.459 -0.6957 -1.4936 -0.0848
    9MOL    H62 1358   1.352   1.561   5.440  0.0692  1.7973  0.4555
    9MOL    H63 1359   1.209   1.591   5.177  1.9287 -1.2819  0.2315
    9MOL    H64 1360   1.106   1.754   5.296 -0.1888 -2.2057 -2.8951
    9MOL    H65 1361   1.196   1.807   5.183  2.0013  0.5966  0.4491
    9MOL    C66 1362   1.408   1.665   5.209  0.4098 -0.7143  0.4208
    9MOL    C67 1363   1.481   1.548   5.135 -0.0366 -0.5298 -0.2289
    9MOL    N68 1364   1.402   1.482   5.036 -0.1386 -0.1530 -0.0579
    9MOL    H69 1365   1.427   1.754   5.150  0.8526  1.1943  3.3396
    9MOL    H70 1366   1.461   1.707   5.295  0.1775 -0.5240  0.4703
    9MOL    H71 1367   1.501   1.468   5.207 -1.2574 -1.3653 -0.8108
    9MOL    H72 1368   1.451   1.415   4.980  0.2658 -1.7946  2.2035
    9MOL    H73 1369   1.360   1.544   4.968 -2.4429 -0.8246  0.6923
    9MOL    C74 1370   1.621   1.584   5.068 -0.2727  0.5183  0.6944
    9MOL    C75 1371   1.723   1.640   5.174 -0.5912  0.3270 -0.5905
    9MOL    N76 1372   1.750   1.540   5.271 -0.4471 -0.0795 -0.5601
    9MOL    H77 1373   1.673   1.491   5.043 -1.8619 -0.4019  0.6640
    9MOL    H78 1374   1.600   1.632   4.973  0.9910  1.9862  1.1527
    9MOL    H79 1375   1.683   1.723   5.231  0.3110 -0.1631  0.7805
    9MOL    H80 1376   1.836   1.577   5.309 -1.0059 -1.1046  1.8217
    9MOL    H81 1377   1.782   1.456   5.225 -2.6637 -1.3282  0.1455
    9MOL    C82 1378   1.853   1.704   5.119  0.1228  0.1306 -1.4381
    9MOL    C83 1379   1.845   1.820   5.013 -0.4331 -0.5891 -0.0728
    9MOL    N84 1380   1.819   1.943   5.085 -0.5473 -0.5167 -0.0529
    9MOL    H85 1381   1.920   1.717   5.204 -0.3871 -0.4855 -0.9372
    9MOL    H86 1382   1.890   1.616   5.065 -1.7017 -0.6810 -1.3746
    9MOL    H87 1383   1.765   1.800   4.941 -1.1245 -0.2283  0.5798
    9MOL    H88 1384   1.732   1.935   5.136 -1.2154 -0.0170 -1.0876
    9MOL    H89 1385   1.885   1.969   5.157  0.9527  2.8590 -2.5193
    9MOL    C90 1386   1.977   1.822   4.929  0.5198  0.2024  0.5429
    9MOL    C91 1387   1.959   1.754   4.789 -0.3708  0.2744  0.1524
    9MOL    N92 1388   2.069   1.768   4.693  0.1751 -0.0542 -0.0575
    9MOL    H93 1389   2.003   1.922   4.894  2.2918 -1.3561 -2.9289
    9MOL    H94 1390   2.063   1.790   4.988 -0.0900  0.6304  1.6801
    9MOL    H95 1391   1.878   1.813   4.745  0.7648  1.4471 -0.3829
    9MOL    H96 1392   2.031   1.841   4.634  0.4678 -0.6447 -0.9936
    9MOL    H97 1393   2.070   1.677   4.649 -0.1704 -0.1395  0.1147
    9MOL    C98 1394   1.914   1.606   4.794 -0.2308  0.2789  0.2289
    9MOL    C99 1395   1.901   1.525   4.662 -0.3101  0.2792 -0.3096
    9MOL   N100 1396   2.027   1.456   4.641  0.0852 -0.4086  0.3083
    9MOL   H101 1397   1.973   1.552   4.868 -0.2834 -0.0517  0.0318
    9MOL   H102 1398   1.813   1.602   4.836 -0.8625  0.2564 -1.2527
    9MOL   H103 1399   1.887   1.587   4.573  1.0659  1.0457 -0.0071
    9MOL   H104 1400   2.052   1.387   4.710 -0.8972 -2.8013 -1.6400
    9MOL   H105 1401   2.005   1.405   4.556  2.6649  1.4723 -1.5540
    9MOL   C106 1402   1.789   1.415   4.660  0.3317  0.2622  0.8376
    9MOL   C107 1403   1.641   1.462   4.655 -0.3511  0.1786  0.1134
    9MOL   N108 1404   1.620   1.560   4.548  0.5088  0.8786 -0.5000
    9MOL   H109 1405   1.789   1.350   4.572 -0.8722 -0.9743  1.7274
    9MOL   H110 1406   1.803   1.339   4.738 -0.5715 -0.5393  0.2314
    9MOL   H111 1407   1.621   1.500   4.755 -0.2974  1.5930 -0.4004
    9MOL   H112 1408   1.646   1.649   4.589 -1.1712  0.3171  1.8923
    9MOL   H113 1409   1.521   1.566   4.527  0.0432 -0.4908  1.2376
    9MOL   C114 1410   1.528   1.351   4.651  0.2966 -0.2036 -0.2538
    9MOL   C115 1411   1.541   1.220   4.741 -0.9179  0.2351  0.3704
    9MOL   N116 1412   1.447   1.227   4.846  0.1720 -0.1843 -0.4446
    9MOL   H117 1413   1.430   1.396   4.669  0.8562  1.3079 -0.9072
    9MOL   H118 1414   1.511   1.314   4.550  0.1479  0.8085 -0.6096
    9MOL   H119 1415   1.638   1.201   4.788  0.1032 -1.4013 -2.3126
    9MOL   H120 1416   1.361   1.208   4.797 -1.3585 -0.1041  2.1137
    9MOL   H121 1417   1.439   1.151   4.912  0.0323 -0.0953 -0.3569
    9MOL   C122 1418   1.513   1.085   4.668 -0.0602  0.0110  0.3402
    9MOL   C123 1419   1.630   1.011   4.605  0.0231  0.0539  0.1034
    9MOL   N124 1420   1.728   0.978   4.707 -0.1447 -0.1371  0.8366
    9MOL   H125 1421   1.466   1.018   4.741 -0.0640 -1.5712 -1.0940
    9MOL   H126 1422   1.441   1.101   4.588 -0.4832 -0.1234  0.6945
    9MOL   H127 1423   1.673   1.068   4.523 -2.5211  2.8119  0.6088
    9MOL   H128 1424   1.801   0.939   4.649 -0.4216  0.9474 -0.2542
    9MOL   H129 1425   1.761   1.071   4.730 -1.0234 -0.7504  5.1548
    9MOL   C130 1426   1.574   0.880   4.554 -0.0905  0.8058 -0.1803
    9MOL   C131 1427   1.496   0.887   4.422  0.1091 -0.2500  0.2280
    9MOL   N132 1428   1.581   0.919   4.310 -0.5396 -0.1736  0.1823
    9MOL   H133 1429   1.663   0.819   4.537 -1.7335 -2.1338  1.4094
    9MOL   H134 1430   1.534   0.817   4.633  1.8970 -0.9496 -0.5346
    9MOL   H135 1431   1.428   0.972   4.422  0.1342 -0.2227  1.5398
    9MOL   H136 1432   1.635   0.846   4.268 -1.2987 -2.1323  2.5112
    9MOL   H137 1433   1.511   0.953   4.245 -2.5230 -1.2734  1.6923
    9MOL   C138 1434   1.421   0.760   4.391 -0.5513 -0.1235 -0.9938
    9MOL   C139 1435   1.294   0.730   4.477  0.0445  0.3951  0.1049
    9MOL   N140 1436   1.338   0.676   4.605 -0.1708  0.3221  0.1492
    9MOL   H141 1437   1.384   0.753   4.289 -0.2563 -1.0384 -1.0429
    9MOL   H142 1438   1.482   0.670   4.394  0.7414  0.6620 -2.9881
    9MOL   H143 1439   1.234   0.654   4.428  1.4322 -1.3688  1.1188
    9MOL   H144 1440   1.266   0.662   4.675  0.0993 -0.7794  0.2187
    9MOL   H145 1441   1.409   0.738   4.639 -0.0490 -0.3011  1.0245
    9MOL   C146 1442   1.202   0.851   4.502  0.7677 -0.2811  1.1603
    9MOL   C147 1443   1.142   0.905   4.366  0.6701  0.0051 -0.5971
    9MOL   N148 1444   1.051   0.812   4.310 -0.4769 -0.1104 -0.0891
    9MOL   H149 1445   1.110   0.822   4.554 -0.4976  1.0247 -0.2847
    9MOL   H150 1446   1.242   0.920   4.577 -1.0453  3.3852 -1.0903
    9MOL   H151 1447   1.223   0.910   4.293  2.0777  2.7740  1.0645
    9MOL   H152 1448   0.990   0.855   4.242 -0.2601  0.0899 -0.1585
    9MOL   H153 1449   0.984   0.767   4.371  0.7978 -0.3339  1.1877
    9MOL   C154 1450   1.069   1.043   4.381  0.2498  0.7399  0.4539
    9MOL   C155 1451   1.140   1.164   4.441  0.2576  0.8406 -0.3477
    9MOL   N156 1452   1.066   1.283   4.432  0.4685  0.2116  0.1141
    9MOL   H157 1453   1.036   1.060   4.279  2.3713 -1.1476 -0.5828
    9MOL   H158 1454   0.974   1.021   4.430  1.1145 -2.8923  0.6096
    9MOL   H159 1455   1.239   1.169   4.395 -0.3845  0.3628 -1.8235
    9MOL   H160 1456   1.090   1.351   4.503 -1.7205  0.7409  0.3752
    9MOL   H161 1457   0.974   1.256   4.465 -0.8238  2.7480 -1.2704
    9MOL   H162 1458   1.161   1.132   4.543  2.2125  1.5032 -0.5025
   10MOL     C1 1459   2.331   4.480   0.686  0.0847 -0.3940  0.1257
   10MOL     C2 1460   2.269   4.350   0.748  0.0650  0.0321  0.2068
   10MOL     N3 1461   2.130   4.378   0.779 -0.2119 -0.0374 -0.0582
   10MOL     H4 1462   2.294   4.497   0.584  2.3549  0.3492 -0.5966
   10MOL     H5 1463   2.439   4.479   0.693  0.3254  1.0761 -2.5566
   10MOL     H6 1464   2.324   4.344   0.843  0.6036 -2.3269 -0.2104
   10MOL     H7 1465   2.078   4.349   0.698 -0.4268 -0.0529  0.0830
   10MOL     H8 1466   2.103   4.472   0.806  1.7895  0.1361  1.4721
   10MOL     H9 1467   2.300   4.563   0.750  0.9158 -0.0088  0.0403
   10MOL    C10 1468   2.298   4.223   0.670 -0.4048  0.2297 -0.2673
   10MOL    C11 1469   2.447   4.192   0.658  0.0516 -0.0623 -0.0245
   10MOL    N12 1470   2.475   4.047   0.659 -1.1558  0.4473  0.4192
   10MOL    H13 1471   2.253   4.149   0.736 -1.3772  1.4211  0.4463
   10MOL    H14 1472   2.241   4.226   0.577 -1.5178  0.8855  0.4214
   10MOL    H15 1473   2.499   4.228   0.747 -3.5061 -0.5999  2.3437
   10MOL    H16 1474   2.481   4.005   0.568 -2.9653  0.2991  0.3459
   10MOL    H17 1475   2.405   3.998   0.713 -0.9815 -1.6704 -1.2274
   10MOL    C18 1476   2.511   4.255   0.522  0.2348  0.0954 -0.5299
   10MOL    C19 1477   2.667   4.276   0.514 -0.0559  0.1174  0.7221
   10MOL    N20 1478   2.715   4.238   0.381  0.1230 -1.0021 -0.1564
   10MOL    H21 1479   2.484   4.191   0.438 -0.0647  1.2085 -1.2837
   10MOL    H22 1480   2.473   4.356   0.510  1.2801  0.5438 -0.0506
   10MOL    H23 1481   2.709   4.204   0.584  2.1541  0.7336  0.0484
   10MOL    H24 1482   2.670   4.278   0.300 -0.2162 -2.8386 -0.8860
   10MOL    H25 1483   2.690   4.141   0.374 -1.7727 -0.4287 -1.5461
   10MOL    C26 1484   2.718   4.416   0.561  0.0114  0.0064 -0.2248
   10MOL    C27 1485   2.731   4.439   0.715 -0.2335  0.3547 -0.3838
   10MOL    N28 1486   2.824   4.341   0.772  0.0461 -0.7663 -0.0195
   10MOL    H29 1487   2.817   4.427   0.515  0.9282  1.6465  2.0831
   10MOL    H30 1488   2.668   4.507   0.528 -0.6864 -0.9268 -1.7953
   10MOL    H31 1489   2.632   4.439   0.761  0.4497  0.3498  1.1406
   10MOL    H32 1490   2.838   4.373   0.866  1.3241 -0.0535 -0.4418
   10MOL    H33 1491   2.783   4.249   0.772  2.9828 -2.1261 -0.4725
   10MOL    C34 1492   2.796   4.575   0.755  0.0575  0.5597 -0.2799
   10MOL    C35 1493   2.722   4.698   0.710  0.2258 -0.1199 -0.2710
   10MOL    N36 1494   2.590   4.708   0.778  0.1312 -0.8232  0.3532
   10MOL    H37 1495   2.823   4.579   0.861  1.1932 -0.8643 -0.4835
   10MOL    H38 1496   2.900   4.576   0.721  0.1772  0.5535  0.0829
   10MOL    H39 1497   2.691   4.703   0.606  0.1315 -1.5535 -0.3174
   10MOL    H40 1498   2.606   4.713   0.877  0.4580  2.1331  0.1774
   10MOL    H41 1499   2.583   4.805   0.752  0.5798 -1.1608 -1.0513
   10MOL    C42 1500   2.805   4.820   0.752  0.0809  0.8140  0.7095
   10MOL    C43 1501   2.905   4.858   0.640 -0.0142  0.1957  0.3097
   10MOL    N44 1502   2.840   4.921   0.523 -0.3419  0.0294 -0.1026
   10MOL    H45 1503   2.751   4.913   0.773 -0.2076  1.0086 -0.8209
   10MOL    H46 1504   2.852   4.795   0.847 -0.4891 -2.6603  0.1382
   10MOL    H47 1505   2.945   4.762   0.607  0.9676  0.0562  1.8412
   10MOL    H48 1506   2.892   4.938   0.439 -2.3371  0.7617 -1.2152
   10MOL    H49 1507   2.764   4.863   0.493 -1.2231  0.3003  1.5451
   10MOL    C50 1508   3.021   4.945   0.691 -0.0428 -0.1682 -0.1271
   10MOL    C51 1509   3.141   4.946   0.597  0.1270 -0.6108  0.0538
   10MOL    N52 1510   3.234   5.041   0.661 -0.1480  0.2368 -0.0796
   10MOL    H53 1511   2.979   5.046   0.692 -0.9498 -0.5270 -1.1809
   10MOL    H54 1512   3.047   4.915   0.793 -0.6131  1.5049  0.5257
   10MOL    H55 1513   3.113   4.979   0.496 -1.0348 -0.1066  0.5321
   10MOL    H56 1514   3.257   4.997   0.749 -1.5288 -0.1087  0.1213
   10MOL    H57 1515   3.315   5.020   0.604  0.7197  0.4079  1.0634
   10MOL    C58 1516   3.213   4.806   0.596 -0.0217  0.1313  0.4352
   10MOL    C59 1517   3.202   4.730   0.459 -0.5218 -0.0347 -0.4293
   10MOL    N60 1518   3.335   4.731   0.403 -0.2490 -0.2277  0.0868
   10MOL    H61 1519   3.318   4.813   0.624  0.1384  3.9168 -0.7450
   10MOL    H62 1520   3.166   4.748   0.675 -0.5409 -0.9997 -0.6930
   10MOL    H63 1521   3.131   4.772   0.388  0.4288  0.5934 -1.0287
   10MOL    H64 1522   3.312   4.713   0.306  0.5715 -3.9380  0.5306
   10MOL    H65 1523   3.389   4.648   0.420  1.4827  0.8812  0.1500
   10MOL    C66 1524   3.136   4.585   0.467  0.3418  0.3038  0.2491
   10MOL    C67 1525   3.165   4.502   0.599  0.6760  0.3600 -0.2207
   10MOL    N68 1526   3.082   4.382   0.594 -0.6269 -0.4098 -0.0473
   10MOL    H69 1527   3.028   4.599   0.461  0.3297  1.3443  2.4280
   10MOL    H70 1528   3.170   4.523   0.384  1.1101  0.5944  0.3393
   10MOL    H71 1529   3.144   4.560   0.689  1.9001  0.6563 -0.1201
   10MOL    H72 1530   2.996   4.390   0.645 -0.4531  0.5802  0.1037
   10MOL    H73 1531   3.135   4.308   0.639  0.8318 -0.3635 -1.6277
   10MOL    C74 1532   3.318   4.464   0.598 -0.0473 -0.5653 -0.5413
   10MOL    C75 1533   3.362   4.379   0.715 -0.2825 -0.8413 -0.0175
   10MOL    N76 1534   3.504   4.365   0.713  0.7072  0.0673 -0.3401
   10MOL    H77 1535   3.345   4.410   0.507  0.0095 -1.4672  0.0031
   10MOL    H78 1536   3.378   4.554   0.596  0.8162 -1.0392  2.1481
   10MOL    H79 1537   3.302   4.290   0.700  1.8533 -1.9470 -2.2797
   10MOL    H80 1538   3.551   4.455   0.713  1.4760 -0.3271 -0.1087
   10MOL    H81 1539   3.525   4.340   0.617 -0.1608 -0.1556 -0.4737
   10MOL    C82 1540   3.335   4.449   0.856  0.2750 -0.1829 -0.1173
   10MOL    C83 1541   3.340   4.349   0.971 -0.2078  0.2057 -0.0853
   10MOL    N84 1542   3.358   4.422   1.099  0.2980  0.3211 -0.3239
   10MOL    H85 1543   3.397   4.537   0.872 -0.0093 -0.1110  0.6158
   10MOL    H86 1544   3.234   4.491   0.862  0.8212  1.4739 -1.7869
   10MOL    H87 1545   3.431   4.290   0.957  0.4916  0.5498  2.7039
   10MOL    H88 1546   3.418   4.366   1.157 -0.0072  0.3982  0.0627
   10MOL    H89 1547   3.410   4.508   1.090  2.2903 -0.8251  0.0617
   10MOL    C90 1548   3.208   4.258   0.967  0.0775 -0.4736  0.2304
   10MOL    C91 1549   3.244   4.110   0.947  0.8963 -0.5234  0.3594
   10MOL    N92 1550   3.303   4.051   1.071 -0.8412 -1.5359  0.6536
   10MOL    H93 1551   3.150   4.262   1.059 -1.2754  0.0573 -0.6274
   10MOL    H94 1552   3.138   4.304   0.897 -0.1699 -1.2967 -0.0736
   10MOL    H95 1553   3.316   4.098   0.866 -1.4113  2.0381 -2.1983
   10MOL    H96 1554   3.227   4.062   1.137  1.2899 -2.4240  3.3625
   10MOL    H97 1555   3.377   4.112   1.101 -1.4303 -0.1358 -0.6579
   10MOL    C98 1556   3.120   4.023   0.923 -0.1264 -0.8199  0.0668
   10MOL    C99 1557   3.035   4.048   0.794 -0.0180 -0.0090  0.5309
   10MOL   N100 1558   3.127   4.063   0.682 -0.3622 -0.1655 -0.0381
   10MOL   H101 1559   3.154   3.920   0.929  1.2668 -0.3644  0.0087
   10MOL   H102 1560   3.046   4.042   1.002 -1.3885 -0.9772 -1.0488
   10MOL   H103 1561   2.974   4.138   0.797 -3.3359 -2.1346  0.7076
   10MOL   H104 1562   3.056   4.114   0.631  1.2866  0.5825 -1.5955
   10MOL   H105 1563   3.135   3.978   0.629  3.3474 -0.1226  0.3288
   10MOL   C106 1564   2.937   3.933   0.762  0.4423  0.3380 -0.8418
   10MOL   C107 1565   2.815   3.929   0.857  0.1080  0.4374 -0.4864
   10MOL   N108 1566   2.723   4.043   0.838 -0.1395 -0.1370 -0.3230
   10MOL   H109 1567   2.901   3.942   0.659 -1.1425  1.2638 -0.2306
   10MOL   H110 1568   2.979   3.834   0.774 -0.5621  0.0502  0.3672
   10MOL   H111 1569   2.841   3.940   0.962  1.2399 -1.9687 -0.4745
   10MOL   H112 1570   2.663   4.026   0.759 -1.2295 -0.4990  0.5703
   10MOL   H113 1571   2.669   4.071   0.919  2.7980 -0.0277  1.6743
   10MOL   C114 1572   2.725   3.809   0.830  0.4612  0.6038  0.0397
   10MOL   C115 1573   2.762   3.689   0.920 -0.6594  0.2854 -0.0858
   10MOL   N116 1574   2.640   3.631   0.960  0.6988 -0.6484 -0.1203
   10MOL   H117 1575   2.625   3.838   0.861  0.3476 -0.9500  1.1602
   10MOL   H118 1576   2.718   3.784   0.724 -1.7809 -2.2715  0.7975
   10MOL   H119 1577   2.809   3.741   1.003  3.3636 -2.1215 -0.7657
   10MOL   H120 1578   2.571   3.704   0.961  0.1652 -1.1234 -1.3577
   10MOL   H121 1579   2.640   3.595   1.055  0.6481 -1.5396 -0.4513
   10MOL   C122 1580   2.844   3.578   0.854 -0.0902  0.0322  0.0696
   10MOL   C123 1581   2.885   3.454   0.931  0.6890  0.3233  0.0448
   10MOL   N124 1582   2.872   3.337   0.846  0.0453  0.1580  0.3095
   10MOL   H125 1583   2.783   3.547   0.769 -0.1804  2.0567 -0.6339
   10MOL   H126 1584   2.938   3.619   0.816 -0.5373 -0.0111 -1.0904
   10MOL   H127 1585   2.803   3.441   1.001  0.2375 -0.8458 -0.6810
   10MOL   H128 1586   2.792   3.337   0.785 -1.2407 -4.0078  1.8165
   10MOL   H129 1587   2.957   3.328   0.793  0.6731 -0.3047  1.3806
   10MOL   C130 1588   3.021   3.466   0.996  0.2304  0.9973  0.1629
   10MOL   C131 1589   3.009   3.525   1.132 -1.1523 -0.7441  0.3878
   10MOL   N132 1590   2.958   3.416   1.217  0.5527  1.3450  0.3534
   10MOL   H133 1591   3.059   3.366   1.018 -2.4854 -0.0069  0.3853
   10MOL   H134 1592   3.107   3.512   0.946  1.6171  0.3668  1.9277
   10MOL   H135 1593   2.935   3.603   1.144 -1.2916 -1.0052  1.2743
   10MOL   H136 1594   3.030   3.352   1.246 -0.9423 -0.7443 -0.4190
   10MOL   H137 1595   2.908   3.362   1.148  2.1951 -1.5336  1.3519
   10MOL   C138 1596   3.139   3.566   1.200  0.8682  0.1401  0.1216
   10MOL   C139 1597   3.220   3.666   1.116 -0.4016  0.0614  0.3333
   10MOL   N140 1598   3.245   3.778   1.207  0.5207  0.8353 -0.7201
   10MOL   H141 1599   3.115   3.608   1.297  0.1017  2.4226 -0.9996
   10MOL   H142 1600   3.210   3.486   1.220  1.6083  0.6494 -0.4309
   10MOL   H143 1601   3.165   3.699   1.028 -1.6352  2.4819  1.9766
   10MOL   H144 1602   3.154   3.817   1.228  0.7681  0.4339  1.1826
   10MOL   H145 1603   3.295   3.846   1.151  1.5115  1.3380  0.7530
   10MOL   C146 1604   3.353   3.607   1.068 -0.7949  0.5592 -0.1780
   10MOL   C147 1605   3.408   3.694   0.958  0.1903  0.6426 -0.1141
   10MOL   N148 1606   3.553   3.680   0.952  0.4118 -0.3127  0.7403
   10MOL   H149 1607   3.418   3.603   1.155  2.7577  2.3895 -2.6053
   10MOL   H150 1608   3.340   3.502   1.043  3.6343 -0.1020 -0.0669
   10MOL   H151 1609   3.383   3.797   0.985 -1.3523 -0.1194  1.5095
   10MOL   H152 1610   3.583   3.627   0.871 -2.3824 -1.2148  0.2373
   10MOL   H153 1611   3.579   3.773   0.924 -0.0935 -0.7352 -1.2003
   10MOL   C154 1612   3.351   3.675   0.818  0.2692  0.2796 -0.4380
   10MOL   C155 1613   3.365   3.797   0.737 -0.3640  0.3804 -0.1316
   10MOL   N156 1614   3.308   3.796   0.605  0.1681  0.8826  0.3650
   10MOL   H157 1615   3.373   3.577   0.775 -0.2502  1.2070 -2.9394
   10MOL   H158 1616   3.244   3.658   0.830  0.5805 -0.7212  1.0939
   10MOL   H159 1617   3.472   3.808   0.715 -0.9638  2.0626 -2.3977
   10MOL   H160 1618   3.339   3.712   0.557  1.1832  1.7639 -0.5457
   10MOL   H161 1619   3.359   3.865   0.552 -1.0831  3.1898  2.0929
   10MOL   H162 1620   3.344   3.888   0.793  3.3046 -0.0797  2.1817
   11MOL     C1 1621   0.253   5.023   6.537 -0.6879 -0.0353 -0.3397
   11MOL     C2 1622   0.136   4.956   6.603  0.2407  0.1557  0.1076
   11MOL     N3 1623   0.015   5.023   6.565 -0.0527 -0.4202  0.1720
   11MOL     H4 1624   0.348   5.003   6.587 -0.3407  0.1485 -0.9236
   11MOL     H5 1625   0.236   5.131   6.527  1.1600  0.4014  0.9866
   11MOL     H6 1626   0.143   4.982   6.709  1.2912  1.9103 -0.3717
   11MOL     H7 1627   7.213   4.984   6.616  0.9635 -0.4131  1.7526
   11MOL     H8 1628   7.261   5.003   6.470  1.5796 -0.1899 -0.4060
   11MOL     H9 1629   0.266   4.998   6.432  0.5462  2.1602 -0.7508
   11MOL    C10 1630   0.126   4.808   6.565 -0.8605 -0.2367 -0.7522
   11MOL    C11 1631   0.032   4.716   6.654 -0.3137  0.2245 -0.0537
   11MOL    N12 1632   0.004   4.600   6.569  0.0111  0.5653  0.2487
   11MOL    H13 1633   0.104   4.803   6.459  2.4091  2.6020 -1.6614
   11MOL    H14 1634   0.230   4.777   6.579 -1.2272 -0.7766  0.9846
   11MOL    H15 1635   7.213   4.763   6.680  1.3557  3.1485  1.0541
   11MOL    H16 1636   7.267   4.522   6.632  2.8094 -0.1448 -0.0284
   11MOL    H17 1637   0.095   4.572   6.536 -0.6529 -1.5065  0.1336
   11MOL    C18 1638   0.107   4.670   6.785  0.4309 -0.5313 -1.2220
   11MOL    C19 1639   0.031   4.621   6.909 -0.0188 -0.2943  0.0265
   11MOL    N20 1640   0.139   4.577   6.993 -0.1808  0.0472  0.1920
   11MOL    H21 1641   0.187   4.604   6.751  1.4031  0.7659 -1.4967
   11MOL    H22 1642   0.171   4.753   6.817  3.5978 -2.0644 -3.2758
   11MOL    H23 1643   7.236   4.551   6.864 -0.7927  2.0836 -2.6480
   11MOL    H24 1644   0.179   4.493   6.954  0.2107 -0.6885  2.1210
   11MOL    H25 1645   0.099   4.530   7.073 -0.2718  4.0782  2.6527
   11MOL    C26 1646   7.234   4.722   7.000 -0.1108  0.0250 -0.3938
   11MOL    C27 1647   7.093   4.760   6.948  0.5828 -0.2598  0.1834
   11MOL    N28 1648   7.007   4.766   7.066  0.3131 -0.0919  0.1261
   11MOL    H29 1649   7.221   4.677   7.099 -1.6998 -0.8238 -0.9772
   11MOL    H30 1650   0.019   4.811   7.012 -0.8685  0.5099 -0.0705
   11MOL    H31 1651   7.064   4.687   6.872  3.2200 -2.1220  0.9012
   11MOL    H32 1652   7.013   4.852   7.118 -1.2720  0.3853 -0.4438
   11MOL    H33 1653   7.035   4.699   7.135 -2.0377 -1.9709 -0.6496
   11MOL    C34 1654   7.090   4.904   6.881  0.2365 -0.4584  0.5643
   11MOL    C35 1655   6.958   4.958   6.824 -0.2483 -0.0293  0.5003
   11MOL    N36 1656   6.992   5.088   6.767 -0.1270  0.2701 -0.1419
   11MOL    H37 1657   7.133   4.970   6.957 -1.6741  1.6179 -0.1318
   11MOL    H38 1658   7.166   4.919   6.805 -0.1371  0.4918  0.3770
   11MOL    H39 1659   6.892   4.979   6.908  0.8392 -0.2792  1.4353
   11MOL    H40 1660   6.903   5.129   6.789  0.2005  1.7648 -1.5432
   11MOL    H41 1661   7.050   5.136   6.835  0.3865 -0.1215 -0.2983
   11MOL    C42 1662   6.894   4.882   6.716 -0.1726  0.4214  0.1884
   11MOL    C43 1663   6.794   4.780   6.777  0.6019 -0.5499 -0.0069
   11MOL    N44 1664   6.669   4.855   6.805  0.0584 -0.0386  0.0688
   11MOL    H45 1665   6.844   4.952   6.650  1.0490 -0.1070 -1.3271
   11MOL    H46 1666   6.971   4.830   6.660 -1.0460  1.0785 -1.6516
   11MOL    H47 1667   6.835   4.727   6.863 -2.8948 -0.5740  1.7301
   11MOL    H48 1668   6.619   4.856   6.718  0.8238 -1.8055 -0.4104
   11MOL    H49 1669   6.615   4.793   6.864 -1.1205  1.2361  0.3274
   11MOL    C50 1670   6.758   4.668   6.685 -0.4784 -0.3642 -0.1701
   11MOL    C51 1671   6.647   4.574   6.747  0.9249  0.6508 -0.0015
   11MOL    N52 1672   6.510   4.622   6.709 -0.3195  0.3778  0.1367
   11MOL    H53 1673   6.749   4.696   6.580  1.5643  2.3645  0.3277
   11MOL    H54 1674   6.854   4.617   6.686 -0.7041 -0.7829  0.7585
   11MOL    H55 1675   6.655   4.575   6.856 -0.9893  0.6751  0.1515
   11MOL    H56 1676   6.457   4.606   6.794  0.3999 -1.1499  0.3011
   11MOL    H57 1677   6.513   4.723   6.708  1.4093  0.3386  0.4787
   11MOL    C58 1678   6.651   4.418   6.710 -0.0765  0.2758 -0.1019
   11MOL    C59 1679   6.743   4.322   6.795  0.0334  0.6591  0.0038
   11MOL    N60 1680   6.701   4.191   6.756  0.2725  0.4730  0.1813
   11MOL    H61 1681   6.552   4.372   6.704 -0.5486  1.0097  1.9167
   11MOL    H62 1682   6.687   4.417   6.607 -2.4542 -1.3101 -0.9632
   11MOL    H63 1683   6.711   4.330   6.899 -1.4946 -2.7582 -0.1218
   11MOL    H64 1684   6.768   4.119   6.781 -1.8324 -2.5375 -2.4455
   11MOL    H65 1685   6.612   4.170   6.799  0.1312  1.1989  0.2403
   11MOL    C66 1686   6.894   4.329   6.766  0.3838 -0.0023  0.6586
   11MOL    C67 1687   6.980   4.299   6.889 -0.4284 -0.1515  0.2328
   11MOL    N68 1688   7.116   4.299   6.835  0.8813 -0.5373 -0.1948
   11MOL    H69 1689   6.924   4.266   6.682 -1.7717  1.4538 -1.2808
   11MOL    H70 1690   6.927   4.422   6.720  2.6676 -1.2538 -0.3040
   11MOL    H71 1691   6.962   4.200   6.930  0.7396 -0.4016  0.1601
   11MOL    H72 1692   7.126   4.202   6.811  0.9122 -0.5512 -0.1249
   11MOL    H73 1693   7.179   4.302   6.914  0.0229  2.8576  0.4850
   11MOL    C74 1694   6.955   4.404   7.002 -0.1936  0.0500  0.0764
   11MOL    C75 1695   7.017   4.369   7.143  0.0088 -0.0837  0.4283
   11MOL    N76 1696   6.958   4.253   7.210  0.3735 -0.7945 -0.4270
   11MOL    H77 1697   6.980   4.503   6.963  0.7797  0.4492  1.6666
   11MOL    H78 1698   6.849   4.413   7.025 -0.3536  1.0380 -1.0154
   11MOL    H79 1699   6.998   4.459   7.201 -0.8099 -0.2575  0.4393
   11MOL    H80 1700   6.860   4.274   7.213  0.9651  2.0569  1.1920
   11MOL    H81 1701   6.991   4.215   0.023  0.3364  2.5397  1.0745
   11MOL    C82 1702   7.172   4.346   7.153 -0.0456 -0.8241  0.0909
   11MOL    C83 1703   7.242   4.358   0.014 -0.6672 -0.2322 -0.4596
   11MOL    N84 1704   0.105   4.338   7.273  0.1201 -0.4680 -0.4429
   11MOL    H85 1705   7.198   4.257   7.095 -1.7333 -0.3443 -1.4580
   11MOL    H86 1706   7.219   4.422   7.090 -1.0762 -0.2393  0.0216
   11MOL    H87 1707   7.211   4.278   0.081  0.5337 -0.1087  0.2688
   11MOL    H88 1708   0.125   4.274   7.198  1.6125 -2.2557  1.4478
   11MOL    H89 1709   0.141   4.293   0.081  1.4379  1.3861  0.0231
   11MOL    C90 1710   7.230   4.495   0.089 -0.6921 -0.2851  0.2184
   11MOL    C91 1711   7.253   4.494   0.244 -0.2546  0.9811 -0.1075
   11MOL    N92 1712   0.002   4.635   0.278 -0.0521  0.2747  0.3819
   11MOL    H93 1713   0.031   4.562   0.051  0.7489 -1.1736  1.4643
   11MOL    H94 1714   7.134   4.544   0.074 -0.9766 -0.3819  1.6714
   11MOL    H95 1715   0.070   4.440   0.260 -1.0374 -0.5104 -0.5906
   11MOL    H96 1716   0.093   4.660   0.241  0.2287  0.5802  1.2563
   11MOL    H97 1717   0.028   4.635   0.376  2.3059  0.8424 -0.2249
   11MOL    C98 1718   7.139   4.449   0.336 -0.7309 -0.2585 -0.7310
   11MOL    C99 1719   7.185   4.366   0.449  0.0753 -0.7162  0.1029
   11MOL   N100 1720   7.084   4.382   0.552 -0.5341  0.2940 -0.2320
   11MOL   H101 1721   7.075   4.529   0.373 -1.1348 -0.4078 -1.1012
   11MOL   H102 1722   7.086   4.384   0.266 -2.1129  0.2322 -0.1439
   11MOL   H103 1723   7.271   4.414   0.495  0.2708 -2.0159  1.1071
   11MOL   H104 1724   7.101   4.317   0.627 -0.8145 -1.0817 -1.3380
   11MOL   H105 1725   7.103   4.467   0.602  1.9977  0.7218 -1.8117
   11MOL   C106 1726   7.224   4.219   0.413  0.2967  0.1451 -0.0772
   11MOL   C107 1727   7.248   4.131   0.533  0.4257 -0.1721  0.4376
   11MOL   N108 1728   0.001   3.999   0.474 -0.3387  0.4935 -0.3973
   11MOL   H109 1729   7.140   4.173   0.361 -0.8786  1.1855  0.8717
   11MOL   H110 1730   0.034   4.234   0.347  0.5128  0.1882  0.2146
   11MOL   H111 1731   7.150   4.129   0.581  0.2434 -1.8225  0.0299
   11MOL   H112 1732   7.196   3.974   0.420 -2.9040  0.9046  3.0350
   11MOL   H113 1733   7.253   3.936   0.549 -3.3673  2.0233  0.0179
   11MOL   C114 1734   0.081   4.180   0.633 -0.6606 -0.7756 -0.3346
   11MOL   C115 1735   0.126   4.085   0.747  0.1138  0.0940  0.1172
   11MOL   N116 1736   0.243   4.139   0.807  0.1963 -0.3233 -0.1184
   11MOL   H117 1737   0.170   4.205   0.575  0.8458  0.1717  2.3406
   11MOL   H118 1738   0.047   4.276   0.672 -1.4023 -0.8359 -0.8105
   11MOL   H119 1739   0.151   3.984   0.713 -0.2576 -0.6227  1.9086
   11MOL   H120 1740   0.320   4.128   0.742  0.3669 -2.7080  0.4149
   11MOL   H121 1741   0.219   4.236   0.821 -1.1594 -0.4669 -1.3671
   11MOL   C122 1742   0.030   4.078   0.867 -0.2302 -0.9193 -0.5877
   11MOL   C123 1743   7.191   3.980   0.843 -0.7729 -0.1118  0.2994
   11MOL   N124 1744   7.230   3.842   0.844  0.3281 -0.0630 -0.2464
   11MOL   H125 1745   0.089   4.048   0.954 -2.1578  2.9432  2.1881
   11MOL   H126 1746   7.272   4.180   0.886 -1.5149 -1.8584  2.6102
   11MOL   H127 1747   7.153   4.001   0.743 -2.1139 -1.7747  0.4242
   11MOL   H128 1748   0.031   3.843   0.779 -0.1187 -1.2260 -0.7989
   11MOL   H129 1749   7.156   3.792   0.796  0.8801 -1.6443  0.5030
   11MOL   C130 1750   7.068   3.992   0.932 -0.2689  0.2752  0.2491
   11MOL   C131 1751   6.994   4.125   0.906  0.1192 -0.0982  0.2102
   11MOL   N132 1752   6.910   4.117   0.788  0.4268  0.1399  0.7210
   11MOL   H133 1753   7.007   3.907   0.903  1.9073 -0.7476 -1.5159
   11MOL   H134 1754   7.091   3.981   1.038  2.1500 -1.4146 -0.4079
   11MOL   H135 1755   7.068   4.202   0.882  1.4384 -1.7552 -1.1828
   11MOL   H136 1756   6.865   4.027   0.793 -0.5457  0.5441 -0.3808
   11MOL   H137 1757   6.974   4.104   0.711  0.0911 -0.9973  0.6314
   11MOL   C138 1758   6.920   4.196   1.019 -0.1543 -0.0110 -0.4456
   11MOL   C139 1759   7.013   4.236   1.131  0.1810 -0.4036  0.1525
   11MOL   N140 1760   7.086   4.358   1.099 -0.0364 -0.0747 -0.4520
   11MOL   H141 1761   6.864   4.282   0.983  0.2992  0.9625  1.1301
   11MOL   H142 1762   6.850   4.124   1.061 -2.4853  2.1748 -0.4905
   11MOL   H143 1763   7.084   4.156   1.154  0.7113  0.3282  1.1037
   11MOL   H144 1764   7.023   4.434   1.121 -0.1995 -0.1677 -0.5955
   11MOL   H145 1765   7.161   4.369   1.166 -0.5588  0.6941  0.0116
   11MOL   C146 1766   6.927   4.264   1.257  0.3763  1.0348 -0.1108
   11MOL   C147 1767   7.000   4.281   1.396 -0.1436 -0.3513  0.1102
   11MOL   N148 1768   6.914   4.361   1.484  0.0044 -0.6305  0.7212
   11MOL   H149 1769   6.870   4.355   1.235  0.5376  1.3815  0.8830
   11MOL   H150 1770   6.852   4.187   1.272  0.7895  0.7152  0.2972
   11MOL   H151 1771   7.100   4.315   1.371  0.7032 -0.1558  3.5651
   11MOL   H152 1772   6.861   4.429   1.432 -0.4406  1.9447  4.3578
   11MOL   H153 1773   6.842   4.297   1.514 -0.7900  0.3646  0.9636
   11MOL   C154 1774   7.018   4.153   1.478 -0.4205 -0.1916 -0.0498
   11MOL   C155 1775   7.109   4.049   1.412 -0.5608  0.2213 -0.1791
   11MOL   N156 1776   7.132   3.950   1.520 -0.2434 -0.4955  0.1486
   11MOL   H157 1777   7.059   4.173   1.577  1.9774  0.9385 -1.2330
   11MOL   H158 1778   6.927   4.096   1.494  1.7243 -3.3639  1.4163
   11MOL   H159 1779   7.205   4.090   1.382  1.1496 -1.2838  2.9423
   11MOL   H160 1780   7.105   3.856   1.496  1.8001 -0.7048 -1.5026
   11MOL   H161 1781   7.088   3.972   1.608  1.9560  1.7699  0.7604
   11MOL   H162 1782   7.055   4.006   1.328  0.0057 -0.0537 -0.4006
   12MOL     C1 1783   0.515   1.501   2.682 -0.4372  0.1987 -0.9956
   12MOL     C2 1784   0.508   1.408   2.807 -0.3911  0.7092  0.1749
   12MOL     N3 1785   0.446   1.290   2.755 -0.0447 -0.6219  0.0791
   12MOL     H4 1786   0.581   1.466   2.602 -2.1292 -1.5274 -1.6729
   12MOL     H5 1787   0.546   1.605   2.694  0.2393 -0.0466 -0.5646
   12MOL     H6 1788   0.430   1.446   2.873  1.1756  1.2516  1.7251
   12MOL     H7 1789   0.406   1.305   2.664  1.2457 -1.4430 -0.6531
   12MOL     H8 1790   0.369   1.250   2.807 -1.1035 -0.3725 -1.2783
   12MOL     H9 1791   0.422   1.509   2.626 -0.3983  0.6449 -0.9966
   12MOL    C10 1792   0.650   1.395   2.871 -0.0514  0.1373 -0.3500
   12MOL    C11 1793   0.645   1.325   3.007  0.5975 -0.0047 -0.2845
   12MOL    N12 1794   0.782   1.276   3.026 -0.2136 -0.3574 -0.3094
   12MOL    H13 1795   0.715   1.340   2.803 -2.5168 -2.8247 -0.3997
   12MOL    H14 1796   0.706   1.487   2.888  0.9222 -0.8428  1.8627
   12MOL    H15 1797   0.580   1.238   2.997  1.8987 -1.0215 -0.1267
   12MOL    H16 1798   0.793   1.193   2.970  0.3599 -0.1921 -0.4477
   12MOL    H17 1799   0.803   1.244   3.120  1.5549  1.9129  0.1196
   12MOL    C18 1800   0.599   1.419   3.124  0.5200  0.3116 -0.1767
   12MOL    C19 1801   0.555   1.344   3.253 -0.1450  0.6376  0.1314
   12MOL    N20 1802   0.573   1.442   3.361  0.8149 -0.1742 -0.2009
   12MOL    H21 1803   0.680   1.490   3.142  1.1254  0.0632 -1.8320
   12MOL    H22 1804   0.512   1.472   3.085  0.6424  1.9511  1.7044
   12MOL    H23 1805   0.633   1.271   3.273 -0.5406 -0.1093 -0.9809
   12MOL    H24 1806   0.540   1.411   3.452  0.4349  2.4424  0.6108
   12MOL    H25 1807   0.670   1.467   3.373  0.3333  1.9404 -0.5425
   12MOL    C26 1808   0.411   1.293   3.240 -0.0119  0.3747  1.0339
   12MOL    C27 1809   0.396   1.155   3.310 -0.2228 -0.8164 -0.1521
   12MOL    N28 1810   0.250   1.143   3.330  0.4830  0.1548  0.6959
   12MOL    H29 1811   0.360   1.370   3.299 -1.2260  0.7253 -0.4433
   12MOL    H30 1812   0.373   1.292   3.138 -0.4171 -2.7722  1.1771
   12MOL    H31 1813   0.445   1.146   3.407 -1.2750 -1.8363  0.3089
   12MOL    H32 1814   0.205   1.213   3.387 -1.6211  0.0527 -0.7567
   12MOL    H33 1815   0.217   1.055   3.368  0.2016  0.2141  0.5864
   12MOL    C34 1816   0.447   1.037   3.220 -0.4317 -0.3308  0.2671
   12MOL    C35 1817   0.594   0.994   3.210 -0.6978  0.2751 -0.7334
   12MOL    N36 1818   0.644   0.959   3.348 -0.0530 -0.2159 -0.3732
   12MOL    H37 1819   0.400   0.946   3.257 -2.2668  0.3139 -0.4174
   12MOL    H38 1820   0.401   1.052   3.122 -0.9581 -0.0726  0.5520
   12MOL    H39 1821   0.646   1.083   3.174 -0.5098 -0.3790 -2.1299
   12MOL    H40 1822   0.697   0.876   3.327 -0.5918  0.2099 -3.8799
   12MOL    H41 1823   0.697   1.036   3.385 -1.1966  2.2033 -3.4805
   12MOL    C42 1824   0.627   0.859   3.137  0.3741  0.5569  0.7338
   12MOL    C43 1825   0.775   0.806   3.129  0.4382 -0.3193  0.3052
   12MOL    N44 1826   0.797   0.719   3.245 -0.3748 -0.0645  0.9096
   12MOL    H45 1827   0.549   0.793   3.174  1.3145 -0.1918  1.3983
   12MOL    H46 1828   0.588   0.870   3.035 -1.4331  1.7059  1.5281
   12MOL    H47 1829   0.838   0.895   3.128 -1.7632  1.2678  0.2389
   12MOL    H48 1830   0.721   0.654   3.260 -0.2036 -0.0900  1.6539
   12MOL    H49 1831   0.884   0.668   3.234 -1.7986 -2.0010 -1.8527
   12MOL    C50 1832   0.817   0.724   3.002 -0.6385 -1.0478 -0.7173
   12MOL    C51 1833   0.952   0.651   2.998 -0.3426 -0.4237 -0.1318
   12MOL    N52 1834   0.953   0.577   2.873  0.2894 -0.5530  0.0725
   12MOL    H53 1835   0.739   0.648   2.993 -0.2738 -1.4731 -0.2630
   12MOL    H54 1836   0.796   0.776   2.908 -1.9854 -2.2482 -1.1042
   12MOL    H55 1837   0.951   0.576   3.078 -1.1937  0.9751  1.2012
   12MOL    H56 1838   0.987   0.637   2.799  0.4787 -0.8767 -0.1041
   12MOL    H57 1839   0.857   0.569   2.841  0.0289  2.3607  0.0350
   12MOL    C58 1840   1.070   0.743   3.007 -0.6549 -0.2647  0.7868
   12MOL    C59 1841   1.129   0.776   3.149 -0.8163  0.1202 -0.1861
   12MOL    N60 1842   1.167   0.652   3.207 -0.0490  0.2434 -0.0068
   12MOL    H61 1843   1.149   0.698   2.946 -3.3463 -0.3092 -2.8434
   12MOL    H62 1844   1.053   0.837   2.956 -0.1230 -0.0927  0.9261
   12MOL    H63 1845   1.054   0.805   3.223 -1.4174 -0.5060 -0.5566
   12MOL    H64 1846   1.094   0.620   3.269 -0.2429 -1.1510 -0.9472
   12MOL    H65 1847   1.250   0.666   3.262 -0.0709  1.1984 -0.1971
   12MOL    C66 1848   1.247   0.872   3.153 -0.8338  0.2750  0.1753
   12MOL    C67 1849   1.203   1.017   3.145 -0.7347  0.1295  0.1712
   12MOL    N68 1850   1.213   1.070   3.279 -0.6246 -0.2062  0.5065
   12MOL    H69 1851   1.321   0.852   3.231  0.1441  0.2099 -0.7554
   12MOL    H70 1852   1.308   0.846   3.067  1.3158  0.1271  1.6911
   12MOL    H71 1853   1.100   1.025   3.113 -1.3957 -0.6500  2.0355
   12MOL    H72 1854   1.139   1.025   3.331 -0.3597 -0.5627  0.5823
   12MOL    H73 1855   1.184   1.165   3.261 -1.1841 -0.3921  0.4101
   12MOL    C74 1856   1.293   1.113   3.068  0.6910 -0.8942 -0.6155
   12MOL    C75 1857   1.265   1.103   2.919 -0.1970  0.4664 -0.0118
   12MOL    N76 1858   1.249   1.236   2.872  0.0408 -0.7506  0.7020
   12MOL    H77 1859   1.284   1.216   3.103 -0.0576 -1.3043  0.4539
   12MOL    H78 1860   1.395   1.088   3.097  0.3218 -0.1124  1.4675
   12MOL    H79 1861   1.176   1.047   2.894  0.5451 -0.5408 -0.4142
   12MOL    H80 1862   1.313   1.258   2.798  0.2820  0.5256  1.2779
   12MOL    H81 1863   1.162   1.235   2.822  2.7281 -0.5069 -4.2723
   12MOL    C82 1864   1.387   1.050   2.837 -0.8961  0.3855 -0.3027
   12MOL    C83 1865   1.358   0.996   2.696 -0.1652 -0.3201 -0.2437
   12MOL    N84 1866   1.487   0.959   2.644 -0.4071  0.0385 -0.7874
   12MOL    H85 1867   1.470   1.121   2.837  0.2367 -0.9015  0.5492
   12MOL    H86 1868   1.440   0.965   2.882  0.1473  1.1243 -0.1089
   12MOL    H87 1869   1.312   1.069   2.631 -1.8135 -0.5320  0.6574
   12MOL    H88 1870   1.539   1.044   2.624 -0.4920  0.3234  0.1525
   12MOL    H89 1871   1.463   0.923   2.553  0.1430 -1.2950 -0.4083
   12MOL    C90 1872   1.274   0.867   2.710  0.2551  0.0292  0.1147
   12MOL    C91 1873   1.131   0.878   2.638 -0.5512  0.2537  0.4708
   12MOL    N92 1874   1.061   0.749   2.653  0.0750 -0.3937 -0.0153
   12MOL    H93 1875   1.331   0.789   2.660 -0.3896 -0.5323  0.2512
   12MOL    H94 1876   1.262   0.837   2.814 -0.3430 -1.1756 -0.2916
   12MOL    H95 1877   1.150   0.888   2.531 -2.6507  0.4868  0.1039
   12MOL    H96 1878   0.975   0.760   2.601 -1.8573 -0.7798  2.9985
   12MOL    H97 1879   1.117   0.672   2.619 -0.1810 -0.6627  0.1616
   12MOL    C98 1880   1.046   0.988   2.683  0.6809  0.1359 -0.4084
   12MOL    C99 1881   0.937   1.012   2.580  0.2045 -0.3502 -0.1741
   12MOL   N100 1882   0.837   1.096   2.657 -0.0159  0.6853 -0.5285
   12MOL   H101 1883   1.009   0.965   2.783  0.1612  0.8779 -0.4242
   12MOL   H102 1884   1.094   1.083   2.707  1.1921 -0.7844  2.4768
   12MOL   H103 1885   0.884   0.927   2.537  0.4654 -0.9532  0.6921
   12MOL   H104 1886   0.783   1.034   2.716 -0.3297  2.3844  0.9941
   12MOL   H105 1887   0.768   1.140   2.597 -0.2066  0.5302 -0.4247
   12MOL   C106 1888   0.996   1.101   2.460 -0.4993  1.1620  0.5386
   12MOL   C107 1889   0.929   1.076   2.326  0.0975 -0.0468 -0.3430
   12MOL   N108 1890   0.786   1.122   2.354  0.0761  0.2243  0.1990
   12MOL   H109 1891   0.999   1.207   2.482 -2.2961  0.8134  2.6394
   12MOL   H110 1892   1.098   1.067   2.443 -1.2198 -0.7561 -0.0861
   12MOL   H111 1893   0.929   0.970   2.301 -0.4197 -0.6234  1.9495
   12MOL   H112 1894   0.732   1.047   2.394  3.3114 -2.3796 -0.1483
   12MOL   H113 1895   0.740   1.140   2.267  0.2739  1.8353  0.4120
   12MOL   C114 1896   0.992   1.145   2.208  0.0588 -0.4833 -0.3603
   12MOL   C115 1897   1.033   1.058   2.089 -0.0742 -0.3464 -0.5157
   12MOL   N116 1898   1.028   1.147   1.975  0.4895  0.8396  0.2208
   12MOL   H117 1899   0.919   1.218   2.172  0.8679 -0.1508 -1.3511
   12MOL   H118 1900   1.069   1.209   2.250 -1.2992  0.2521  1.0584
   12MOL   H119 1901   0.960   0.978   2.077  0.2672 -0.5615 -1.1630
   12MOL   H120 1902   1.069   1.094   1.899  1.7959  0.3227  1.2813
   12MOL   H121 1903   0.930   1.154   1.950  0.4940 -0.7717 -0.3410
   12MOL   C122 1904   1.172   0.997   2.085 -0.4745  0.3206 -0.0569
   12MOL   C123 1905   1.177   0.864   2.171 -0.0746  0.1747 -0.5798
   12MOL   N124 1906   1.107   0.753   2.103  0.1349 -0.1358  0.1253
   12MOL   H125 1907   1.211   0.975   1.985 -0.0578 -0.3420  0.2550
   12MOL   H126 1908   1.233   1.076   2.129  0.7983 -0.0451 -1.1376
   12MOL   H127 1909   1.134   0.861   2.272  0.2169 -1.0711 -0.4853
   12MOL   H128 1910   1.008   0.771   2.092  0.3393  1.0872  0.2655
   12MOL   H129 1911   1.139   0.727   2.011 -1.3260 -2.6534  0.2794
   12MOL   C130 1912   1.326   0.827   2.189  0.8379 -0.0248 -0.6044
   12MOL   C131 1913   1.393   0.854   2.330 -0.2963  0.9560  0.2230
   12MOL   N132 1914   1.369   0.737   2.415  0.0984 -0.1407  0.6172
   12MOL   H133 1915   1.330   0.720   2.167 -0.2747  0.1654 -1.7800
   12MOL   H134 1916   1.379   0.867   2.103 -1.6886 -3.0983 -3.7278
   12MOL   H135 1917   1.350   0.946   2.370  0.8989  1.3735  0.5683
   12MOL   H136 1918   1.343   0.763   2.509 -0.1070 -1.0631  0.8220
   12MOL   H137 1919   1.289   0.690   2.376 -0.2462 -1.0748  2.4027
   12MOL   C138 1920   1.543   0.857   2.315  0.2922  0.1077  0.4709
   12MOL   C139 1921   1.591   0.990   2.244  0.0543 -0.1460  0.7235
   12MOL   N140 1922   1.536   1.107   2.308  0.3668  0.2155 -0.2007
   12MOL   H141 1923   1.586   0.859   2.415  0.2616 -1.1699  0.5211
   12MOL   H142 1924   1.583   0.766   2.270 -3.0910 -1.5260  0.6252
   12MOL   H143 1925   1.556   0.994   2.141 -2.8375 -3.3705  1.4867
   12MOL   H144 1926   1.574   1.197   2.284 -1.1419  0.5293 -1.5020
   12MOL   H145 1927   1.442   1.112   2.272 -0.1473 -0.0513  1.0797
   12MOL   C146 1928   1.748   0.996   2.227  0.7120 -0.2385 -0.8521
   12MOL   C147 1929   1.796   0.903   2.111  0.1089 -0.1900 -0.2696
   12MOL   N148 1930   1.852   0.995   2.012 -0.7924 -0.6789  0.2030
   12MOL   H149 1931   1.778   1.100   2.214  0.5866 -0.1539 -0.4551
   12MOL   H150 1932   1.786   0.958   2.322  0.0843 -0.5998 -0.7376
   12MOL   H151 1933   1.717   0.837   2.075  0.4288 -0.0688 -1.2171
   12MOL   H152 1934   1.922   0.941   1.964  0.0535  0.8125 -0.2654
   12MOL   H153 1935   1.777   1.021   1.949 -0.7500  1.3063  0.9644
   12MOL   C154 1936   1.904   0.801   2.148 -0.0076 -0.1972  0.5178
   12MOL   C155 1937   1.851   0.682   2.222  0.5933  0.2301  0.2063
   12MOL   N156 1938   1.949   0.581   2.245 -0.0639  0.1855 -0.7573
   12MOL   H157 1939   1.935   0.762   2.051  1.4944  2.6322 -0.1695
   12MOL   H158 1940   1.992   0.844   2.195 -0.7169 -1.2244  2.9108
   12MOL   H159 1941   1.771   0.633   2.167  2.9609 -2.7144 -0.7559
   12MOL   H160 1942   1.904   0.501   2.287  2.1510 -0.4889  0.4345
   12MOL   H161 1943   1.982   0.546   2.156  0.6128  2.0902 -1.2793
   12MOL   H162 1944   1.810   0.718   2.316  0.2111 -0.4301  0.2961
   13MOL     C1 1945   0.500   2.819   4.464 -0.7782  0.1974 -0.5117
   13MOL     C2 1946   0.365   2.768   4.499 -0.6519  0.5810  0.1324
   13MOL     N3 1947   0.303   2.774   4.366 -0.4267  0.1337 -0.1937
   13MOL     H4 1948   0.565   2.745   4.418 -0.3508  0.8717 -0.9957
   13MOL     H5 1949   0.563   2.841   4.551 -0.5276  0.6582 -0.8097
   13MOL     H6 1950   0.312   2.833   4.567 -0.2784  0.0950  0.8920
   13MOL     H7 1951   0.217   2.720   4.375  0.2860 -0.7188  1.8628
   13MOL     H8 1952   0.268   2.869   4.369 -0.5063  0.1141 -0.5044
   13MOL     H9 1953   0.505   2.911   4.405 -0.4089  0.1401 -0.5693
   13MOL    C10 1954   0.364   2.620   4.552  0.4012  0.0317  0.1137
   13MOL    C11 1955   0.397   2.612   4.701 -0.1124 -0.4798  0.0792
   13MOL    N12 1956   0.286   2.665   4.778  0.1069  0.7859  0.3234
   13MOL    H13 1957   0.268   2.571   4.540  0.1329  0.8493 -1.2160
   13MOL    H14 1958   0.444   2.566   4.503 -0.0193 -0.9744  0.5228
   13MOL    H15 1959   0.483   2.679   4.708 -0.7215  0.2581  0.5318
   13MOL    H16 1960   0.260   2.596   4.848  1.7132  0.8053  0.9677
   13MOL    H17 1961   0.206   2.680   4.718 -1.8326  0.0191  2.6226
   13MOL    C18 1962   0.445   2.473   4.757  0.0653  0.2706  0.5218
   13MOL    C19 1963   0.576   2.422   4.701 -0.6514 -0.8025  0.3606
   13MOL    N20 1964   0.651   2.363   4.809  0.1261 -0.6837 -0.4308
   13MOL    H21 1965   0.455   2.489   4.864 -1.1626 -0.4001  0.7434
   13MOL    H22 1966   0.366   2.400   4.739 -0.0810  0.8320 -1.1986
   13MOL    H23 1967   0.632   2.508   4.664 -0.4232 -0.9737  0.3090
   13MOL    H24 1968   0.712   2.297   4.762 -1.5949 -2.8505  0.2669
   13MOL    H25 1969   0.711   2.431   4.854  1.1975 -1.1637 -1.1227
   13MOL    C26 1970   0.541   2.318   4.596  0.9103 -0.4282 -0.1435
   13MOL    C27 1971   0.666   2.263   4.531  0.4873  0.7752  0.3887
   13MOL    N28 1972   0.638   2.151   4.447 -0.1011 -0.1663 -0.0816
   13MOL    H29 1973   0.488   2.237   4.646 -0.2121  0.3861 -0.0059
   13MOL    H30 1974   0.477   2.361   4.520  1.7298 -0.4351 -0.8503
   13MOL    H31 1975   0.721   2.217   4.614 -1.5305 -3.3000 -0.3788
   13MOL    H32 1976   0.580   2.193   4.376  0.0203  0.1874  0.0277
   13MOL    H33 1977   0.718   2.132   4.388 -0.4302 -1.7469 -0.0440
   13MOL    C34 1978   0.738   2.363   4.450  0.0068  0.1360 -0.7243
   13MOL    C35 1979   0.870   2.412   4.504 -0.8057  0.3153 -0.3591
   13MOL    N36 1980   0.959   2.299   4.499  0.4560  0.9104 -0.1250
   13MOL    H37 1981   0.754   2.328   4.348 -0.4391  0.7935 -1.0209
   13MOL    H38 1982   0.668   2.446   4.443 -0.2925  0.0840  1.2344
   13MOL    H39 1983   0.854   2.432   4.610 -0.9631 -0.4623 -0.2314
   13MOL    H40 1984   0.922   2.209   4.527  0.4077 -0.7358 -4.9760
   13MOL    H41 1985   1.044   2.309   4.552  1.2706 -1.2741 -0.9745
   13MOL    C42 1986   0.933   2.531   4.429 -0.1768  0.8347 -0.0434
   13MOL    C43 1987   0.836   2.653   4.419 -0.1550  0.3638  0.2850
   13MOL    N44 1988   0.834   2.714   4.551 -0.2246 -0.2476 -0.2156
   13MOL    H45 1989   1.032   2.566   4.460  0.7965 -0.1511 -1.9212
   13MOL    H46 1990   0.957   2.503   4.326 -1.5015  2.6712 -0.8637
   13MOL    H47 1991   0.737   2.632   4.378 -0.7353  1.7885  0.9297
   13MOL    H48 1992   0.781   2.800   4.547  2.2460  1.2432 -3.0116
   13MOL    H49 1993   0.928   2.739   4.581 -0.0865  1.1939 -1.8173
   13MOL    C50 1994   0.900   2.742   4.312 -0.4841  0.1555 -0.6797
   13MOL    C51 1995   0.878   2.700   4.168  0.2318  0.4551  0.0442
   13MOL    N52 1996   0.794   2.804   4.113  0.5964 -0.6605 -0.3254
   13MOL    H53 1997   0.862   2.843   4.328  1.0694  0.1116  3.8031
   13MOL    H54 1998   1.005   2.739   4.341 -0.8760 -1.1209  0.6838
   13MOL    H55 1999   0.831   2.602   4.154 -0.0453  0.7336 -0.9676
   13MOL    H56 2000   0.777   2.784   4.015 -1.8849  1.4196 -0.3550
   13MOL    H57 2001   0.703   2.788   4.152  0.9486  0.2015  0.8665
   13MOL    C58 2002   1.018   2.692   4.094  0.6406 -1.1607 -0.0959
   13MOL    C59 2003   1.026   2.609   3.963  0.7685  0.1457 -0.1653
   13MOL    N60 2004   1.021   2.696   3.848 -0.3222  0.2420 -0.3381
   13MOL    H61 2005   1.063   2.791   4.086 -2.1905  0.1865  0.1387
   13MOL    H62 2006   1.077   2.637   4.167  0.3068 -0.5028  0.6685
   13MOL    H63 2007   0.944   2.537   3.969  0.8968  0.0046 -0.0902
   13MOL    H64 2008   1.110   2.742   3.836  1.1469 -1.3577  3.6797
   13MOL    H65 2009   1.025   2.641   3.764  2.7075  1.3704 -1.0027
   13MOL    C66 2010   1.161   2.530   3.962  1.0179  0.4748  0.0276
   13MOL    C67 2011   1.141   2.375   3.964 -0.0182 -0.2357 -0.5038
   13MOL    N68 2012   1.272   2.331   3.929  0.5324  0.1461 -0.1109
   13MOL    H69 2013   1.205   2.568   3.870 -2.0274  1.6673 -0.9888
   13MOL    H70 2014   1.233   2.551   4.041  1.4188 -0.3253 -0.1201
   13MOL    H71 2015   1.088   2.338   3.876  0.9067 -3.8605  0.3794
   13MOL    H72 2016   1.290   2.370   3.838 -1.9428 -0.4381 -0.8991
   13MOL    H73 2017   1.282   2.231   3.913  0.2699  0.4417 -2.2751
   13MOL    C74 2018   1.096   2.323   4.107  0.0586 -0.0030  0.0948
   13MOL    C75 2019   1.062   2.175   4.126 -0.4998 -0.1381 -0.0612
   13MOL    N76 2020   1.091   2.149   4.263  0.4052  0.2130  0.3981
   13MOL    H77 2021   1.176   2.351   4.175  0.0648  3.8150 -1.3592
   13MOL    H78 2022   1.013   2.384   4.143  1.4489  1.2450  1.2974
   13MOL    H79 2023   1.141   2.114   4.082  0.3248  0.8150  0.0834
   13MOL    H80 2024   1.015   2.158   4.328  0.3413 -1.3905  0.5643
   13MOL    H81 2025   1.166   2.207   4.297 -0.4594  1.0181  0.9362
   13MOL    C82 2026   0.915   2.127   4.093  0.3690  0.1256 -0.3263
   13MOL    C83 2027   0.869   2.129   3.946  0.1098 -0.2044 -0.0340
   13MOL    N84 2028   0.955   2.035   3.877  0.2187  0.3152  0.0885
   13MOL    H85 2029   0.892   2.032   4.139 -0.7319  0.0552 -0.9974
   13MOL    H86 2030   0.846   2.203   4.128  0.4400  0.1868 -0.3189
   13MOL    H87 2031   0.882   2.225   3.896 -1.1626 -0.0442 -0.0819
   13MOL    H88 2032   0.931   2.031   3.779 -1.7290 -2.8830  0.6248
   13MOL    H89 2033   1.048   2.074   3.866 -0.3050  1.4343 -0.4510
   13MOL    C90 2034   0.722   2.077   3.916 -0.0528  0.2481 -0.1613
   13MOL    C91 2035   0.610   2.168   3.948  0.3570  0.2650  0.0154
   13MOL    N92 2036   0.490   2.140   3.861 -0.1075  0.2012  0.0496
   13MOL    H93 2037   0.703   2.060   3.810 -0.4754  1.1279 -0.2292
   13MOL    H94 2038   0.709   1.978   3.960 -0.0481  0.0250 -0.6614
   13MOL    H95 2039   0.640   2.268   3.919  0.9265 -0.0417 -0.4607
   13MOL    H96 2040   0.488   2.192   3.774  1.3170  1.0750  0.5334
   13MOL    H97 2041   0.412   2.180   3.910  2.0712  2.1545  1.9855
   13MOL    C98 2042   0.566   2.180   4.095 -0.5746 -0.3464  0.2179
   13MOL    C99 2043   0.467   2.288   4.134 -0.9691  0.4118  0.0749
   13MOL   N100 2044   0.438   2.258   4.270  0.5853  0.6057 -0.1053
   13MOL   H101 2045   0.536   2.079   4.124 -1.2682 -0.0847  0.4351
   13MOL   H102 2046   0.650   2.190   4.164 -0.0793 -0.1467 -0.4208
   13MOL   H103 2047   0.377   2.289   4.072 -0.3297 -1.6250 -0.9455
   13MOL   H104 2048   0.337   2.251   4.273  0.2964  1.9681 -3.8861
   13MOL   H105 2049   0.463   2.343   4.318 -1.3385  0.9730  0.2980
   13MOL   C106 2050   0.527   2.430   4.126 -0.6544  0.4336  0.3292
   13MOL   C107 2051   0.415   2.539   4.123  0.0400 -0.8361 -0.4076
   13MOL   N108 2052   0.473   2.665   4.162  1.0363 -0.2326  0.2346
   13MOL   H109 2053   0.599   2.460   4.202  1.1670 -2.4461 -0.1727
   13MOL   H110 2054   0.573   2.431   4.027  0.0159 -0.1616  0.6298
   13MOL   H111 2055   0.332   2.507   4.187 -2.1064  0.1297 -2.6352
   13MOL   H112 2056   0.414   2.713   4.229  1.8145  0.2237  0.5987
   13MOL   H113 2057   0.481   2.718   4.076  0.1129 -1.3242 -0.5378
   13MOL   C114 2058   0.362   2.560   3.984  0.4818 -0.2778  0.4312
   13MOL   C115 2059   0.222   2.611   3.982  0.0710  0.3314  0.0100
   13MOL   N116 2060   0.178   2.668   3.856 -0.2548  0.2858  0.4196
   13MOL   H117 2061   0.432   2.621   3.927  1.1886  1.1433  2.7344
   13MOL   H118 2062   0.353   2.465   3.931 -0.0781 -0.3650  0.6796
   13MOL   H119 2063   0.228   2.690   4.057  0.5575  1.2569 -0.9870
   13MOL   H120 2064   0.163   2.599   3.783 -0.1360 -0.3056  0.9480
   13MOL   H121 2065   0.089   2.713   3.870 -0.2249  0.6472 -0.5058
   13MOL   C122 2066   0.120   2.502   4.012  0.3679  0.4974 -0.8131
   13MOL   C123 2067   7.252   2.532   4.063 -0.7058  0.3941  0.7535
   13MOL   N124 2068   7.193   2.398   4.063 -0.0029 -0.2430  0.2061
   13MOL   H125 2069   0.117   2.446   3.919  1.5000 -2.3264  0.7968
   13MOL   H126 2070   0.159   2.428   4.081  0.3478 -0.8060 -2.1778
   13MOL   H127 2071   7.203   2.595   3.988  2.7581  0.2781 -1.7187
   13MOL   H128 2072   7.096   2.398   4.034  0.0854 -1.0378 -0.0916
   13MOL   H129 2073   7.248   2.334   4.008  0.3095 -1.9157  2.3740
   13MOL   C130 2074   7.263   2.588   4.202 -0.2502  0.3332  0.0827
   13MOL   C131 2075   7.186   2.717   4.224  0.1587  0.1563 -0.2855
   13MOL   N132 2076   7.156   2.719   4.367  0.3077  0.3340  0.4155
   13MOL   H133 2077   7.213   2.507   4.256  0.9658 -1.7209 -1.7648
   13MOL   H134 2078   0.089   2.599   4.241 -0.6014 -2.1981  1.8105
   13MOL   H135 2079   7.095   2.717   4.165  0.2159  1.5093 -0.4004
   13MOL   H136 2080   7.092   2.643   4.386  1.4796 -0.7842  0.0308
   13MOL   H137 2081   7.104   2.805   4.366  0.2114  0.2740  0.0596
   13MOL   C138 2082   7.262   2.846   4.182  0.1824  0.1028  0.0679
   13MOL   C139 2083   7.170   2.967   4.178 -0.1919  0.1522  0.7394
   13MOL   N140 2084   7.121   3.003   4.306 -0.3413 -0.0492  0.4979
   13MOL   H141 2085   0.075   2.874   4.238  0.2450  1.5094 -0.7300
   13MOL   H142 2086   0.015   2.844   4.077 -1.7350  0.5166 -0.4842
   13MOL   H143 2087   7.092   2.951   4.104  1.2599  1.7652 -1.2183
   13MOL   H144 2088   7.144   3.098   4.334  0.5079  0.4373 -1.7627
   13MOL   H145 2089   7.021   3.004   4.292  0.1262  0.6529 -3.3558
   13MOL   C146 2090   7.235   3.105   4.128  0.0278  0.4598 -1.2159
   13MOL   C147 2091   7.263   3.121   3.980 -0.8268 -0.5102  1.0515
   13MOL   N148 2092   7.203   3.243   3.930 -0.1116 -0.2580 -0.2074
   13MOL   H149 2093   7.186   3.197   4.160  0.5743  0.8825 -1.5616
   13MOL   H150 2094   0.055   3.128   4.177  0.7672  1.1110 -2.9229
   13MOL   H151 2095   7.229   3.038   3.919  0.0359  0.7213 -1.1515
   13MOL   H152 2096   7.103   3.243   3.940 -0.2475 -1.6365 -1.5018
   13MOL   H153 2097   7.224   3.320   3.992 -0.6508 -0.3919  0.1416
   13MOL   C154 2098   0.138   3.125   3.937 -0.6363 -0.0677  0.2454
   13MOL   C155 2099   0.197   2.989   3.931  0.6413  0.2506  0.1186
   13MOL   N156 2100   0.337   2.987   3.879 -0.5423 -0.3601 -0.6266
   13MOL   H157 2101   0.139   3.148   3.831 -1.3281 -1.8384 -0.1506
   13MOL   H158 2102   0.197   3.199   3.992  0.6054 -0.8467 -0.0244
   13MOL   H159 2103   0.132   2.931   3.866  0.5134  1.7523 -1.1268
   13MOL   H160 2104   0.398   3.022   3.952 -0.7032  2.0169 -1.5777
   13MOL   H161 2105   0.363   2.890   3.884  0.7238  0.0538  1.2066
   13MOL   H162 2106   0.215   2.935   4.024 -0.7954 -0.6252 -0.0970
   14MOL     C1 2107   1.783   3.075   1.320  0.1867  0.2544  0.1867
   14MOL     C2 2108   1.752   2.954   1.410  0.0476  0.1832  0.7314
   14MOL     N3 2109   1.872   2.868   1.397 -0.5333 -0.7198 -0.1397
   14MOL     H4 2110   1.827   3.050   1.223 -2.3296  0.2963 -1.0037
   14MOL     H5 2111   1.862   3.135   1.366 -0.6902  1.2917  0.3815
   14MOL     H6 2112   1.658   2.910   1.379 -0.4991  0.8470  1.4443
   14MOL     H7 2113   1.907   2.870   1.492 -1.4216  2.8243  0.2019
   14MOL     H8 2114   1.829   2.779   1.375 -0.7703 -0.6426  0.0040
   14MOL     H9 2115   1.690   3.131   1.311 -1.0427 -1.5167  1.6950
   14MOL    C10 2116   1.746   3.001   1.555 -0.5757  0.5804 -0.7247
   14MOL    C11 2117   1.675   2.906   1.656  0.6541  0.2584 -0.7525
   14MOL    N12 2118   1.758   2.908   1.778 -0.0454 -0.0580 -0.4472
   14MOL    H13 2119   1.849   3.023   1.585 -0.3868 -0.4164 -0.6443
   14MOL    H14 2120   1.703   3.101   1.556  0.6541  1.1237 -0.0325
   14MOL    H15 2121   1.660   2.803   1.623  2.5339 -0.1249 -0.4599
   14MOL    H16 2122   1.730   2.818   1.814  0.0239 -0.0154 -0.2843
   14MOL    H17 2123   1.854   2.899   1.748  0.3630 -0.1368  0.8229
   14MOL    C18 2124   1.539   2.972   1.696  0.0050  0.3529 -0.6689
   14MOL    C19 2125   1.445   2.866   1.756  0.1149  0.2969 -0.3938
   14MOL    N20 2126   1.339   2.918   1.840 -0.3405  0.4576 -0.4525
   14MOL    H21 2127   1.541   3.060   1.760 -0.9626 -0.6360  0.7516
   14MOL    H22 2128   1.484   3.007   1.608 -0.1413 -3.9911 -2.4411
   14MOL    H23 2129   1.498   2.817   1.838  0.1885 -0.3558 -0.8279
   14MOL    H24 2130   1.386   2.968   1.914  1.4942 -0.4685 -0.9529
   14MOL    H25 2131   1.295   2.988   1.783  0.2349  2.0206  0.9787
   14MOL    C26 2132   1.399   2.745   1.668 -0.4755 -0.2439  0.4140
   14MOL    C27 2133   1.364   2.784   1.524  0.3422  0.3397 -0.4764
   14MOL    N28 2134   1.335   2.665   1.446 -0.3461 -0.0002  0.0097
   14MOL    H29 2135   1.473   2.666   1.669 -0.4089 -0.1981 -0.3686
   14MOL    H30 2136   1.307   2.713   1.716  0.1694  1.3980  2.8719
   14MOL    H31 2137   1.445   2.837   1.473  1.0440 -1.5063 -1.3192
   14MOL    H32 2138   1.314   2.692   1.351 -1.8099 -0.5224  0.1664
   14MOL    H33 2139   1.251   2.614   1.469 -1.7090  1.5624 -1.3754
   14MOL    C34 2140   1.245   2.879   1.517 -0.1622 -0.5775  0.1355
   14MOL    C35 2141   1.222   2.942   1.379 -0.2610 -0.4970 -0.0040
   14MOL    N36 2142   1.097   3.010   1.400 -0.2187 -0.2199 -0.8436
   14MOL    H37 2143   1.151   2.837   1.553 -0.9087  2.7676  2.3283
   14MOL    H38 2144   1.260   2.952   1.596 -1.5586  0.0498 -0.1529
   14MOL    H39 2145   1.213   2.861   1.305  1.4208  0.7462 -1.6427
   14MOL    H40 2146   1.023   2.942   1.412 -1.2247  1.1451  0.8494
   14MOL    H41 2147   1.066   3.057   1.316 -0.2234  1.3629  0.0287
   14MOL    C42 2148   1.329   3.042   1.342 -0.0142 -0.0609  0.0170
   14MOL    C43 2149   1.364   3.044   1.195 -0.0495  0.8568  0.5240
   14MOL    N44 2150   1.446   3.163   1.167  0.1024 -0.6795 -0.1997
   14MOL    H45 2151   1.313   3.140   1.388  0.4727 -0.2240  0.5428
   14MOL    H46 2152   1.419   3.018   1.398  0.6917  0.2413 -0.9701
   14MOL    H47 2153   1.273   3.047   1.135 -0.9127  0.5634  1.8061
   14MOL    H48 2154   1.441   3.207   1.076 -2.8198 -1.5562 -0.4995
   14MOL    H49 2155   1.541   3.135   1.187  0.0789 -0.8275 -0.3016
   14MOL    C50 2156   1.446   2.922   1.143 -0.2915  0.3151  0.1577
   14MOL    C51 2157   1.490   2.903   1.000 -0.5470 -0.4389  0.3856
   14MOL    N52 2158   1.614   2.831   0.991 -0.1828 -0.4233 -0.3584
   14MOL    H53 2159   1.538   2.912   1.200 -1.0181 -1.4446  1.0637
   14MOL    H54 2160   1.393   2.832   1.171 -1.6520  1.1908  0.4496
   14MOL    H55 2161   1.509   2.998   0.950  0.9833 -0.2136  1.3448
   14MOL    H56 2162   1.648   2.856   0.899  0.8710 -2.0850 -0.4409
   14MOL    H57 2163   1.680   2.872   1.055 -0.4341 -0.9199  0.2274
   14MOL    C58 2164   1.397   2.814   0.914  0.2156  0.0913 -0.2282
   14MOL    C59 2165   1.273   2.881   0.859  0.2412 -0.4286 -0.2088
   14MOL    N60 2166   1.332   2.979   0.761 -0.2532  0.0936 -0.1425
   14MOL    H61 2167   1.453   2.765   0.835 -0.9336  0.9246 -1.5982
   14MOL    H62 2168   1.365   2.735   0.981  0.0283  0.1129 -0.2889
   14MOL    H63 2169   1.213   2.933   0.933 -1.4861  0.1726 -1.9862
   14MOL    H64 2170   1.391   2.946   0.686  2.5594  0.6155  1.7300
   14MOL    H65 2171   1.249   3.022   0.723  0.0991  0.7632 -0.1744
   14MOL    C66 2172   1.190   2.769   0.792  0.9652  0.0882  0.0090
   14MOL    C67 2173   1.111   2.686   0.904 -0.2667 -0.5741 -0.0855
   14MOL    N68 2174   0.969   2.726   0.893 -0.3188  0.1237 -0.2323
   14MOL    H69 2175   1.115   2.811   0.725  0.2587  0.4114  0.9804
   14MOL    H70 2176   1.249   2.703   0.729 -0.0384 -1.9201  1.1091
   14MOL    H71 2177   1.152   2.694   1.004 -1.7462 -1.3621  0.5965
   14MOL    H72 2178   0.937   2.718   0.798  0.6801 -1.0589 -0.4800
   14MOL    H73 2179   0.920   2.654   0.944 -1.8643  0.9457 -0.5323
   14MOL    C74 2180   1.102   2.529   0.873 -0.1941 -1.0547  0.2912
   14MOL    C75 2181   1.226   2.448   0.921 -0.9283 -0.6777 -0.1535
   14MOL    N76 2182   1.188   2.377   1.036 -0.3591  0.6155 -0.5235
   14MOL    H77 2183   1.011   2.483   0.912 -0.1523 -0.2172  1.3853
   14MOL    H78 2184   1.086   2.521   0.766 -0.7971 -0.0452  0.3050
   14MOL    H79 2185   1.302   2.521   0.950 -1.9038  2.1548 -4.3231
   14MOL    H80 2186   1.197   2.441   1.114  3.1988  1.4403 -1.5416
   14MOL    H81 2187   1.270   2.323   1.059 -0.7937 -0.7575 -2.1172
   14MOL    C82 2188   1.289   2.342   0.828 -0.6717 -0.6392  0.7043
   14MOL    C83 2189   1.340   2.398   0.691 -0.2810 -0.4412  0.3647
   14MOL    N84 2190   1.467   2.459   0.719 -0.4014 -0.2036 -0.7129
   14MOL    H85 2191   1.351   2.272   0.883 -0.7864 -1.8859 -0.7467
   14MOL    H86 2192   1.212   2.267   0.805 -0.1045 -1.1495  0.4671
   14MOL    H87 2193   1.270   2.475   0.656  2.4044  1.7663 -0.3379
   14MOL    H88 2194   1.543   2.393   0.729  1.2016  1.6574 -0.4977
   14MOL    H89 2195   1.501   2.524   0.651  0.3021 -0.2804 -0.4391
   14MOL    C90 2196   1.354   2.298   0.581 -0.8686  0.2410  0.4526
   14MOL    C91 2197   1.218   2.277   0.502 -0.5112  0.2613 -0.2791
   14MOL    N92 2198   1.185   2.402   0.445  0.4874  0.3526  0.5098
   14MOL    H93 2199   1.435   2.327   0.513 -0.1536  0.1302  1.2583
   14MOL    H94 2200   1.388   2.208   0.632 -0.8599  1.0261  1.8637
   14MOL    H95 2201   1.127   2.255   0.557  0.5050 -0.2161  1.2384
   14MOL    H96 2202   1.087   2.398   0.420 -0.4076 -0.0250  3.8631
   14MOL    H97 2203   1.187   2.461   0.527 -1.7531 -2.8744  3.0204
   14MOL    C98 2204   1.229   2.186   0.378 -0.2736 -0.0829 -0.5350
   14MOL    C99 2205   1.217   2.040   0.416 -0.2019  0.1670 -0.1736
   14MOL   N100 2206   1.080   2.011   0.456 -0.1330  0.0270 -0.0660
   14MOL   H101 2207   1.152   2.214   0.305 -0.9315  1.3393  0.6808
   14MOL   H102 2208   1.320   2.219   0.328 -0.4773  0.2735 -0.6749
   14MOL   H103 2209   1.269   2.032   0.512  0.1232 -1.1145 -0.4535
   14MOL   H104 2210   1.083   1.981   0.552  1.0009  0.5845  0.0805
   14MOL   H105 2211   1.027   2.097   0.464 -1.0141 -0.2468 -2.6549
   14MOL   C106 2212   1.268   1.938   0.301 -0.4467 -0.5307  0.1156
   14MOL   C107 2213   1.422   1.904   0.315 -0.0917 -0.7758 -0.4434
   14MOL   N108 2214   1.443   1.774   0.255  0.4723  0.6891  0.8531
   14MOL   H109 2215   1.229   1.839   0.325  0.8381 -1.1150 -0.2223
   14MOL   H110 2216   1.233   1.966   0.202  2.0899 -0.8217 -0.8956
   14MOL   H111 2217   1.440   1.889   0.421 -1.5678 -0.2628 -0.1183
   14MOL   H112 2218   1.432   1.709   0.332  1.0071 -1.6844 -1.0111
   14MOL   H113 2219   1.540   1.757   0.236  0.0121 -0.5323 -0.5056
   14MOL   C114 2220   1.522   2.005   0.256 -0.4693  0.0743  0.0862
   14MOL   C115 2221   1.660   2.011   0.331 -0.3182  0.1510  0.1403
   14MOL   N116 2222   1.749   2.062   0.235 -0.5739 -0.0316  0.0499
   14MOL   H117 2223   1.521   1.998   0.147 -0.6668  1.7243 -0.0259
   14MOL   H118 2224   1.471   2.099   0.276 -1.3033 -0.4395  0.3767
   14MOL   H119 2225   1.692   1.911   0.361 -1.8385 -0.3020  0.3151
   14MOL   H120 2226   1.818   2.116   0.285 -0.0856 -0.2332 -0.3998
   14MOL   H121 2227   1.794   1.986   0.186 -2.4828  0.9867 -3.4338
   14MOL   C122 2228   1.653   2.096   0.450  0.1686  0.0807 -0.0632
   14MOL   C123 2229   1.777   2.096   0.544 -0.1856  0.2217  0.1749
   14MOL   N124 2230   1.862   2.198   0.486 -0.2143  0.2499  0.8539
   14MOL   H125 2231   1.628   2.200   0.430  0.8270  0.2457 -0.0416
   14MOL   H126 2232   1.569   2.056   0.508  0.0665 -0.2698 -0.4500
   14MOL   H127 2233   1.830   2.002   0.530  1.5712  0.9421  1.7765
   14MOL   H128 2234   1.949   2.207   0.537 -0.5482  1.6384  1.2126
   14MOL   H129 2235   1.817   2.285   0.511  0.5260  1.2628 -1.2127
   14MOL   C130 2236   1.756   2.130   0.690  0.7272 -0.1691 -0.3164
   14MOL   C131 2237   1.683   2.012   0.760  0.2955 -0.1544 -0.1349
   14MOL   N132 2238   1.781   1.917   0.809 -0.3226 -0.0434 -0.7156
   14MOL   H133 2239   1.853   2.146   0.737  0.6763  0.5360 -0.4383
   14MOL   H134 2240   1.699   2.223   0.696  2.9199  1.1813  0.1340
   14MOL   H135 2241   1.620   1.960   0.688 -2.4644 -0.7436  2.6011
   14MOL   H136 2242   1.821   1.944   0.898  1.6858 -2.1140 -0.9136
   14MOL   H137 2243   1.856   1.911   0.741 -0.8826 -1.1930 -1.2506
   14MOL   C138 2244   1.592   2.057   0.875  0.0193 -0.3380  0.0537
   14MOL   C139 2245   1.470   1.966   0.920 -0.5318  0.4558 -0.1316
   14MOL   N140 2246   1.401   2.030   1.027 -0.3389  1.1300  0.2400
   14MOL   H141 2247   1.650   2.072   0.966  1.0391 -1.1214 -0.4544
   14MOL   H142 2248   1.562   2.160   0.857  0.7022 -0.4845 -2.0409
   14MOL   H143 2249   1.493   1.870   0.966  1.5912  0.7897 -0.4245
   14MOL   H144 2250   1.324   1.969   1.053 -0.3113  1.5691  1.3544
   14MOL   H145 2251   1.455   2.053   1.109 -1.6441 -1.4816  1.8966
   14MOL   C146 2252   1.363   1.957   0.808  0.5767  0.2426 -0.1689
   14MOL   C147 2253   1.304   1.815   0.792 -0.0993 -0.1035 -0.0409
   14MOL   N148 2254   1.180   1.820   0.721 -0.0209 -0.2265 -0.3463
   14MOL   H149 2255   1.289   2.037   0.820  0.3536 -0.3493  2.8971
   14MOL   H150 2256   1.416   1.982   0.716 -3.0950 -1.5054 -2.9193
   14MOL   H151 2257   1.291   1.773   0.891 -2.5216  3.0770  1.0869
   14MOL   H152 2258   1.108   1.843   0.788 -1.1190 -2.4696 -0.7175
   14MOL   H153 2259   1.169   1.723   0.694  2.3898 -0.4890 -0.5358
   14MOL   C154 2260   1.388   1.719   0.704 -0.3526 -1.6147  0.1643
   14MOL   C155 2261   1.506   1.649   0.777  0.2770 -0.7786 -0.0926
   14MOL   N156 2262   1.561   1.523   0.718  0.3839  0.0868  0.3713
   14MOL   H157 2263   1.318   1.649   0.659 -1.0840 -1.2034  0.6506
   14MOL   H158 2264   1.425   1.762   0.610 -1.2395 -2.2954 -0.5088
   14MOL   H159 2265   1.494   1.642   0.885 -0.0154 -0.3197 -0.0974
   14MOL   H160 2266   1.642   1.496   0.772  1.5108  0.8543 -0.9040
   14MOL   H161 2267   1.604   1.548   0.630 -2.5213  2.5932 -0.4293
   14MOL   H162 2268   1.590   1.719   0.781  0.8785 -1.5970  2.6862
   15MOL     C1 2269   0.113   5.968   3.862 -0.1473  0.0349 -0.2484
   15MOL     C2 2270   0.203   5.859   3.915 -0.2312 -0.8963 -0.3261
   15MOL     N3 2271   0.269   5.897   4.042 -0.4199 -0.2845 -0.2306
   15MOL     H4 2272   0.180   6.047   3.830  1.3638 -0.6084  1.2245
   15MOL     H5 2273   0.039   6.002   3.935  0.9388  1.8698  0.0181
   15MOL     H6 2274   0.286   5.844   3.846 -1.7780 -0.5520 -2.3366
   15MOL     H7 2275   0.354   5.845   4.057 -0.2798 -0.0227 -0.0974
   15MOL     H8 2276   0.213   5.866   4.121 -0.9927  0.8582 -0.1708
   15MOL     H9 2277   0.055   5.936   3.775  0.2850 -1.3511 -0.0409
   15MOL    C10 2278   0.137   5.723   3.939 -1.0520 -0.2835 -0.4771
   15MOL    C11 2279   0.087   5.647   3.819  0.4352 -0.1418 -0.4464
   15MOL    N12 2280   0.203   5.588   3.753 -0.5564  0.5739 -0.0424
   15MOL    H13 2281   0.209   5.661   3.994 -1.4472  0.4383  0.8626
   15MOL    H14 2282   0.054   5.737   4.008  0.3413 -0.7386  1.3410
   15MOL    H15 2283   0.037   5.709   3.744  0.1498  0.3714  0.1641
   15MOL    H16 2284   0.162   5.550   3.669 -2.5967  0.4139  1.0072
   15MOL    H17 2285   0.271   5.660   3.730 -0.0032  0.6132  1.6174
   15MOL    C18 2286   7.272   5.531   3.858  0.1452  0.8449  0.3520
   15MOL    C19 2287   7.137   5.575   3.898  0.0522  0.2544  1.0712
   15MOL    N20 2288   7.065   5.628   3.777 -0.4313 -0.4162 -0.0879
   15MOL    H21 2289   0.001   5.467   3.769 -1.4537  1.6411 -0.3395
   15MOL    H22 2290   0.038   5.483   3.946 -0.0001 -2.5570 -1.3504
   15MOL    H23 2291   7.133   5.649   3.978  1.3767 -0.0427  1.4243
   15MOL    H24 2292   7.084   5.722   3.745 -0.5666 -0.5581 -0.5898
   15MOL    H25 2293   6.965   5.630   3.790 -0.2183  0.7354  1.7001
   15MOL    C26 2294   7.055   5.454   3.948 -0.3076  0.1768  0.3978
   15MOL    C27 2295   7.079   5.419   4.098 -0.0303  0.0215 -0.4167
   15MOL    N28 2296   6.953   5.423   4.176  0.0060 -0.1977  0.1833
   15MOL    H29 2297   6.949   5.469   3.933 -0.5038 -2.5657 -1.3098
   15MOL    H30 2298   7.077   5.365   3.889  0.3143 -0.6547  1.8410
   15MOL    H31 2299   7.152   5.490   4.136  0.8738 -1.8310  1.4685
   15MOL    H32 2300   6.962   5.511   4.225  3.1286  0.2895 -1.1306
   15MOL    H33 2301   6.972   5.359   4.252  0.0881  0.6671  0.8863
   15MOL    C34 2302   7.136   5.280   4.118  0.5675  0.0724 -0.3421
   15MOL    C35 2303   7.230   5.265   4.244  0.0794 -0.3101 -0.0566
   15MOL    N36 2304   7.269   5.125   4.247  0.2311  0.2905 -0.3425
   15MOL    H37 2305   7.049   5.214   4.120  1.4498 -1.1362 -0.9909
   15MOL    H38 2306   7.190   5.245   4.030 -0.3727  0.1094 -0.9459
   15MOL    H39 2307   7.171   5.292   4.331 -1.9327  0.2066 -1.5389
   15MOL    H40 2308   0.059   5.126   4.325  1.0247  0.7456 -1.0039
   15MOL    H41 2309   7.188   5.076   4.280 -0.4795  0.6272 -1.5594
   15MOL    C42 2310   0.076   5.350   4.237 -0.4390  0.0328  0.1231
   15MOL    C43 2311   0.196   5.315   4.333  0.5126  0.3887  0.5734
   15MOL    N44 2312   0.314   5.390   4.292 -0.8004  0.4897  0.2422
   15MOL    H45 2313   0.113   5.369   4.136  1.9289  1.3672  1.2112
   15MOL    H46 2314   0.049   5.454   4.253  1.0665  0.7025 -1.5177
   15MOL    H47 2315   0.216   5.209   4.316 -0.8738  0.3152 -0.7512
   15MOL    H48 2316   0.346   5.374   4.198  0.7942  2.1548  0.4796
   15MOL    H49 2317   0.392   5.362   4.351  0.2493 -0.0200 -1.3532
   15MOL    C50 2318   0.166   5.349   4.483  0.3278 -0.1638  0.3628
   15MOL    C51 2319   0.098   5.237   4.575 -0.6030 -0.3948 -0.1482
   15MOL    N52 2320   0.205   5.142   4.604 -0.3512 -0.4237 -1.1919
   15MOL    H53 2321   0.257   5.386   4.531  0.0440  1.0304 -0.0161
   15MOL    H54 2322   0.103   5.437   4.490 -1.6967 -1.4753 -0.7077
   15MOL    H55 2323   0.015   5.192   4.520 -0.8714 -0.2834  0.1682
   15MOL    H56 2324   0.273   5.185   4.666 -0.3669 -1.5151 -0.4133
   15MOL    H57 2325   0.163   5.079   4.670 -0.1855  1.1989  0.5101
   15MOL    C58 2326   0.049   5.310   4.709  0.0642  0.3984  0.6302
   15MOL    C59 2327   7.266   5.209   4.809  0.3986 -0.2936  0.4302
   15MOL    N60 2328   7.248   5.293   4.928  0.0089  0.3980 -0.1328
   15MOL    H61 2329   0.135   5.362   4.752  1.1766 -0.9089  0.0029
   15MOL    H62 2330   7.260   5.392   4.677  0.6026  1.0860  1.2557
   15MOL    H63 2331   0.070   5.138   4.832  1.0525 -0.0530 -0.9967
   15MOL    H64 2332   0.064   5.303   4.968 -0.3371 -0.3309  0.8540
   15MOL    H65 2333   7.197   5.238   4.996  1.1821 -3.0632 -1.9262
   15MOL    C66 2334   7.130   5.150   4.776 -0.3035 -0.1858  0.4468
   15MOL    C67 2335   7.076   5.032   4.861  0.3504 -0.2641 -0.2762
   15MOL    N68 2336   6.934   5.042   4.890  0.1114 -0.0269 -0.4610
   15MOL    H69 2337   7.060   5.234   4.774  1.0402  0.9593  0.6030
   15MOL    H70 2338   7.129   5.123   4.671 -0.4090  1.0550  0.1192
   15MOL    H71 2339   7.124   5.047   4.957 -0.2206 -0.1117 -0.0135
   15MOL    H72 2340   6.908   4.981   4.966  0.9085 -1.1019 -1.0324
   15MOL    H73 2341   6.927   5.136   4.925  0.8226 -0.4410  0.8635
   15MOL    C74 2342   7.103   4.887   4.807  0.5946  0.0274  0.1994
   15MOL    C75 2343   7.248   4.857   4.764  1.1638  0.0715 -0.6228
   15MOL    N76 2344   0.064   4.865   4.876  0.1634 -0.4904 -0.0661
   15MOL    H77 2345   7.062   4.811   4.874 -1.2507 -0.6431 -1.6323
   15MOL    H78 2346   7.036   4.876   4.722 -0.0013  0.9692  0.5407
   15MOL    H79 2347   7.266   4.930   4.685 -1.0328  3.6648  2.0687
   15MOL    H80 2348   0.160   4.869   4.846 -0.3724  0.3037 -1.6674
   15MOL    H81 2349   0.061   4.775   4.923  0.5087 -0.9425 -0.8903
   15MOL    C82 2350   7.257   4.725   4.694 -0.1995  0.6649 -0.1091
   15MOL    C83 2351   0.095   4.724   4.588 -0.1661 -0.0548 -0.9690
   15MOL    N84 2352   0.114   4.582   4.561  0.2982  0.3607 -0.5663
   15MOL    H85 2353   0.000   4.653   4.773 -1.2340  0.2405 -0.2384
   15MOL    H86 2354   7.164   4.701   4.642  0.2957  0.8032 -1.0740
   15MOL    H87 2355   0.192   4.762   4.619 -0.0278 -0.0096 -1.4460
   15MOL    H88 2356   0.153   4.529   4.638  1.3248  0.9232 -0.6855
   15MOL    H89 2357   0.184   4.573   4.488  1.6627 -0.8774  0.8344
   15MOL    C90 2358   0.063   4.805   4.462 -0.2136  0.0781  0.5067
   15MOL    C91 2359   0.182   4.816   4.355 -0.2821 -0.2463 -0.8339
   15MOL    N92 2360   0.128   4.869   4.228  0.1473  0.2197 -0.0517
   15MOL    H93 2361   7.263   4.749   4.408 -0.8676  0.6267  0.8501
   15MOL    H94 2362   0.031   4.905   4.492  0.5879  1.4428 -2.9019
   15MOL    H95 2363   0.223   4.716   4.339 -0.4038 -0.6389  1.1727
   15MOL    H96 2364   0.100   4.966   4.226 -3.0709 -0.6734  0.3206
   15MOL    H97 2365   0.044   4.814   4.217  0.7031 -0.4581 -1.0358
   15MOL    C98 2366   0.300   4.915   4.391  0.9146  0.0110  0.6483
   15MOL    C99 2367   0.417   4.921   4.289 -0.2247 -0.1332 -0.2050
   15MOL   N100 2368   0.480   5.048   4.295 -0.0202 -0.1574  0.0009
   15MOL   H101 2369   0.263   5.017   4.389  3.2061  0.8392 -1.1261
   15MOL   H102 2370   0.349   4.900   4.487  1.5954 -0.3454  0.2486
   15MOL   H103 2371   0.370   4.913   4.191  0.5929  1.1022 -0.7193
   15MOL   H104 2372   0.543   5.035   4.373 -0.3548  0.8941  0.4598
   15MOL   H105 2373   0.404   5.108   4.323  1.2430  1.5550 -0.1424
   15MOL   C106 2374   0.533   4.819   4.304 -0.3903  0.2949 -0.2574
   15MOL   C107 2375   0.512   4.689   4.231  0.3770 -0.6283 -0.1727
   15MOL   N108 2376   0.594   4.697   4.114 -0.7928  0.5527 -0.3351
   15MOL   H109 2377   0.629   4.863   4.278  0.3982  0.4243  2.7360
   15MOL   H110 2378   0.526   4.790   4.409 -3.4126 -1.2279 -0.8024
   15MOL   H111 2379   0.409   4.695   4.195  0.5509  2.1642 -0.2830
   15MOL   H112 2380   0.577   4.786   4.070  1.0838  1.7673  1.3196
   15MOL   H113 2381   0.570   4.622   4.051  0.7707  0.6394 -1.0589
   15MOL   C114 2382   0.540   4.566   4.325  0.0763 -0.4286 -0.2601
   15MOL   C115 2383   0.421   4.538   4.426  0.3551 -0.2856 -0.2245
   15MOL   N116 2384   0.326   4.450   4.363  0.1008 -0.1507 -0.5020
   15MOL   H117 2385   0.554   4.475   4.266  0.3489 -0.9222  0.5617
   15MOL   H118 2386   0.632   4.581   4.382  0.5501  0.0681 -1.1268
   15MOL   H119 2387   0.369   4.630   4.453 -1.4513 -0.7782 -1.9267
   15MOL   H120 2388   0.377   4.377   4.314 -0.2973  0.4320 -1.8274
   15MOL   H121 2389   0.285   4.393   4.435  0.0792 -2.1979 -2.0913
   15MOL   C122 2390   0.463   4.477   4.557  0.0066  0.5466 -0.5763
   15MOL   C123 2391   0.523   4.571   4.661  0.2829  0.5176 -0.1434
   15MOL   N124 2392   0.420   4.659   4.709 -0.6496 -0.0622 -0.2065
   15MOL   H125 2393   0.384   4.419   4.604 -0.2411 -0.4002 -2.1319
   15MOL   H126 2394   0.546   4.411   4.529 -1.4453 -0.4419 -2.6429
   15MOL   H127 2395   0.593   4.635   4.606 -1.5201  1.0209 -1.8930
   15MOL   H128 2396   0.449   4.707   4.792  0.4214 -0.1245 -0.5482
   15MOL   H129 2397   0.345   4.597   4.738 -0.5094 -1.2263 -2.1956
   15MOL   C130 2398   0.602   4.498   4.768 -0.1347  0.2335 -0.5536
   15MOL   C131 2399   0.691   4.603   4.842  0.0405  0.2002 -0.2917
   15MOL   N132 2400   0.593   4.647   4.939  0.2661  0.0375  0.1810
   15MOL   H133 2401   0.535   4.432   4.824  1.9055 -0.5123  1.1084
   15MOL   H134 2402   0.665   4.421   4.724 -1.3875 -2.2968  1.8753
   15MOL   H135 2403   0.731   4.681   4.778  0.3940  0.2455 -0.0198
   15MOL   H136 2404   0.646   4.696   5.009  0.4752  1.4753 -0.9563
   15MOL   H137 2405   0.563   4.577   5.005  1.3891  2.0587  2.9000
   15MOL   C138 2406   0.804   4.540   4.918 -0.4736  0.0399 -0.0604
   15MOL   C139 2407   0.941   4.570   4.863 -0.3996 -0.2296 -0.6081
   15MOL   N140 2408   1.041   4.498   4.951 -0.2190  0.0829 -0.1800
   15MOL   H141 2409   0.816   4.574   5.021 -0.5413 -0.9767  0.2894
   15MOL   H142 2410   0.779   4.434   4.925 -1.7465  0.3048 -0.5484
   15MOL   H143 2411   0.952   4.678   4.876  0.1786 -0.4954  1.1764
   15MOL   H144 2412   1.132   4.529   4.920 -0.0064  0.2596  0.6178
   15MOL   H145 2413   1.034   4.540   5.042  0.9250  0.4442 -0.2550
   15MOL   C146 2414   0.959   4.527   4.715 -0.2321 -0.1539 -0.3017
   15MOL   C147 2415   1.046   4.620   4.636  0.0590  0.4426 -0.0257
   15MOL   N148 2416   1.187   4.581   4.665 -0.5117 -0.0672  0.2007
   15MOL   H149 2417   0.988   4.422   4.710 -3.0290 -1.0230  0.4848
   15MOL   H150 2418   0.858   4.525   4.674  0.2201  1.3950 -1.4985
   15MOL   H151 2419   1.039   4.724   4.669 -2.5000  0.0978  0.6357
   15MOL   H152 2420   1.190   4.483   4.641  1.2759  0.6357 -2.7964
   15MOL   H153 2421   1.201   4.580   4.765 -0.8718  0.8273  0.2649
   15MOL   C154 2422   1.029   4.596   4.486  0.0349  1.0720  0.3227
   15MOL   C155 2423   0.902   4.664   4.432 -0.1659  0.4895  0.2237
   15MOL   N156 2424   0.902   4.649   4.286  0.2734  0.6424 -0.0595
   15MOL   H157 2425   1.115   4.632   4.431  0.3406 -0.2061 -0.0643
   15MOL   H158 2426   1.022   4.488   4.467 -0.8366  0.8614  1.7577
   15MOL   H159 2427   0.884   4.768   4.460  0.7100  1.0942 -1.3967
   15MOL   H160 2428   0.813   4.639   4.240 -0.3399 -0.2299  1.2751
   15MOL   H161 2429   0.947   4.731   4.250 -1.3081  0.8853 -1.5771
   15MOL   H162 2430   0.817   4.615   4.479  1.4599 -0.1580  2.5161
   16MOL     C1 2431   5.393   2.994   2.240  0.2535  0.0456 -0.1351
   16MOL     C2 2432   5.439   3.048   2.103  0.5793  1.1784  0.4897
   16MOL     N3 2433   5.313   3.087   2.051  0.4390 -0.2562  0.2794
   16MOL     H4 2434   5.489   2.957   2.276  0.6981  0.0118 -1.3485
   16MOL     H5 2435   5.326   2.908   2.238 -0.6524  0.7334  0.2632
   16MOL     H6 2436   5.477   2.963   2.047 -2.7054  0.9005 -1.4463
   16MOL     H7 2437   5.263   3.143   2.118 -0.6713 -0.1007 -0.6465
   16MOL     H8 2438   5.329   3.153   1.976  0.6025  1.1073  1.5006
   16MOL     H9 2439   5.352   3.069   2.308  1.5974 -0.7575  1.6203
   16MOL    C10 2440   5.545   3.164   2.096 -0.3389 -0.1198 -0.3254
   16MOL    C11 2441   5.686   3.112   2.114  0.6007 -0.4276  0.4747
   16MOL    N12 2442   5.766   3.122   1.992  0.1020  0.3471 -0.0384
   16MOL    H13 2443   5.538   3.197   1.993 -0.6592 -1.7568 -0.8463
   16MOL    H14 2444   5.517   3.245   2.163  1.3361 -0.4228  0.7853
   16MOL    H15 2445   5.696   3.007   2.141  0.7588 -0.2513  1.1187
   16MOL    H16 2446   5.768   3.221   1.970 -1.7970  0.8623  1.9320
   16MOL    H17 2447   5.858   3.090   2.018 -0.3771 -2.0173 -1.1554
   16MOL    C18 2448   5.761   3.186   2.224  0.4760 -0.0145  0.0776
   16MOL    C19 2449   5.698   3.168   2.367  0.4205  0.4592  0.5143
   16MOL    N20 2450   5.757   3.051   2.433 -0.1704  0.5827 -0.0558
   16MOL    H21 2451   5.867   3.158   2.231 -0.0562 -1.9060  1.1018
   16MOL    H22 2452   5.765   3.289   2.190 -0.8609  0.2091  0.5667
   16MOL    H23 2453   5.591   3.151   2.359  0.7436 -0.3144 -2.7483
   16MOL    H24 2454   5.856   3.054   2.418  0.0194 -1.7296  0.4771
   16MOL    H25 2455   5.728   2.962   2.396 -1.5383 -1.1316  4.6679
   16MOL    C26 2456   5.724   3.292   2.460  0.0652  0.5840  0.0035
   16MOL    C27 2457   5.662   3.430   2.414 -0.1949 -0.6838 -0.4335
   16MOL    N28 2458   5.541   3.404   2.353  0.3388  0.1963  0.2432
   16MOL    H29 2459   5.688   3.275   2.562  1.0219 -0.4714  0.1782
   16MOL    H30 2460   5.830   3.312   2.475  0.1724 -0.9761  1.5443
   16MOL    H31 2461   5.724   3.487   2.346 -0.6166 -0.0580 -0.2972
   16MOL    H32 2462   5.526   3.357   2.265 -2.7214 -0.1130  0.8747
   16MOL    H33 2463   5.493   3.492   2.341  0.5289  0.4189  1.0923
   16MOL    C34 2464   5.643   3.521   2.540  0.0611 -0.2176  0.2055
   16MOL    C35 2465   5.769   3.591   2.601  0.0094 -0.4531 -0.6557
   16MOL    N36 2466   5.733   3.728   2.634 -0.0074 -0.4271  0.5671
   16MOL    H37 2467   5.572   3.601   2.522  0.6807  0.5848  1.2724
   16MOL    H38 2468   5.595   3.463   2.618 -0.8417 -1.5352 -1.3005
   16MOL    H39 2469   5.848   3.594   2.526  0.9013 -1.9668  0.2009
   16MOL    H40 2470   5.672   3.732   2.714 -0.1042 -2.6661  0.6442
   16MOL    H41 2471   5.813   3.779   2.668  0.8683 -2.0669  1.0522
   16MOL    C42 2472   5.829   3.514   2.724 -0.6730  0.8634 -0.3103
   16MOL    C43 2473   5.980   3.479   2.701  0.3679 -0.0887 -0.0574
   16MOL    N44 2474   6.047   3.586   2.767  0.1312  0.2416  0.0745
   16MOL    H45 2475   5.797   3.556   2.819 -0.2378 -0.0472  0.2416
   16MOL    H46 2476   5.776   3.419   2.731  1.2554 -0.1774  0.4476
   16MOL    H47 2477   6.002   3.469   2.595  0.8220  1.0262 -0.0793
   16MOL    H48 2478   6.019   3.674   2.726  2.9257  1.2053  0.1279
   16MOL    H49 2479   6.004   3.586   2.858  0.0719  0.2947  0.0473
   16MOL    C50 2480   6.022   3.341   2.761 -0.1847  0.1479 -0.1243
   16MOL    C51 2481   6.001   3.226   2.666  0.0954 -0.6159 -0.4293
   16MOL    N52 2482   6.082   3.231   2.547  0.4273 -0.3157  0.3493
   16MOL    H53 2483   6.128   3.340   2.786 -0.2481 -1.9315  0.1238
   16MOL    H54 2484   5.970   3.329   2.857 -1.2505 -0.3126 -0.7472
   16MOL    H55 2485   5.894   3.236   2.646 -0.2286 -1.3698  0.8493
   16MOL    H56 2486   6.121   3.142   2.520 -0.0806 -0.4075 -0.0917
   16MOL    H57 2487   6.024   3.261   2.469 -0.8141 -2.3595  0.4678
   16MOL    C58 2488   6.032   3.088   2.725  0.6322 -0.0094 -0.6726
   16MOL    C59 2489   5.954   3.052   2.852 -0.2300  0.4111  0.5011
   16MOL    N60 2490   5.931   2.907   2.828  0.6045 -0.1697 -0.3216
   16MOL    H61 2491   6.003   3.022   2.643  0.5289  0.7777 -1.2884
   16MOL    H62 2492   6.136   3.071   2.750  0.5256 -0.6045 -0.6299
   16MOL    H63 2493   5.854   3.096   2.855 -0.2304  0.3444  1.6820
   16MOL    H64 2494   5.892   2.883   2.738  0.5438  1.8481 -0.8574
   16MOL    H65 2495   5.883   2.864   2.906  1.1105  2.7287  1.6923
   16MOL    C66 2496   6.035   3.066   2.981 -0.2995 -0.3412 -0.5617
   16MOL    C67 2497   5.934   3.069   3.100  0.3284  0.4920  0.1304
   16MOL    N68 2498   5.995   3.043   3.230  0.2488 -0.2696  0.5635
   16MOL    H69 2499   6.102   2.980   2.981 -0.0919 -0.1788 -0.7620
   16MOL    H70 2500   6.099   3.154   2.970  0.8172 -0.7030  2.4864
   16MOL    H71 2501   5.863   2.989   3.080  0.3943  0.4147  0.2028
   16MOL    H72 2502   5.928   3.037   3.306 -1.1989  0.9350 -0.5923
   16MOL    H73 2503   6.039   3.133   3.244  1.2202 -0.5982 -0.2785
   16MOL    C74 2504   5.855   3.206   3.097 -0.6158  0.5463  0.4878
   16MOL    C75 2505   5.708   3.194   3.150 -0.7644  0.7726  0.2496
   16MOL    N76 2506   5.676   3.328   3.197 -0.0097  0.6943 -0.0089
   16MOL    H77 2507   5.914   3.282   3.148  0.8768  1.6213 -2.7580
   16MOL    H78 2508   5.845   3.248   2.997 -2.6573  0.4056  0.6101
   16MOL    H79 2509   5.711   3.126   3.235 -0.8477  1.9743  1.2298
   16MOL    H80 2510   5.610   3.315   3.272 -0.1043 -0.2789 -0.2595
   16MOL    H81 2511   5.762   3.353   3.244 -0.0439  0.2534  0.2912
   16MOL    C82 2512   5.588   3.147   3.054 -1.7448 -0.1787 -0.4326
   16MOL    C83 2513   5.582   3.005   3.000 -0.1516  0.0426 -0.1432
   16MOL    N84 2514   5.525   2.930   3.105  0.3523  0.0503 -0.2117
   16MOL    H85 2515   5.500   3.177   3.111 -0.0492  2.2724  1.0217
   16MOL    H86 2516   5.595   3.221   2.974 -0.4731  0.6793  0.4445
   16MOL    H87 2517   5.678   2.971   2.961  0.6513 -0.5327  2.2563
   16MOL    H88 2518   5.498   2.836   3.078  0.0655  0.0786 -0.0235
   16MOL    H89 2519   5.435   2.975   3.117  0.6480 -0.2402  3.7018
   16MOL    C90 2520   5.475   3.003   2.889  0.2226  0.5521  0.4766
   16MOL    C91 2521   5.517   3.061   2.757  0.3684  1.2310 -0.4708
   16MOL    N92 2522   5.624   2.984   2.694  0.1116 -0.1918  0.3110
   16MOL    H93 2523   5.442   2.901   2.868 -0.0011  0.6581  0.3026
   16MOL    H94 2524   5.384   3.053   2.922 -0.7121 -0.9321  0.2157
   16MOL    H95 2525   5.553   3.163   2.774 -1.8330  1.6651  1.8701
   16MOL    H96 2526   5.657   3.028   2.609 -1.6718  0.7396  0.0833
   16MOL    H97 2527   5.704   2.982   2.757  0.8943  2.2502 -0.5536
   16MOL    C98 2528   5.409   3.081   2.649  0.0795  0.2286  0.0879
   16MOL    C99 2529   5.293   3.183   2.683  0.5542  0.5904  0.4740
   16MOL   N100 2530   5.339   3.320   2.675  0.2394 -0.0669 -0.2008
   16MOL   H101 2531   5.455   3.105   2.554  0.7784  0.3411  0.4482
   16MOL   H102 2532   5.383   2.980   2.616 -0.1945  0.2871  0.1239
   16MOL   H103 2533   5.262   3.190   2.788  1.2129  1.4827  0.6138
   16MOL   H104 2534   5.421   3.326   2.617  0.5927 -0.6017  0.2380
   16MOL   H105 2535   5.365   3.355   2.766 -0.0143 -0.0874 -0.1192
   16MOL   C106 2536   5.168   3.172   2.591 -0.1817  0.0980  0.0043
   16MOL   C107 2537   5.091   3.045   2.624  0.1443 -0.4183 -0.3827
   16MOL   N108 2538   5.024   3.064   2.746 -0.1540 -0.7205  0.5841
   16MOL   H109 2539   5.102   3.259   2.584  0.0291  0.2733  0.1801
   16MOL   H110 2540   5.205   3.158   2.490 -0.4272 -0.0299 -0.0670
   16MOL   H111 2541   5.163   2.964   2.632  1.2635  0.4283 -1.4459
   16MOL   H112 2542   5.084   3.041   2.824  0.4267  0.3695  0.4689
   16MOL   H113 2543   4.930   3.027   2.752 -0.1668 -0.9669 -1.0246
   16MOL   C114 2544   4.992   3.022   2.514  0.8034 -0.3662  0.6284
   16MOL   C115 2545   4.893   2.900   2.538 -0.7252 -0.2454 -0.1818
   16MOL   N116 2546   4.809   2.896   2.420 -0.5505 -0.3636  0.0061
   16MOL   H117 2547   4.947   3.119   2.492 -0.2411 -0.5438  1.9185
   16MOL   H118 2548   5.050   2.992   2.426 -1.0313 -1.7582 -0.1499
   16MOL   H119 2549   4.837   2.921   2.629 -1.5065 -0.0433 -0.7009
   16MOL   H120 2550   4.747   2.816   2.425 -0.1284 -0.6554  0.7320
   16MOL   H121 2551   4.744   2.972   2.437 -2.0817 -2.1331  2.4677
   16MOL   C122 2552   4.975   2.765   2.548  0.2117  0.2536  0.3488
   16MOL   C123 2553   4.990   2.716   2.700 -0.0250  0.3819 -0.0164
   16MOL   N124 2554   4.859   2.700   2.766  0.5721 -0.7466 -0.0398
   16MOL   H125 2555   4.913   2.685   2.507  0.3659 -0.6764  1.9001
   16MOL   H126 2556   5.072   2.767   2.498 -0.8089  0.4426 -1.6828
   16MOL   H127 2557   5.044   2.791   2.757 -0.2018  0.4939  0.0038
   16MOL   H128 2558   4.824   2.793   2.744 -1.3212 -1.8843 -2.0788
   16MOL   H129 2559   4.881   2.700   2.864 -1.9162  0.4006  0.5670
   16MOL   C130 2560   5.078   2.587   2.708  0.6155 -0.6316 -0.3122
   16MOL   C131 2561   5.128   2.552   2.846 -0.0890  0.1200  0.8894
   16MOL   N132 2562   5.151   2.412   2.850  0.4890 -0.6673  0.0231
   16MOL   H133 2563   5.024   2.515   2.646  0.8858 -2.0779  1.1111
   16MOL   H134 2564   5.171   2.604   2.654  0.9998 -3.1062 -0.4942
   16MOL   H135 2565   5.054   2.572   2.923 -3.1655 -1.6294 -1.4930
   16MOL   H136 2566   5.192   2.395   2.941  0.0551 -0.9825  0.1627
   16MOL   H137 2567   5.063   2.362   2.849 -0.3378  0.7628 -0.3524
   16MOL   C138 2568   5.254   2.629   2.882 -0.0248  0.0248  0.7846
   16MOL   C139 2569   5.288   2.635   3.029 -0.2856  0.0852 -0.5253
   16MOL   N140 2570   5.433   2.640   3.047  0.0468  0.4937 -0.3677
   16MOL   H141 2571   5.336   2.578   2.832 -0.4455 -0.5764  0.6977
   16MOL   H142 2572   5.245   2.729   2.841 -0.1426 -0.3813 -0.1938
   16MOL   H143 2573   5.241   2.549   3.076 -2.9492  0.1633 -2.9190
   16MOL   H144 2574   5.474   2.625   3.138 -1.1370  0.8020  0.2295
   16MOL   H145 2575   5.476   2.564   2.995 -1.0938 -0.9836  0.8249
   16MOL   C146 2576   5.217   2.748   3.111  0.3136 -0.0755  0.0566
   16MOL   C147 2577   5.071   2.725   3.160  0.4794  0.9548 -0.2643
   16MOL   N148 2578   5.060   2.652   3.283  0.3644 -0.5929 -0.4360
   16MOL   H149 2579   5.276   2.778   3.197  1.3403 -0.4842 -0.4943
   16MOL   H150 2580   5.214   2.827   3.035 -1.1663 -0.0984  0.0772
   16MOL   H151 2581   5.010   2.669   3.089  1.1534 -0.7622  0.5014
   16MOL   H152 2582   4.965   2.659   3.318  0.6587 -1.8209  0.6424
   16MOL   H153 2583   5.054   2.555   3.257  1.1365 -0.4688 -1.0763
   16MOL   C154 2584   4.994   2.856   3.191  0.2597 -0.3544  0.1368
   16MOL   C155 2585   4.968   2.946   3.065  0.0497 -0.0063 -0.1724
   16MOL   N156 2586   4.874   3.057   3.102 -0.2507 -0.2524  0.6511
   16MOL   H157 2587   4.893   2.843   3.230  1.0240 -1.8664  1.6272
   16MOL   H158 2588   5.047   2.925   3.257 -0.2826 -0.9653  1.2251
   16MOL   H159 2589   4.936   2.875   2.989  0.0767 -0.8545  0.6011
   16MOL   H160 2590   4.869   3.139   3.044 -2.2523 -1.0245 -0.3351
   16MOL   H161 2591   4.778   3.023   3.103 -0.6632  0.8158 -0.8554
   16MOL   H162 2592   5.062   2.995   3.038 -0.1413  1.3557  1.5643
   17MOL     C1 2593   1.611   6.195   3.097 -0.0638  0.3248 -0.2286
   17MOL     C2 2594   1.709   6.077   3.079 -0.5451 -0.1530 -0.2792
   17MOL     N3 2595   1.694   5.989   3.200  0.2687 -0.4546 -0.0143
   17MOL     H4 2596   1.509   6.158   3.104 -0.0739  0.4162  0.1393
   17MOL     H5 2597   1.618   6.269   3.017  1.1010  0.1568 -0.3009
   17MOL     H6 2598   1.809   6.119   3.091 -0.9117  0.0535  2.3080
   17MOL     H7 2599   1.704   6.054   3.276  1.7398  0.6431 -1.1197
   17MOL     H8 2600   1.598   5.957   3.191 -0.4978  1.6706  0.3613
   17MOL     H9 2601   1.637   6.253   3.186  0.5478  0.6744 -0.6290
   17MOL    C10 2602   1.706   5.997   2.948  0.0796 -0.9278  0.1955
   17MOL    C11 2603   1.689   6.079   2.816 -0.4972  0.4964  0.5514
   17MOL    N12 2604   1.744   5.996   2.708 -0.0948 -0.4552  0.5856
   17MOL    H13 2605   1.793   5.931   2.949 -0.0801 -1.1389 -0.1878
   17MOL    H14 2606   1.628   5.923   2.958 -1.4858  0.8073  1.1330
   17MOL    H15 2607   1.744   6.172   2.827 -1.8420  1.2238  1.2500
   17MOL    H16 2608   1.771   6.050   2.627 -1.1796  0.4604  0.8405
   17MOL    H17 2609   1.829   5.953   2.743  0.7168 -0.3061 -1.1145
   17MOL    C18 2610   1.541   6.100   2.779  0.1455  0.8847  0.2850
   17MOL    C19 2611   1.515   6.196   2.657 -0.5914  0.8401  0.5892
   17MOL    N20 2612   1.395   6.156   2.594  0.0616 -0.0882  0.0957
   17MOL    H21 2613   1.488   6.007   2.757  1.3212  0.6825 -1.8437
   17MOL    H22 2614   1.484   6.135   2.865  0.6352  1.3871  0.4066
   17MOL    H23 2615   1.593   6.192   2.581 -1.2886 -0.3097 -0.0803
   17MOL    H24 2616   1.397   6.187   2.497  0.3279  2.0349  0.7629
   17MOL    H25 2617   1.393   6.055   2.591 -0.9359 -0.0723 -0.1484
   17MOL    C26 2618   1.497   6.342   2.697  0.1849  0.0030 -1.0274
   17MOL    C27 2619   1.620   6.435   2.685 -0.2881 -0.1772 -0.6779
   17MOL    N28 2620   1.616   6.496   2.550  0.1005 -0.2679 -0.9943
   17MOL    H29 2621   1.405   6.384   2.658 -0.2552 -0.9881 -1.0724
   17MOL    H30 2622   1.464   6.348   2.801 -3.5391 -1.5679 -2.0715
   17MOL    H31 2623   1.707   6.370   2.679 -0.1892  0.1240 -3.1155
   17MOL    H32 2624   1.552   6.571   2.526  0.9134  0.4576 -0.8923
   17MOL    H33 2625   1.699   6.548   2.527  1.0556 -0.9131  0.9295
   17MOL    C34 2626   1.625   6.551   2.790 -0.2771 -0.2206 -0.0913
   17MOL    C35 2627   1.761   6.627   2.805  0.4452  0.3436  0.0009
   17MOL    N36 2628   1.719   6.750   2.868 -0.3256 -0.2610 -0.7476
   17MOL    H37 2629   1.548   6.622   2.759  0.9106  0.5084 -1.4486
   17MOL    H38 2630   1.595   6.517   2.889  0.0863  0.3169  0.2130
   17MOL    H39 2631   1.812   6.654   2.713  2.1335 -1.6837  0.3028
   17MOL    H40 2632   1.630   6.778   2.829 -0.2977  0.7274 -0.1218
   17MOL    H41 2633   1.785   6.821   2.837 -1.6350  0.2977 -2.3625
   17MOL    C42 2634   1.868   6.560   2.903 -0.1246 -0.9450  0.5733
   17MOL    C43 2635   1.946   6.443   2.850  0.2956 -0.4253 -0.1369
   17MOL    N44 2636   2.023   6.485   2.736 -0.9650 -0.0112  0.2487
   17MOL    H45 2637   1.929   6.637   2.950  1.8578 -2.2412  0.1718
   17MOL    H46 2638   1.812   6.535   2.993 -0.7800 -0.5938  0.2654
   17MOL    H47 2639   1.886   6.361   2.811  2.4909 -1.3183 -1.7464
   17MOL    H48 2640   2.100   6.549   2.752 -1.2851  0.5684 -0.4790
   17MOL    H49 2641   2.072   6.399   2.717  0.0466  0.0639  2.3092
   17MOL    C50 2642   2.040   6.394   2.968 -0.0859 -0.2379  0.4345
   17MOL    C51 2643   2.122   6.265   2.940 -0.3095  0.4562 -0.1490
   17MOL    N52 2644   2.183   6.228   3.065  0.0999  0.2979 -0.4223
   17MOL    H53 2645   2.101   6.475   3.007  2.0001 -2.1641  1.3113
   17MOL    H54 2646   1.975   6.375   3.053  0.1589 -0.0570  0.6649
   17MOL    H55 2647   2.196   6.298   2.867 -0.1986 -0.8681 -0.6522
   17MOL    H56 2648   2.255   6.159   3.049 -0.1470  0.0291 -0.3744
   17MOL    H57 2649   2.234   6.305   3.106  0.0448 -0.3998  1.0064
   17MOL    C58 2650   2.047   6.141   2.893 -0.0275  0.6613  0.3460
   17MOL    C59 2651   2.126   6.008   2.864  0.4691  0.6813 -0.4228
   17MOL    N60 2652   2.022   5.926   2.803 -0.2919  0.3993  0.1245
   17MOL    H61 2653   1.971   6.124   2.969  1.3167 -0.6466  1.4343
   17MOL    H62 2654   1.985   6.165   2.807  1.2387 -0.7964 -0.9925
   17MOL    H63 2655   2.171   5.971   2.955 -0.2380 -0.5069 -0.5428
   17MOL    H64 2656   2.068   5.875   2.729 -1.6132 -1.3816  0.4655
   17MOL    H65 2657   1.987   5.851   2.862  0.1933 -0.5608 -0.7982
   17MOL    C66 2658   2.244   6.031   2.761 -0.7032  0.5864  0.7332
   17MOL    C67 2659   2.333   5.910   2.734 -0.1943  0.2382 -0.1131
   17MOL    N68 2660   2.247   5.802   2.678 -0.6708  0.1539 -0.5265
   17MOL    H69 2661   2.223   6.077   2.665 -1.0815 -0.2357  0.4163
   17MOL    H70 2662   2.308   6.107   2.806  0.1990 -0.5369  1.3925
   17MOL    H71 2663   2.372   5.872   2.829  1.3929  1.6613 -0.1722
   17MOL    H72 2664   2.258   5.711   2.720  0.5175  1.9918  3.3818
   17MOL    H73 2665   2.266   5.790   2.579 -0.3585 -0.8486 -0.3476
   17MOL    C74 2666   2.456   5.938   2.647 -0.0752 -0.4637 -0.0790
   17MOL    C75 2667   2.560   6.049   2.690  0.3505 -0.2064  0.5024
   17MOL    N76 2668   2.616   6.008   2.817 -0.1498  0.2242  0.4915
   17MOL    H77 2669   2.518   5.850   2.635  3.4623  2.0668 -1.1543
   17MOL    H78 2670   2.420   5.956   2.546 -1.4706 -2.3387  0.0600
   17MOL    H79 2671   2.511   6.144   2.709 -0.4926 -0.4622 -0.3523
   17MOL    H80 2672   2.705   6.055   2.823  1.2537 -2.1197 -1.3859
   17MOL    H81 2673   2.558   6.042   2.893 -2.9845  0.4037 -1.6510
   17MOL    C82 2674   2.670   6.052   2.580  0.2715 -0.5889 -0.7283
   17MOL    C83 2675   2.765   6.174   2.589  1.2530  0.0360  0.1240
   17MOL    N84 2676   2.836   6.155   2.470 -0.1154 -0.3738 -0.2288
   17MOL    H85 2677   2.724   5.958   2.588  0.0924 -0.9224 -3.1447
   17MOL    H86 2678   2.629   6.035   2.481 -1.4164  1.2229 -0.3781
   17MOL    H87 2679   2.839   6.172   2.668  1.3020  1.9565  0.1594
   17MOL    H88 2680   2.893   6.072   2.474  0.5857  0.0817 -0.6660
   17MOL    H89 2681   2.761   6.133   2.405  1.3037 -1.8492 -1.4145
   17MOL    C90 2682   2.700   6.307   2.577  0.0218  0.7963  0.2536
   17MOL    C91 2683   2.796   6.422   2.616 -0.5900  0.0660 -0.4046
   17MOL    N92 2684   2.896   6.435   2.516 -0.0618  0.4904  0.2881
   17MOL    H93 2685   2.657   6.324   2.478 -1.2118 -1.9688  0.2667
   17MOL    H94 2686   2.623   6.306   2.654  0.6671  2.1574  0.9335
   17MOL    H95 2687   2.850   6.391   2.705 -0.5694 -2.3982 -1.2459
   17MOL    H96 2688   2.910   6.344   2.475  1.9076  0.6754  0.5017
   17MOL    H97 2689   2.985   6.455   2.560 -1.0412  0.3323  2.4046
   17MOL    C98 2690   2.723   6.553   2.621 -0.7021 -0.0658 -0.1114
   17MOL    C99 2691   2.651   6.574   2.755 -0.0102  0.4613  0.1488
   17MOL   N100 2692   2.735   6.645   2.846 -0.6612  0.3510  0.2571
   17MOL   H101 2693   2.790   6.635   2.596 -0.5591  0.8484  3.0715
   17MOL   H102 2694   2.652   6.556   2.539 -0.5625 -0.4956 -0.2477
   17MOL   H103 2695   2.634   6.475   2.797  1.4251  0.0135 -0.3018
   17MOL   H104 2696   2.832   6.648   2.818 -0.5362  1.7180  0.8197
   17MOL   H105 2697   2.748   6.589   2.929 -0.1480 -1.8970 -1.2947
   17MOL   C106 2698   2.513   6.641   2.746 -0.0381  0.7891 -0.0756
   17MOL   C107 2699   2.400   6.546   2.697 -0.0484 -0.1045  0.3742
   17MOL   N108 2700   2.334   6.487   2.810  0.0607  0.5456 -0.2952
   17MOL   H109 2701   2.489   6.688   2.841 -1.2557 -1.0608  0.5646
   17MOL   H110 2702   2.509   6.733   2.688  1.8731  1.5939  1.0437
   17MOL   H111 2703   2.438   6.465   2.634  0.3610  0.5494 -0.2355
   17MOL   H112 2704   2.408   6.427   2.845 -0.7018 -1.4862 -2.0790
   17MOL   H113 2705   2.315   6.556   2.881  1.0768  0.4164  0.1170
   17MOL   C114 2706   2.292   6.616   2.608  0.4029  0.0916  0.7347
   17MOL   C115 2707   2.340   6.684   2.474 -0.2745 -0.6931  0.2132
   17MOL   N116 2708   2.304   6.597   2.363  0.5425  0.2398 -0.1166
   17MOL   H117 2709   2.235   6.526   2.584  1.4201 -0.7049  1.2596
   17MOL   H118 2710   2.235   6.688   2.668  0.2258 -1.2813  2.2599
   17MOL   H119 2711   2.448   6.698   2.477 -0.5236  1.7800 -0.8696
   17MOL   H120 2712   2.347   6.506   2.369 -1.2640 -0.6631 -0.6152
   17MOL   H121 2713   2.206   6.579   2.345  0.5128  0.5466 -0.2709
   17MOL   C122 2714   2.269   6.819   2.449 -0.0600 -0.6395 -0.4937
   17MOL   C123 2715   2.315   6.936   2.543  1.0086 -0.4881 -0.3622
   17MOL   N124 2716   2.451   6.977   2.517  0.6102  0.4589 -0.2153
   17MOL   H125 2717   2.286   6.848   2.346  1.9505  1.5207  0.3980
   17MOL   H126 2718   2.162   6.807   2.469  0.1623 -1.8199  0.0268
   17MOL   H127 2719   2.313   6.893   2.643  0.3714 -0.7308 -0.4768
   17MOL   H128 2720   2.488   7.026   2.597  1.4389  1.0541 -0.9378
   17MOL   H129 2721   2.511   6.896   2.512 -1.5985 -1.2125 -0.4250
   17MOL   C130 2722   2.219   7.054   2.531 -0.0249  0.4456  0.1653
   17MOL   C131 2723   2.091   7.017   2.615  0.1471  0.3098 -0.3552
   17MOL   N132 2724   2.096   7.087   2.740 -0.0271 -0.1668  0.4543
   17MOL   H133 2725   2.261   7.148   2.567  0.5471  0.7514 -1.2525
   17MOL   H134 2726   2.195   7.076   2.427  0.4726 -0.0524 -0.0568
   17MOL   H135 2727   2.099   6.914   2.651 -2.2342  0.5941  1.0969
   17MOL   H136 2728   2.083   7.186   2.725  1.1298 -0.0010  0.5239
   17MOL   H137 2729   2.185   7.073   2.784 -0.2369  0.7099  1.1579
   17MOL   C138 2730   1.954   7.037   2.537 -0.2231 -0.4311 -0.5496
   17MOL   C139 2731   1.841   6.953   2.600  0.6735  0.1385  0.7731
   17MOL   N140 2732   1.819   7.034   2.719 -0.3251 -0.0467 -0.4234
   17MOL   H141 2733   1.920   7.140   2.536  1.4785  0.1679  0.3962
   17MOL   H142 2734   1.975   7.015   2.432 -1.8287  2.2637 -1.4875
   17MOL   H143 2735   1.881   6.857   2.633 -0.2461 -0.3179  0.5479
   17MOL   H144 2736   1.911   7.060   2.752 -1.2227  0.0772  2.0841
   17MOL   H145 2737   1.786   7.127   2.701  1.9852  0.4429 -2.3004
   17MOL   C146 2738   1.710   6.943   2.523  0.5287 -0.0782 -0.1014
   17MOL   C147 2739   1.722   6.894   2.373  0.2567 -0.0627 -0.0793
   17MOL   N148 2740   1.669   6.759   2.351  0.4416 -0.3384  0.2107
   17MOL   H149 2741   1.649   6.875   2.584 -0.5336  1.5405  0.6672
   17MOL   H150 2742   1.650   7.032   2.540  0.2993  0.1155 -1.8495
   17MOL   H151 2743   1.827   6.885   2.343  0.3271  2.2408 -0.6711
   17MOL   H152 2744   1.657   6.749   2.251 -0.3253 -1.4674  0.4146
   17MOL   H153 2745   1.747   6.697   2.363  1.1435 -0.0015 -2.3128
   17MOL   C154 2746   1.645   6.981   2.271  0.6771  0.1036 -0.0461
   17MOL   C155 2747   1.728   7.108   2.237 -0.7171 -0.3796  0.7230
   17MOL   N156 2748   1.653   7.177   2.133  1.1848 -1.1673  0.2288
   17MOL   H157 2749   1.632   6.917   2.183  0.1519 -1.0089  0.8232
   17MOL   H158 2750   1.546   7.005   2.308  0.5681 -3.0140  1.8718
   17MOL   H159 2751   1.826   7.077   2.200 -0.3391 -0.7024  1.9687
   17MOL   H160 2752   1.728   7.226   2.086  0.3526 -1.2022 -1.1729
   17MOL   H161 2753   1.594   7.253   2.164  0.9940 -1.6492  1.0703
   17MOL   H162 2754   1.733   7.161   2.332 -2.7023 -1.3926  1.4202
   18MOL     C1 2755   4.334   6.002   1.104  0.0950 -0.1880 -0.5555
   18MOL     C2 2756   4.308   5.923   1.227  0.0843  0.1893 -0.3459
   18MOL     N3 2757   4.252   5.797   1.186  0.2101  0.5199 -0.0314
   18MOL     H4 2758   4.369   6.102   1.131  1.3270 -0.6829 -0.2966
   18MOL     H5 2759   4.252   6.031   1.038 -0.7830  0.2633  0.7144
   18MOL     H6 2760   4.240   5.969   1.298 -0.0680 -0.5073 -0.0361
   18MOL     H7 2761   4.164   5.816   1.141 -1.3915 -3.1954  1.3256
   18MOL     H8 2762   4.222   5.750   1.270  2.5774  0.6428  0.9224
   18MOL     H9 2763   4.416   5.954   1.051  0.7270  1.3330 -1.0055
   18MOL    C10 2764   4.442   5.900   1.315  0.2776 -0.5946 -0.1597
   18MOL    C11 2765   4.490   6.024   1.390  1.2418 -0.0215 -0.6593
   18MOL    N12 2766   4.530   5.994   1.531  0.0092 -0.1253  0.0144
   18MOL    H13 2767   4.408   5.829   1.390 -1.3564  2.0040  1.6602
   18MOL    H14 2768   4.528   5.858   1.262  0.4133 -1.1494  0.5063
   18MOL    H15 2769   4.400   6.083   1.400  1.0711 -0.1079 -1.6042
   18MOL    H16 2770   4.481   5.913   1.566 -0.1474  1.3291  3.2228
   18MOL    H17 2771   4.506   6.070   1.592  0.0951  0.2038 -0.3595
   18MOL    C18 2772   4.602   6.103   1.315  0.7059  0.4169 -0.3361
   18MOL    C19 2773   4.598   6.258   1.331  0.2680 -0.5411 -0.3263
   18MOL    N20 2774   4.669   6.288   1.459  0.6163  0.1290 -0.1095
   18MOL    H21 2775   4.697   6.060   1.347  0.0067  1.0176  2.6849
   18MOL    H22 2776   4.584   6.092   1.208  0.9132 -0.4800 -0.2805
   18MOL    H23 2777   4.496   6.295   1.333 -0.0945 -1.4473 -1.2288
   18MOL    H24 2778   4.674   6.209   1.521 -0.7741 -0.6176 -0.9408
   18MOL    H25 2779   4.624   6.365   1.507  0.6362 -0.7953  1.3972
   18MOL    C26 2780   4.667   6.332   1.210 -0.1308  0.5139  0.3981
   18MOL    C27 2781   4.590   6.328   1.074  0.6487 -0.0989 -0.5733
   18MOL    N28 2782   4.512   6.450   1.068  0.4442 -0.6081  0.1021
   18MOL    H29 2783   4.683   6.434   1.244 -1.8505  1.2954 -1.0090
   18MOL    H30 2784   4.768   6.296   1.193  0.5772  2.7335 -0.2781
   18MOL    H31 2785   4.512   6.252   1.081 -0.1702  0.6753 -1.1828
   18MOL    H32 2786   4.433   6.443   1.132  0.1191 -1.0896 -0.3515
   18MOL    H33 2787   4.471   6.476   0.980  1.2130 -0.0563 -0.0906
   18MOL    C34 2788   4.675   6.323   0.945 -0.3039  0.8302  0.0532
   18MOL    C35 2789   4.727   6.176   0.915 -0.8122  0.7390  0.1155
   18MOL    N36 2790   4.608   6.097   0.864 -0.2784 -0.1148 -0.1096
   18MOL    H37 2791   4.630   6.367   0.856 -0.0769 -0.2918 -0.6227
   18MOL    H38 2792   4.762   6.388   0.956 -0.7118  1.9001 -2.8025
   18MOL    H39 2793   4.765   6.129   1.006  1.3718  2.0350 -0.1015
   18MOL    H40 2794   4.534   6.103   0.933 -0.3625 -0.8075 -0.1373
   18MOL    H41 2795   4.566   6.155   0.793 -0.1985  1.2670  0.9428
   18MOL    C42 2796   4.844   6.168   0.806  0.1224  0.0209  0.1133
   18MOL    C43 2797   4.979   6.225   0.838  0.5139  0.1188  0.0351
   18MOL    N44 2798   5.051   6.148   0.940 -0.0017 -0.4129 -0.0888
   18MOL    H45 2799   4.853   6.062   0.785 -1.7805  0.0357 -0.8552
   18MOL    H46 2800   4.806   6.201   0.710 -3.7537  1.4319  2.0454
   18MOL    H47 2801   4.981   6.332   0.859  0.7608  0.7922 -3.1535
   18MOL    H48 2802   5.019   6.175   1.032  1.6870  1.5450 -0.0406
   18MOL    H49 2803   5.150   6.166   0.944 -0.3559  1.1728  2.3107
   18MOL    C50 2804   5.077   6.220   0.714  0.1616 -0.0181  0.8030
   18MOL    C51 2805   5.191   6.328   0.726  0.2829 -0.0494 -0.0791
   18MOL    N52 2806   5.291   6.287   0.820  0.2387 -0.1733 -0.6653
   18MOL    H53 2807   5.125   6.122   0.704 -1.3852 -0.6445 -0.6955
   18MOL    H54 2808   5.021   6.241   0.623 -0.7875  1.0138  1.6100
   18MOL    H55 2809   5.154   6.421   0.769  1.8852  0.6876 -0.2570
   18MOL    H56 2810   5.318   6.193   0.796  1.1662 -0.2155  0.4980
   18MOL    H57 2811   5.375   6.338   0.798  1.0721 -1.2004  0.0941
   18MOL    C58 2812   5.268   6.354   0.590 -0.4060  0.0849  0.1885
   18MOL    C59 2813   5.197   6.454   0.502 -0.5736  0.2647 -0.2708
   18MOL    N60 2814   5.226   6.585   0.564  0.1777  0.0333 -0.4039
   18MOL    H61 2815   5.364   6.402   0.604 -0.7963  0.6309  1.0280
   18MOL    H62 2816   5.295   6.257   0.549 -2.2934 -0.5917  0.4836
   18MOL    H63 2817   5.090   6.436   0.492  0.0724 -2.5476 -2.8515
   18MOL    H64 2818   5.312   6.622   0.526  0.6253  1.3813  1.8539
   18MOL    H65 2819   5.236   6.580   0.665 -0.4316  0.1844 -0.3337
   18MOL    C66 2820   5.256   6.451   0.361  0.0581 -0.0806  0.1505
   18MOL    C67 2821   5.231   6.331   0.278  0.4393 -0.9863  0.1516
   18MOL    N68 2822   5.106   6.341   0.207 -0.1322 -0.0259 -0.0759
   18MOL    H69 2823   5.206   6.536   0.313 -1.0445 -2.8333 -3.8603
   18MOL    H70 2824   5.364   6.459   0.369 -0.0072  0.2644  0.7005
   18MOL    H71 2825   5.234   6.237   0.334  0.3102 -0.7179  0.6031
   18MOL    H72 2826   5.100   6.270   0.136  1.6019  2.8943 -3.3316
   18MOL    H73 2827   5.113   6.421   0.145 -3.0474  0.0416 -0.3893
   18MOL    C74 2828   5.342   6.320   0.177  0.8489  0.0561 -0.0811
   18MOL    C75 2829   5.463   6.252   0.247 -0.6350  0.4287  0.2647
   18MOL    N76 2830   5.447   6.104   0.255 -0.4187  0.2741  0.6914
   18MOL    H77 2831   5.303   6.263   0.093  0.2114  1.9387 -1.0916
   18MOL    H78 2832   5.358   6.415   0.128  4.0362  0.3945  1.4692
   18MOL    H79 2833   5.479   6.295   0.346  1.0310  0.4171  0.0040
   18MOL    H80 2834   5.526   6.063   0.302 -0.1424 -1.4369 -1.1962
   18MOL    H81 2835   5.368   6.083   0.314 -1.2687  1.2809 -0.0627
   18MOL    C82 2836   5.589   6.280   0.159  0.6474 -1.0145 -0.0229
   18MOL    C83 2837   5.656   6.415   0.197 -0.5884  0.1379 -0.0341
   18MOL    N84 2838   5.718   6.418   0.326  0.2956  0.2460  1.4213
   18MOL    H85 2839   5.668   6.208   0.180  0.1000 -1.2269  1.3961
   18MOL    H86 2840   5.564   6.271   0.054 -0.9382 -2.5134  0.4389
   18MOL    H87 2841   5.586   6.500   0.198 -1.7606 -0.7972  2.3203
   18MOL    H88 2842   5.805   6.468   0.319  0.8880 -0.6986  1.9341
   18MOL    H89 2843   5.754   6.324   0.332 -1.3036 -0.3499  2.1749
   18MOL    C90 2844   5.767   6.453   0.092  0.4412  0.1144 -0.0304
   18MOL    C91 2845   5.845   6.590   0.114  0.0735 -0.1652 -0.3216
   18MOL    N92 2846   5.968   6.544   0.176  0.7097  0.1321  0.2060
   18MOL    H93 2847   5.829   6.367   0.069  0.8613  0.6282 -0.8525
   18MOL    H94 2848   5.702   6.468   0.006 -0.7560  1.3558  1.0665
   18MOL    H95 2849   5.793   6.660   0.180 -0.6625 -0.1507 -0.9055
   18MOL    H96 2850   6.026   6.500   0.106  2.6167  2.2723  0.3846
   18MOL    H97 2851   6.019   6.621   0.217  1.9011 -0.5415  0.0207
   18MOL    C98 2852   5.884   6.647   7.250  0.2673  0.3071  0.0372
   18MOL    C99 2853   5.781   6.758   7.210  0.0477  0.5083 -0.1427
   18MOL   N100 2854   5.818   6.836   7.094 -0.0005 -0.2100  0.7243
   18MOL   H101 2855   5.982   6.696   7.251  0.8928 -0.9406  0.4611
   18MOL   H102 2856   5.895   6.570   7.175 -1.4297  0.0751  0.0106
   18MOL   H103 2857   5.794   6.836   0.009 -0.4748  0.1753  0.3009
   18MOL   H104 2858   5.732   6.867   7.050  0.8225 -0.0262 -0.7862
   18MOL   H105 2859   5.859   6.783   7.019 -1.0700  2.5826 -1.9205
   18MOL   C106 2860   5.630   6.724   7.197  0.0423  0.1399  0.0740
   18MOL   C107 2861   5.531   6.850   7.207 -0.3957  0.1669 -0.3267
   18MOL   N108 2862   5.523   6.919   7.084  0.2431 -0.1055  0.3038
   18MOL   H109 2863   5.614   6.662   7.108  0.9626 -1.9961  1.3404
   18MOL   H110 2864   5.599   6.658   0.002  1.3106  0.0206  0.4815
   18MOL   H111 2865   5.570   6.915   0.009 -0.0032  0.5452 -0.8416
   18MOL   H112 2866   5.482   7.008   7.108 -1.6143 -1.3283  1.8333
   18MOL   H113 2867   5.454   6.869   7.029  2.0769 -1.3525 -0.9260
   18MOL   C114 2868   5.384   6.805   7.257  0.6846  0.3237  0.4019
   18MOL   C115 2869   5.364   6.833   0.129  1.0477  0.2420 -0.1051
   18MOL   N116 2870   5.227   6.818   0.154  0.4997 -0.1039  0.4224
   18MOL   H117 2871   5.316   6.858   7.190  0.3085 -0.3394  0.2560
   18MOL   H118 2872   5.380   6.699   7.235  1.0516  0.5302 -0.7242
   18MOL   H119 2873   5.390   6.938   0.136  0.5576  0.7347 -4.0936
   18MOL   H120 2874   5.208   6.844   0.250  0.9062  1.9597 -0.0198
   18MOL   H121 2875   5.208   6.720   0.139  0.5449  0.2411 -2.0975
   18MOL   C122 2876   5.437   6.741   0.220  0.5430  0.1940  0.2071
   18MOL   C123 2877   5.455   6.783   0.361  0.0944 -0.7999  0.0356
   18MOL   N124 2878   5.505   6.669   0.433  0.3045  0.4633 -0.2847
   18MOL   H125 2879   5.381   6.647   0.218  2.6370 -1.0763  0.2256
   18MOL   H126 2880   5.538   6.719   0.187  1.0844 -0.8341  2.4190
   18MOL   H127 2881   5.358   6.796   0.408 -0.0030 -2.4921  0.3317
   18MOL   H128 2882   5.581   6.621   0.387  0.1110 -0.9643  0.8514
   18MOL   H129 2883   5.543   6.703   0.520 -0.2322  2.8546 -0.9460
   18MOL   C130 2884   5.546   6.913   0.387  0.2111 -0.1306 -0.6032
   18MOL   C131 2885   5.569   6.949   0.541 -0.0164 -0.3847 -0.2381
   18MOL   N132 2886   5.677   7.040   0.549  0.8784 -0.5787 -0.0089
   18MOL   H133 2887   5.637   6.905   0.329  0.3601  0.9229 -0.5228
   18MOL   H134 2888   5.498   7.004   0.350 -0.6296 -0.6347 -0.7562
   18MOL   H135 2889   5.615   6.863   0.590  2.2620  0.1812 -1.2796
   18MOL   H136 2890   5.666   7.096   0.632  2.9496 -0.7189  0.3881
   18MOL   H137 2891   5.653   7.106   0.475 -0.5110 -1.0345  0.0139
   18MOL   C138 2892   5.446   6.999   0.613 -0.1717 -0.1714  0.3446
   18MOL   C139 2893   5.471   7.069   0.749  0.0110 -0.4040 -0.0597
   18MOL   N140 2894   5.473   7.210   0.733  0.1358  0.3169 -0.2372
   18MOL   H141 2895   5.390   7.065   0.547 -1.9941  0.3773  2.3372
   18MOL   H142 2896   5.377   6.916   0.626 -1.1302  0.4858 -0.4697
   18MOL   H143 2897   5.574   7.052   0.779 -0.5052 -1.0209  1.3832
   18MOL   H144 2898   5.386   7.247   0.769  0.8090  1.6223  0.0981
   18MOL   H145 2899   5.474   7.234   0.635 -0.7613  0.4798 -0.2062
   18MOL   C146 2900   5.379   7.030   0.863  0.9808  0.0033 -0.2858
   18MOL   C147 2901   5.428   6.909   0.955  0.1959  0.2063  0.2486
   18MOL   N148 2902   5.333   6.904   1.063  0.2065 -0.1713  0.3672
   18MOL   H149 2903   5.373   7.111   0.935 -0.0674  0.1245 -0.5116
   18MOL   H150 2904   5.279   7.018   0.822  1.5797  2.2905 -2.4756
   18MOL   H151 2905   5.528   6.930   0.994 -0.1436  1.7689  0.3224
   18MOL   H152 2906   5.347   6.816   1.110  0.2819 -0.2162  0.2589
   18MOL   H153 2907   5.347   6.978   1.130 -0.2621  0.5177 -0.2879
   18MOL   C154 2908   5.447   6.782   0.876  0.4271  0.1358  0.2455
   18MOL   C155 2909   5.498   6.663   0.962  1.0194  0.0125 -0.7210
   18MOL   N156 2910   5.489   6.541   0.891  0.6210 -0.2833  0.7976
   18MOL   H157 2911   5.347   6.756   0.841  1.2277  0.6700 -2.5616
   18MOL   H158 2912   5.503   6.796   0.783  0.2733 -0.1021  0.1163
   18MOL   H159 2913   5.444   6.650   1.056 -0.9583  1.3694 -1.6378
   18MOL   H160 2914   5.549   6.483   0.947 -1.9550 -3.6394  0.2836
   18MOL   H161 2915   5.544   6.550   0.807  0.5655 -1.1170  0.6616
   18MOL   H162 2916   5.602   6.685   0.986  1.2933 -2.5827  0.7285
   19MOL     C1 2917   5.906   5.961   5.101  0.1760  0.4980  0.2620
   19MOL     C2 2918   5.859   6.046   5.221  0.4252 -0.1552  0.1517
   19MOL     N3 2919   5.902   5.971   5.334 -0.0400  0.6231  0.1874
   19MOL     H4 2920   6.014   5.955   5.087  0.5026  1.2522  2.3594
   19MOL     H5 2921   5.867   5.998   5.006  1.4638  1.9367  0.2732
   19MOL     H6 2922   5.752   6.052   5.201  0.5473  1.7647 -0.0454
   19MOL     H7 2923   5.919   5.878   5.300 -2.8847  0.2670 -0.4089
   19MOL     H8 2924   5.815   5.957   5.384 -2.3502  0.2334 -3.7609
   19MOL     H9 2925   5.875   5.857   5.099 -1.0144  0.8572 -2.0658
   19MOL    C10 2926   5.914   6.189   5.229  1.0200  0.1649 -0.2479
   19MOL    C11 2927   5.903   6.269   5.100  0.0358 -0.0331 -0.5183
   19MOL    N12 2928   5.763   6.307   5.067 -0.5103 -0.1661  0.0055
   19MOL    H13 2929   5.872   6.242   5.314  0.3698 -1.1777  0.2748
   19MOL    H14 2930   6.021   6.183   5.248  1.1133  2.7287  0.2614
   19MOL    H15 2931   5.939   6.208   5.017 -2.0597 -0.8003 -0.8884
   19MOL    H16 2932   5.711   6.357   5.137  0.3303  0.9923 -0.1741
   19MOL    H17 2933   5.760   6.357   4.979 -1.3598 -2.0157 -1.0469
   19MOL    C18 2934   5.990   6.397   5.115  0.3338  0.0365 -0.5873
   19MOL    C19 2935   5.980   6.508   5.009 -0.8723  0.6640 -0.4804
   19MOL    N20 2936   6.044   6.631   5.063 -0.2830  0.0439 -1.0725
   19MOL    H21 2937   5.973   6.437   5.215 -1.6328  0.9535 -1.2554
   19MOL    H22 2938   6.093   6.368   5.135  0.1321 -0.1133  0.2808
   19MOL    H23 2939   5.874   6.532   5.006 -1.0312  0.3318  1.3852
   19MOL    H24 2940   5.974   6.702   5.049  1.9263  2.5661  0.2488
   19MOL    H25 2941   6.059   6.618   5.162 -0.1353  2.2789 -0.7767
   19MOL    C26 2942   6.035   6.464   4.872 -0.1597  0.3935 -0.1104
   19MOL    C27 2943   6.013   6.548   4.746 -0.2521  0.3105  0.5827
   19MOL    N28 2944   6.110   6.503   4.641  0.1029  0.5705  0.4956
   19MOL    H29 2945   6.138   6.431   4.883  0.2685  1.7526  0.0861
   19MOL    H30 2946   5.993   6.369   4.842 -2.4663  0.9971  1.0528
   19MOL    H31 2947   6.029   6.651   4.778 -1.0901  1.3872 -2.3201
   19MOL    H32 2948   6.096   6.565   4.562 -0.4492  0.5176  0.5475
   19MOL    H33 2949   6.200   6.502   4.686  0.5741  1.4252 -0.4052
   19MOL    C34 2950   5.864   6.549   4.692 -1.0830  0.2745 -0.0553
   19MOL    C35 2951   5.828   6.673   4.606  0.7904 -0.0019  0.2794
   19MOL    N36 2952   5.732   6.634   4.499  0.1115  0.0320  0.4628
   19MOL    H37 2953   5.820   6.456   4.655 -1.9254  1.4383 -2.0588
   19MOL    H38 2954   5.795   6.557   4.776 -0.7902 -0.2350  0.2368
   19MOL    H39 2955   5.919   6.708   4.557 -0.8529  1.9507 -1.4512
   19MOL    H40 2956   5.664   6.576   4.546  0.9011 -2.0561 -0.9484
   19MOL    H41 2957   5.668   6.712   4.501  1.0606  0.8167  0.7400
   19MOL    C42 2958   5.763   6.785   4.687  0.0247  0.8876  0.4208
   19MOL    C43 2959   5.841   6.860   4.793 -0.5519  0.3610 -0.2304
   19MOL    N44 2960   5.955   6.935   4.741  0.1634  0.0463  0.0169
   19MOL    H45 2961   5.728   6.868   4.625 -2.1252 -0.1077  0.2683
   19MOL    H46 2962   5.670   6.749   4.729 -0.4583 -1.6801 -2.6163
   19MOL    H47 2963   5.873   6.787   4.867 -2.3723  0.3820  0.5993
   19MOL    H48 2964   6.006   6.965   4.823 -1.3328  0.6270  0.7436
   19MOL    H49 2965   6.008   6.858   4.702 -0.9026 -1.0722  0.7588
   19MOL    C50 2966   5.756   6.954   4.880  0.8476  0.4892  0.4512
   19MOL    C51 2967   5.721   6.896   5.021 -0.4159 -0.3223  0.3351
   19MOL    N52 2968   5.710   7.015   5.097  0.2382 -0.1044 -0.4550
   19MOL    H53 2969   5.817   7.044   4.888  2.0053 -0.2935  0.4633
   19MOL    H54 2970   5.664   6.991   4.835  0.1543 -0.2086  1.2678
   19MOL    H55 2971   5.807   6.840   5.060 -1.9639 -2.6506  0.5444
   19MOL    H56 2972   5.686   6.983   5.190  1.1789 -1.4472 -0.6601
   19MOL    H57 2973   5.639   7.080   5.068 -0.1331 -1.0766 -1.7638
   19MOL    C58 2974   5.591   6.821   5.020 -0.3621  0.1053 -0.1387
   19MOL    C59 2975   5.610   6.669   5.032  0.1305  0.3370 -0.2127
   19MOL    N60 2976   5.663   6.626   5.160  0.3598  0.1348  0.5380
   19MOL    H61 2977   5.529   6.841   5.108 -0.1347 -0.5649  0.1787
   19MOL    H62 2978   5.540   6.846   4.927  1.8384  1.0108 -1.1224
   19MOL    H63 2979   5.681   6.634   4.956  0.2962 -0.5448  0.3476
   19MOL    H64 2980   5.739   6.686   5.190  0.6513 -1.4499  3.0970
   19MOL    H65 2981   5.601   6.630   5.239  0.9406  2.5389  0.9109
   19MOL    C66 2982   5.482   6.595   5.010 -0.3235  0.2897  0.4571
   19MOL    C67 2983   5.417   6.602   4.876 -0.0699  0.3963 -0.4456
   19MOL    N68 2984   5.354   6.476   4.839 -0.4421 -0.2312  0.1268
   19MOL    H69 2985   5.492   6.493   5.048  0.5861  0.0351 -0.4449
   19MOL    H70 2986   5.408   6.638   5.078  1.1905  0.5461  1.9751
   19MOL    H71 2987   5.496   6.616   4.803 -0.5960  1.2577 -0.8549
   19MOL    H72 2988   5.400   6.395   4.878 -0.6591 -0.3177  0.2051
   19MOL    H73 2989   5.371   6.464   4.741 -0.2578  0.8570  0.0184
   19MOL    C74 2990   5.315   6.720   4.856 -0.5772  0.0079  0.1682
   19MOL    C75 2991   5.267   6.751   4.714 -0.0573  0.0622  0.1405
   19MOL    N76 2992   5.153   6.842   4.711  0.4213 -0.3997 -0.2649
   19MOL    H77 2993   5.220   6.696   4.903 -0.3895 -0.5834  0.2433
   19MOL    H78 2994   5.339   6.817   4.900  0.9318  0.3931 -1.4478
   19MOL    H79 2995   5.228   6.654   4.682  1.6411 -0.2557 -1.0392
   19MOL    H80 2996   5.121   6.863   4.617 -0.2809 -1.9571 -0.3905
   19MOL    H81 2997   5.079   6.792   4.757  1.8978 -1.0584  1.4336
   19MOL    C82 2998   5.380   6.808   4.625 -0.8504 -0.1501  0.3200
   19MOL    C83 2999   5.390   6.763   4.471  0.7230 -0.7786 -0.5270
   19MOL    N84 3000   5.515   6.801   4.420 -1.1769  0.3842  0.4108
   19MOL    H85 3001   5.381   6.917   4.625  1.5758 -0.1254  0.8597
   19MOL    H86 3002   5.480   6.789   4.666 -1.2997  0.9105  1.9525
   19MOL    H87 3003   5.322   6.826   4.413 -0.5198 -0.7952  0.8894
   19MOL    H88 3004   5.525   6.901   4.431 -1.9690  0.4329  0.7155
   19MOL    H89 3005   5.514   6.794   4.319 -1.1763 -2.1670  0.5656
   19MOL    C90 3006   5.353   6.611   4.437  0.1101  0.8577  0.1546
   19MOL    C91 3007   5.200   6.579   4.415  0.6524 -0.2026 -0.2294
   19MOL    N92 3008   5.165   6.623   4.289 -0.2217  0.2556  0.0286
   19MOL    H93 3009   5.407   6.562   4.356  2.1828 -1.1241  2.6712
   19MOL    H94 3010   5.385   6.545   4.517 -1.9230 -1.5492 -0.9165
   19MOL    H95 3011   5.134   6.628   4.488  0.4520 -1.3923  0.3946
   19MOL    H96 3012   5.066   6.640   4.280 -0.1426  1.3499  1.1138
   19MOL    H97 3013   5.183   6.549   4.222 -1.2900 -1.1072  1.2224
   19MOL    C98 3014   5.156   6.427   4.418  0.5515  0.3568  0.1486
   19MOL    C99 3015   5.190   6.350   4.549  0.0183  0.3312  0.2426
   19MOL   N100 3016   5.070   6.284   4.612  0.2416 -0.1372 -0.2606
   19MOL   H101 3017   5.049   6.422   4.399  0.4522 -0.7092  0.9452
   19MOL   H102 3018   5.208   6.377   4.336  0.9661  0.3823  0.3968
   19MOL   H103 3019   5.233   6.419   4.622 -2.2879  0.4840  1.5289
   19MOL   H104 3020   4.985   6.338   4.601  1.2279  1.8131  1.3439
   19MOL   H105 3021   5.083   6.286   4.712 -1.6478 -1.0222  0.0163
   19MOL   C106 3022   5.290   6.232   4.517 -0.3293  0.0227  0.3936
   19MOL   C107 3023   5.438   6.266   4.497  0.7405  0.5266  0.5452
   19MOL   N108 3024   5.492   6.310   4.622  0.5664  0.0367  0.7083
   19MOL   H109 3025   5.287   6.153   4.592  2.1258 -0.2790  0.2164
   19MOL   H110 3026   5.257   6.181   4.426 -0.6179  1.1922 -0.1647
   19MOL   H111 3027   5.443   6.348   4.424  1.0049 -1.2092 -1.4396
   19MOL   H112 3028   5.454   6.263   4.702 -0.2197 -0.4873  0.0321
   19MOL   H113 3029   5.592   6.294   4.622  0.3803 -1.1081  0.4619
   19MOL   C114 3030   5.515   6.147   4.431 -0.4589 -0.5526  0.4466
   19MOL   C115 3031   5.663   6.170   4.395  0.1616  0.2726 -0.2043
   19MOL   N116 3032   5.733   6.048   4.357 -0.0714 -0.3584 -0.6303
   19MOL   H117 3033   5.495   6.067   4.503  0.0360 -0.9101  0.1889
   19MOL   H118 3034   5.465   6.104   4.344  0.3135 -1.6425  0.5272
   19MOL   H119 3035   5.709   6.211   4.485 -2.5176  1.1935  0.8042
   19MOL   H120 3036   5.662   5.986   4.321 -2.6556  0.0629  3.3837
   19MOL   H121 3037   5.745   6.016   4.452 -0.0755  1.0376 -0.1414
   19MOL   C122 3038   5.675   6.269   4.273  0.7911  0.4710 -0.2062
   19MOL   C123 3039   5.822   6.329   4.258 -0.1486  0.2501 -0.0217
   19MOL   N124 3040   5.903   6.218   4.193 -0.4268 -0.2211 -0.1302
   19MOL   H125 3041   5.644   6.226   4.178  1.4606  1.4169 -0.8699
   19MOL   H126 3042   5.602   6.350   4.282 -2.1501 -2.0570 -0.6229
   19MOL   H127 3043   5.864   6.361   4.353 -3.3950 -0.5762  1.7507
   19MOL   H128 3044   5.992   6.225   4.240 -0.6050  3.1312 -0.1361
   19MOL   H129 3045   5.853   6.141   4.234 -2.9474  1.8260  0.8290
   19MOL   C130 3046   5.823   6.448   4.160  0.1786  0.0572  0.3766
   19MOL   C131 3047   5.959   6.528   4.152  0.4202  0.8930  0.6106
   19MOL   N132 3048   5.935   6.626   4.050  0.1347 -0.5768 -0.0666
   19MOL   H133 3049   5.786   6.420   4.062 -0.8957  0.4510  0.6634
   19MOL   H134 3050   5.756   6.524   4.200 -0.2346 -0.9677  1.6591
   19MOL   H135 3051   6.040   6.463   4.118  0.8744  0.8872  1.6765
   19MOL   H136 3052   5.911   6.707   4.104 -1.8289 -1.3900  0.3069
   19MOL   H137 3053   6.025   6.653   4.012  0.4281 -1.5775 -0.1059
   19MOL   C138 3054   6.007   6.596   4.287 -0.0274 -0.4596  0.6435
   19MOL   C139 3055   6.118   6.703   4.281 -0.1031 -0.3851 -0.3534
   19MOL   N140 3056   6.134   6.756   4.416 -0.0081  0.2069  0.4013
   19MOL   H141 3057   5.923   6.649   4.330  0.2297  1.5932 -1.3345
   19MOL   H142 3058   6.044   6.514   4.349  1.7700 -0.8781 -0.9227
   19MOL   H143 3059   6.082   6.781   4.213 -1.1976  0.8593  1.6011
   19MOL   H144 3060   6.213   6.816   4.430 -0.6178  1.2607 -0.5890
   19MOL   H145 3061   6.058   6.806   4.461 -0.8714 -0.6189 -0.0978
   19MOL   C146 3062   6.253   6.637   4.241 -0.4736 -0.8702  0.3796
   19MOL   C147 3063   6.368   6.725   4.200  0.0234 -0.3969  0.1985
   19MOL   N148 3064   6.484   6.645   4.191  0.3718  0.1734 -0.6878
   19MOL   H149 3065   6.292   6.556   4.302 -0.9051 -2.2867 -1.1925
   19MOL   H150 3066   6.232   6.574   4.155  2.3328  1.0971 -1.8539
   19MOL   H151 3067   6.388   6.798   4.278 -0.2813  0.3088 -0.3724
   19MOL   H152 3068   6.565   6.703   4.173  0.8420  0.1913  1.3915
   19MOL   H153 3069   6.508   6.607   4.281 -2.3946  0.7133  0.3210
   19MOL   C154 3070   6.335   6.788   4.061 -1.1049 -0.0455 -0.4936
   19MOL   C155 3071   6.292   6.694   3.942 -0.3722  0.1403  0.8349
   19MOL   N156 3072   6.238   6.771   3.829 -0.3887  1.0786 -0.3002
   19MOL   H157 3073   6.264   6.866   4.086  1.0060  1.6711  0.2920
   19MOL   H158 3074   6.426   6.827   4.014 -0.9444 -0.7782 -0.7949
   19MOL   H159 3075   6.216   6.622   3.974 -0.1444 -0.5414 -0.1239
   19MOL   H160 3076   6.204   6.702   3.763  1.0417 -1.2383  1.3191
   19MOL   H161 3077   6.311   6.822   3.782  0.2446  0.7156  0.2713
   19MOL   H162 3078   6.373   6.636   3.898  0.0738  0.5116  1.1617
   20MOL     C1 3079   5.836   3.366   1.623 -0.2182 -0.8672 -0.0441
   20MOL     C2 3080   5.766   3.310   1.497 -0.2131 -0.0197 -0.5191
   20MOL     N3 3081   5.867   3.270   1.394  0.8618 -0.4448 -0.0915
   20MOL     H4 3082   5.904   3.445   1.589 -0.9829  0.0508  0.5442
   20MOL     H5 3083   5.894   3.303   1.690  0.5587  0.4524  0.5584
   20MOL     H6 3084   5.712   3.389   1.444 -0.2036 -0.0099 -0.5141
   20MOL     H7 3085   5.938   3.225   1.450 -1.8915 -2.3079  2.0119
   20MOL     H8 3086   5.833   3.191   1.340  2.9158 -1.5233  0.1340
   20MOL     H9 3087   5.763   3.425   1.678  0.3825  0.2912 -0.4416
   20MOL    C10 3088   5.662   3.193   1.507  0.0418  0.3390  0.6105
   20MOL    C11 3089   5.565   3.195   1.622  0.2203 -0.3496 -0.3724
   20MOL    N12 3090   5.506   3.329   1.628 -0.1935  0.1254  0.2168
   20MOL    H13 3091   5.617   3.194   1.408  0.7090 -2.6462  0.2323
   20MOL    H14 3092   5.712   3.096   1.518 -2.6249 -1.2311 -0.5787
   20MOL    H15 3093   5.620   3.188   1.716 -1.4405 -0.1309  0.6396
   20MOL    H16 3094   5.562   3.382   1.693  0.3757 -1.9178  1.4335
   20MOL    H17 3095   5.412   3.340   1.664 -0.5626 -0.2368 -0.6166
   20MOL    C18 3096   5.453   3.097   1.627 -0.3431 -0.5214  0.9900
   20MOL    C19 3097   5.498   2.954   1.681  0.6068 -0.1405  0.0244
   20MOL    N20 3098   5.429   2.906   1.799 -0.3751  0.0860 -0.1827
   20MOL    H21 3099   5.374   3.135   1.692 -0.7517 -2.5664  1.7222
   20MOL    H22 3100   5.406   3.089   1.528 -0.4012  0.5834  0.9193
   20MOL    H23 3101   5.606   2.958   1.693  0.7606 -0.2357 -1.2031
   20MOL    H24 3102   5.437   2.981   1.866 -4.3925  0.1141  0.3826
   20MOL    H25 3103   5.331   2.896   1.777 -0.4831 -0.1305  0.3847
   20MOL    C26 3104   5.485   2.837   1.580  0.1708 -0.7253 -0.2528
   20MOL    C27 3105   5.568   2.852   1.454 -0.6482 -0.1784 -0.2639
   20MOL    N28 3106   5.707   2.830   1.484 -0.1583 -0.3942  0.3442
   20MOL    H29 3107   5.522   2.746   1.628  3.0238  1.3981  1.6459
   20MOL    H30 3108   5.379   2.826   1.555  0.4316 -1.6673 -0.9714
   20MOL    H31 3109   5.552   2.952   1.415  1.8545  1.0710  1.8096
   20MOL    H32 3110   5.715   2.736   1.522  2.0181 -0.1018  0.6940
   20MOL    H33 3111   5.724   2.892   1.562 -0.7268  0.6450 -0.3645
   20MOL    C34 3112   5.518   2.748   1.349 -0.1312  0.0871  0.2143
   20MOL    C35 3113   5.589   2.750   1.214  0.3265  0.1482  0.3214
   20MOL    N36 3114   5.523   2.648   1.137  0.4993 -0.4480  1.0001
   20MOL    H37 3115   5.525   2.645   1.385 -0.3009  0.7734  2.2713
   20MOL    H38 3116   5.412   2.769   1.333  0.0673 -1.0939 -3.0336
   20MOL    H39 3117   5.695   2.729   1.222  0.0238 -1.9415 -0.8524
   20MOL    H40 3118   5.534   2.658   1.037 -2.2779  1.3220  0.8068
   20MOL    H41 3119   5.426   2.674   1.141  0.8220  1.0175 -0.1627
   20MOL    C42 3120   5.590   2.891   1.142 -0.4619  1.0615  0.2710
   20MOL    C43 3121   5.719   2.922   1.060 -0.0008 -0.1606  0.3166
   20MOL    N44 3122   5.685   3.003   0.946 -0.2392  0.4104  0.2595
   20MOL    H45 3123   5.494   2.894   1.091 -0.4083  0.0526  0.0832
   20MOL    H46 3124   5.583   2.977   1.208 -0.2024  1.1993  0.1178
   20MOL    H47 3125   5.760   2.832   1.014  1.3002  1.9303 -2.8480
   20MOL    H48 3126   5.617   2.951   0.893 -2.1574  0.9766  2.1092
   20MOL    H49 3127   5.634   3.088   0.962  0.3547  0.9067 -0.4536
   20MOL    C50 3128   5.815   3.008   1.154  0.4598 -0.2943  0.5644
   20MOL    C51 3129   5.957   3.039   1.097  0.2114  0.8016 -0.0074
   20MOL    N52 3130   5.978   3.184   1.103  0.1551 -0.1177  0.0525
   20MOL    H53 3131   5.770   3.100   1.190 -0.8154 -1.1504  1.1822
   20MOL    H54 3132   5.815   2.953   1.248  3.0382 -0.5499  0.4511
   20MOL    H55 3133   5.960   3.011   0.992 -0.8014  0.3566  0.0814
   20MOL    H56 3134   5.939   3.231   1.022 -2.3013 -2.9999 -0.5365
   20MOL    H57 3135   5.929   3.217   1.185  1.5749  0.1161  0.8113
   20MOL    C58 3136   6.078   2.971   1.170  0.3161 -0.6952 -0.3098
   20MOL    C59 3137   6.105   2.819   1.143 -0.9738  0.4578 -0.2271
   20MOL    N60 3138   6.243   2.797   1.185 -0.2695  0.1481 -0.0387
   20MOL    H61 3139   6.154   3.040   1.134  0.3418 -0.5677 -0.0087
   20MOL    H62 3140   6.069   2.989   1.277 -1.4602  1.2323 -0.7665
   20MOL    H63 3141   6.103   2.802   1.036  0.9366 -2.1217  0.0769
   20MOL    H64 3142   6.314   2.835   1.123 -1.8984  0.2541 -1.9060
   20MOL    H65 3143   6.271   2.829   1.276 -0.6891 -0.2761  0.2438
   20MOL    C66 3144   6.008   2.727   1.225  0.7788 -0.0598  0.0080
   20MOL    C67 3145   5.975   2.585   1.174  0.5254 -0.6020 -0.0909
   20MOL    N68 3146   5.876   2.524   1.258 -0.1451  0.1070 -0.0937
   20MOL    H69 3147   6.039   2.708   1.328  1.3782 -0.6145 -0.2740
   20MOL    H70 3148   5.910   2.776   1.231 -0.0403 -1.6454 -0.1122
   20MOL    H71 3149   6.072   2.533   1.174  0.1105 -1.3821  0.1644
   20MOL    H72 3150   5.852   2.444   1.201 -2.4878  1.7512 -1.5042
   20MOL    H73 3151   5.793   2.581   1.248 -0.1983 -0.1883 -1.3192
   20MOL    C74 3152   5.929   2.574   1.024  0.1354  1.0801  0.3975
   20MOL    C75 3153   5.968   2.435   0.957 -0.3160 -0.3090  0.2019
   20MOL    N76 3154   5.845   2.353   0.942  0.5784 -0.3115 -0.0853
   20MOL    H77 3155   5.822   2.592   1.017  0.0457  0.9148  1.2454
   20MOL    H78 3156   5.968   2.654   0.961  3.6188 -2.9153 -2.8583
   20MOL    H79 3157   6.043   2.382   1.015  0.1250  0.7290  0.5841
   20MOL    H80 3158   5.868   2.257   0.919 -2.5819 -1.0496 -0.5036
   20MOL    H81 3159   5.795   2.385   0.860  0.8427 -0.5373 -0.3333
   20MOL    C82 3160   6.033   2.453   0.814  0.0232  0.1960 -0.5975
   20MOL    C83 3161   6.169   2.536   0.809  0.1194 -0.2233 -0.1016
   20MOL    N84 3162   6.272   2.440   0.863 -0.7468 -0.2534  0.1301
   20MOL    H85 3163   6.042   2.354   0.768 -0.3430  0.4748 -1.2741
   20MOL    H86 3164   5.956   2.507   0.758 -0.6912 -0.3621 -0.1600
   20MOL    H87 3165   6.173   2.623   0.876 -2.3337 -0.4798  0.4087
   20MOL    H88 3166   6.265   2.426   0.963 -3.2299 -2.4308 -0.2984
   20MOL    H89 3167   6.252   2.346   0.830  1.6053 -1.5648  2.2589
   20MOL    C90 3168   6.211   2.580   0.666 -0.2229  0.7306  0.0016
   20MOL    C91 3169   6.251   2.729   0.653  0.3248 -0.1790  0.5592
   20MOL    N92 3170   6.302   2.753   0.516 -0.2519 -0.1206 -0.3688
   20MOL    H93 3171   6.294   2.515   0.638 -0.6093  0.4097 -0.4062
   20MOL    H94 3172   6.126   2.559   0.601  0.8755 -1.8044 -0.6512
   20MOL    H95 3173   6.338   2.757   0.713  0.7516 -0.7105  0.1942
   20MOL    H96 3174   6.248   2.822   0.466 -1.4117 -0.7188  0.0341
   20MOL    H97 3175   6.283   2.668   0.464 -0.9692 -0.5542  0.5666
   20MOL    C98 3176   6.136   2.824   0.683 -0.1185  0.3249  0.4340
   20MOL    C99 3177   6.167   2.972   0.650 -0.5217  0.8731 -0.5188
   20MOL   N100 3178   6.049   3.047   0.645 -0.1633 -0.1337 -0.0260
   20MOL   H101 3179   6.047   2.794   0.626  0.0695 -2.0729  1.3451
   20MOL   H102 3180   6.096   2.815   0.784 -1.3600 -0.4316 -0.1116
   20MOL   H103 3181   6.213   2.982   0.552 -1.1941 -0.3424 -0.9737
   20MOL   H104 3182   6.014   3.034   0.551  1.9289  0.8952 -1.0031
   20MOL   H105 3183   5.974   3.021   0.707  0.0267  2.7540  1.4965
   20MOL   C106 3184   6.258   3.044   0.751  0.6382 -0.3316 -0.2028
   20MOL   C107 3185   6.406   3.046   0.716  0.1862 -0.2737  0.1175
   20MOL   N108 3186   6.415   3.126   0.593 -0.1003  0.7670  0.4076
   20MOL   H109 3187   6.223   3.147   0.758 -0.0415 -0.7065  3.2691
   20MOL   H110 3188   6.252   3.006   0.853  2.3368 -2.0173 -0.7109
   20MOL   H111 3189   6.439   2.951   0.673 -0.4325  0.6926 -2.6381
   20MOL   H112 3190   6.456   3.062   0.526 -0.0045  0.1430  1.0532
   20MOL   H113 3191   6.317   3.139   0.571  0.2725  0.4517 -1.5176
   20MOL   C114 3192   6.497   3.094   0.826 -0.5209  0.1080 -0.2311
   20MOL   C115 3193   6.585   2.983   0.898  0.0176  0.4923  0.1523
   20MOL   N116 3194   6.690   3.040   0.978 -0.6251 -0.4233  0.1837
   20MOL   H117 3195   6.571   3.169   0.797 -0.2756  0.5738  1.4926
   20MOL   H118 3196   6.437   3.146   0.900 -0.8327  0.6582 -0.8702
   20MOL   H119 3197   6.641   2.933   0.819 -1.3867  1.4851 -1.5123
   20MOL   H120 3198   6.737   3.112   0.925  0.0487  0.0412  1.3943
   20MOL   H121 3199   6.656   3.088   1.060 -1.7720  0.1142 -0.5783
   20MOL   C122 3200   6.510   2.876   0.984 -0.4697 -0.4813  0.1451
   20MOL   C123 3201   6.611   2.761   1.014  0.3041  0.0233  0.3587
   20MOL   N124 3202   6.566   2.697   1.135  0.2085  0.0924 -0.2992
   20MOL   H125 3203   6.478   2.925   1.076 -1.2132 -2.2109  0.8159
   20MOL   H126 3204   6.418   2.841   0.936  0.6516 -1.2855 -1.4755
   20MOL   H127 3205   6.711   2.798   1.034 -0.2195  1.5528  0.2258
   20MOL   H128 3206   6.466   2.682   1.143  0.4765 -0.7467  1.9190
   20MOL   H129 3207   6.581   2.760   1.213 -1.1192  0.0997 -0.0359
   20MOL   C130 3208   6.612   2.645   0.908 -0.2454  0.1483 -0.4997
   20MOL   C131 3209   6.691   2.674   0.784 -0.4480 -0.0361 -0.2422
   20MOL   N132 3210   6.815   2.729   0.818 -0.5105  0.1272 -0.1016
   20MOL   H133 3211   6.645   2.559   0.965  1.2767  0.2324 -1.2284
   20MOL   H134 3212   6.506   2.626   0.889 -0.5747  2.7024 -1.4009
   20MOL   H135 3213   6.643   2.746   0.718 -0.0626 -0.4109 -0.9331
   20MOL   H136 3214   6.801   2.794   0.894 -0.8885  0.1808 -0.2190
   20MOL   H137 3215   6.846   2.774   0.734  2.8918 -1.2453  0.3103
   20MOL   C138 3216   6.717   2.552   0.695  0.0358  0.7640 -0.1483
   20MOL   C139 3217   6.591   2.485   0.637 -0.4759 -0.4862 -0.3540
   20MOL   N140 3218   6.548   2.551   0.517 -1.0655 -0.6988  0.9146
   20MOL   H141 3219   6.774   2.586   0.609 -0.4758  1.1394 -0.3360
   20MOL   H142 3220   6.774   2.480   0.755  0.9577  1.5120 -0.1156
   20MOL   H143 3221   6.515   2.484   0.715 -1.2110  0.9984 -1.0490
   20MOL   H144 3222   6.474   2.504   0.466  1.3114 -0.0858 -3.3285
   20MOL   H145 3223   6.516   2.642   0.548 -0.3290 -0.6593  1.5692
   20MOL   C146 3224   6.621   2.339   0.613  0.2140 -0.4041 -0.2097
   20MOL   C147 3225   6.639   2.265   0.749  0.7701  0.1670 -0.3391
   20MOL   N148 3226   6.508   2.237   0.807  0.9531 -0.2885  0.1064
   20MOL   H149 3227   6.535   2.293   0.564 -0.5912 -2.6327  3.0977
   20MOL   H150 3228   6.713   2.331   0.555 -0.5059 -1.3715 -1.2348
   20MOL   H151 3229   6.707   2.313   0.818  3.0228  0.4368 -2.6786
   20MOL   H152 3230   6.460   2.325   0.819 -1.2734 -1.5212  0.4964
   20MOL   H153 3231   6.516   2.204   0.902  0.8626 -0.4396  0.0609
   20MOL   C154 3232   6.711   2.131   0.708  0.0581 -0.3122  0.4891
   20MOL   C155 3233   6.740   2.051   0.828  0.5196 -0.3814 -0.0735
   20MOL   N156 3234   6.782   1.912   0.788  0.2735 -0.1986  0.0867
   20MOL   H157 3235   6.632   2.091   0.644 -1.4674  2.6716  0.4388
   20MOL   H158 3236   6.810   2.142   0.664  0.0953 -2.1071  0.0822
   20MOL   H159 3237   6.659   2.024   0.895  1.8202  0.9944  2.1288
   20MOL   H160 3238   6.820   1.868   0.871 -1.9715 -1.4279  0.5137
   20MOL   H161 3239   6.868   1.929   0.737 -0.4030 -0.0435 -1.0314
   20MOL   H162 3240   6.826   2.097   0.877  1.2832 -2.3409  0.4991
   21MOL     C1 3241   5.648   3.618   1.015  0.0711  0.0392 -0.2456
   21MOL     C2 3242   5.727   3.486   1.045 -0.8404 -0.8789  1.1163
   21MOL     N3 3243   5.844   3.536   1.107 -0.2731 -0.3467  0.1106
   21MOL     H4 3244   5.714   3.696   0.977  1.3539 -0.7126  0.4009
   21MOL     H5 3245   5.585   3.660   1.093  1.9711  0.2604  1.2311
   21MOL     H6 3246   5.742   3.445   0.945 -2.0463 -2.2549  1.4883
   21MOL     H7 3247   5.903   3.456   1.122  1.9175  1.0612 -0.7229
   21MOL     H8 3248   5.828   3.579   1.197  0.2655 -0.2758  0.1739
   21MOL     H9 3249   5.583   3.585   0.934 -0.3583 -0.1823  0.1897
   21MOL    C10 3250   5.648   3.383   1.127 -0.5028 -0.3550 -0.8425
   21MOL    C11 3251   5.505   3.330   1.067 -0.5379  0.0256  0.2168
   21MOL    N12 3252   5.537   3.265   0.939 -0.2894 -0.5376 -0.5495
   21MOL    H13 3253   5.707   3.293   1.142 -0.3378 -0.3138 -1.2346
   21MOL    H14 3254   5.635   3.423   1.228 -3.7252  0.3265 -1.4591
   21MOL    H15 3255   5.453   3.424   1.045  1.2188  0.8556 -0.4753
   21MOL    H16 3256   5.553   3.333   0.865 -3.6956 -1.0497 -1.8354
   21MOL    H17 3257   5.469   3.200   0.902 -0.3355 -0.5525 -0.4380
   21MOL    C18 3258   5.412   3.235   1.152  0.1194  0.2379 -0.4258
   21MOL    C19 3259   5.290   3.308   1.214 -0.0133 -0.4760  0.5980
   21MOL    N20 3260   5.194   3.214   1.261 -0.5402 -0.1396 -0.1231
   21MOL    H21 3261   5.381   3.151   1.089  0.1373  0.8753 -1.2902
   21MOL    H22 3262   5.465   3.195   1.238 -0.5140 -0.3679 -0.3113
   21MOL    H23 3263   5.259   3.386   1.144  3.9265  0.7288  0.1131
   21MOL    H24 3264   5.212   3.205   1.360  1.4348  1.5006 -0.3169
   21MOL    H25 3265   5.226   3.127   1.221  2.2047  0.9790 -0.4675
   21MOL    C26 3266   5.333   3.378   1.347 -0.7677  0.1092  0.5439
   21MOL    C27 3267   5.235   3.487   1.395  0.0630 -0.1662 -0.2568
   21MOL    N28 3268   5.288   3.547   1.516  0.2609  0.1613 -0.5710
   21MOL    H29 3269   5.346   3.311   1.432  1.3909  1.1821  1.0935
   21MOL    H30 3270   5.424   3.432   1.322 -1.6505  0.4177 -2.2744
   21MOL    H31 3271   5.144   3.437   1.429 -0.1790 -1.4440 -2.6929
   21MOL    H32 3272   5.386   3.527   1.526  0.3762  0.5747 -0.8594
   21MOL    H33 3273   5.280   3.648   1.509  1.5016  0.3508  0.4976
   21MOL    C34 3274   5.204   3.611   1.302 -0.6026  0.2928  0.0039
   21MOL    C35 3275   5.067   3.588   1.231  0.2852 -0.4214  0.0046
   21MOL    N36 3276   4.958   3.617   1.326 -0.4025  0.3439  0.3970
   21MOL    H37 3277   5.199   3.707   1.354  1.3923  0.4690 -0.1100
   21MOL    H38 3278   5.295   3.618   1.244  0.4020  0.8159  1.5987
   21MOL    H39 3279   5.060   3.479   1.223  0.1122 -0.5583  1.7597
   21MOL    H40 3280   4.947   3.717   1.332  0.4463  0.4254  0.6015
   21MOL    H41 3281   4.980   3.577   1.416 -1.0191  0.5100  0.6280
   21MOL    C42 3282   5.047   3.673   1.104  0.3564 -0.4228  0.1065
   21MOL    C43 3283   5.069   3.591   0.976  0.2036 -0.8081  0.0069
   21MOL    N44 3284   4.976   3.652   0.883 -0.4851 -0.7856 -0.2404
   21MOL    H45 3285   4.949   3.721   1.111  0.0543 -1.0234  0.0078
   21MOL    H46 3286   5.128   3.746   1.107  0.8936 -0.9029 -1.9383
   21MOL    H47 3287   5.054   3.484   0.995  0.0739 -0.6924  0.5713
   21MOL    H48 3288   4.981   3.599   0.797  0.8020  0.5750 -1.0287
   21MOL    H49 3289   4.879   3.660   0.909 -0.5164  0.0144 -0.5643
   21MOL    C50 3290   5.211   3.598   0.917 -0.1045  0.4758 -0.7379
   21MOL    C51 3291   5.234   3.534   0.780  0.6709 -0.1864  0.4218
   21MOL    N52 3292   5.359   3.588   0.726 -0.0695  0.3029 -1.0075
   21MOL    H53 3293   5.228   3.705   0.900 -1.1660  0.7535 -0.1238
   21MOL    H54 3294   5.284   3.572   0.993 -1.6257 -1.5014  0.1037
   21MOL    H55 3295   5.153   3.554   0.709  0.6482 -0.3738  0.3954
   21MOL    H56 3296   5.389   3.518   0.660 -0.3052 -1.4044  0.6490
   21MOL    H57 3297   5.344   3.676   0.679 -0.3597 -0.5371 -2.5058
   21MOL    C58 3298   5.242   3.379   0.782 -0.1591  0.0752 -0.7883
   21MOL    C59 3299   5.193   3.315   0.653  0.1781 -0.1869 -0.4435
   21MOL    N60 3300   5.295   3.226   0.599 -0.3010  0.5512 -0.3574
   21MOL    H61 3301   5.344   3.346   0.798 -0.6073 -2.2188 -2.4011
   21MOL    H62 3302   5.182   3.343   0.865  0.7432  1.1861  0.3586
   21MOL    H63 3303   5.201   3.396   0.580 -1.2884  0.8966  0.5590
   21MOL    H64 3304   5.382   3.277   0.606 -0.3572  0.7050 -0.7826
   21MOL    H65 3305   5.290   3.213   0.499  1.6176 -3.3694 -0.0302
   21MOL    C66 3306   5.060   3.249   0.670 -0.1938  0.9278 -0.9777
   21MOL    C67 3307   4.937   3.327   0.726  0.6770  0.8299 -0.2212
   21MOL    N68 3308   4.907   3.429   0.631 -0.5267  0.5489  0.5706
   21MOL    H69 3309   5.042   3.206   0.572 -0.4090 -0.4578 -0.3459
   21MOL    H70 3310   5.077   3.159   0.730  0.6199  1.1842 -0.8295
   21MOL    H71 3311   4.961   3.359   0.827  0.3732 -0.8578  0.3980
   21MOL    H72 3312   4.827   3.476   0.672 -0.8128  2.1461 -1.6904
   21MOL    H73 3313   4.874   3.366   0.560  0.6761  0.6667 -0.1035
   21MOL    C74 3314   4.815   3.231   0.735  0.1672 -0.2291 -0.5583
   21MOL    C75 3315   4.815   3.144   0.860 -0.0828  0.5927 -1.2760
   21MOL    N76 3316   4.685   3.089   0.885 -0.4031 -0.1925 -0.6046
   21MOL    H77 3317   4.731   3.300   0.745  0.1442 -0.4482  0.7921
   21MOL    H78 3318   4.801   3.173   0.643 -0.5382 -1.1255  0.1043
   21MOL    H79 3319   4.826   3.212   0.945  1.1682 -2.4718  1.1138
   21MOL    H80 3320   4.611   3.158   0.876 -0.9694 -0.8204 -0.7986
   21MOL    H81 3321   4.671   3.073   0.984 -1.2614  2.1444 -0.3036
   21MOL    C82 3322   4.919   3.029   0.874 -0.1439 -0.4389  0.0719
   21MOL    C83 3323   5.041   3.059   0.968 -0.3449  0.4428  0.0298
   21MOL    N84 3324   4.983   3.076   1.099  0.0114 -0.3496 -0.1992
   21MOL    H85 3325   4.867   2.941   0.910 -0.8829  0.1025  0.3377
   21MOL    H86 3326   4.960   2.990   0.781 -1.6330 -2.4252  0.2275
   21MOL    H87 3327   5.097   3.148   0.938  1.0681 -0.9220 -1.4229
   21MOL    H88 3328   5.058   3.118   1.152 -0.4687  2.0366 -1.3713
   21MOL    H89 3329   4.908   3.144   1.099  0.3988  0.0842 -0.3623
   21MOL    C90 3330   5.138   2.943   0.970 -0.8488  0.4344 -0.0811
   21MOL    C91 3331   5.236   2.925   0.852 -0.2382 -0.1181  0.2415
   21MOL    N92 3332   5.336   3.026   0.854 -0.1076  0.2134  0.3626
   21MOL    H93 3333   5.198   2.959   1.060  0.1638 -2.5471 -0.1851
   21MOL    H94 3334   5.084   2.850   0.987 -0.8655  0.4843  0.1385
   21MOL    H95 3335   5.182   2.941   0.758 -1.3489  0.4249  0.9649
   21MOL    H96 3336   5.299   3.101   0.797 -0.0935  1.2756  1.7273
   21MOL    H97 3337   5.424   2.996   0.814 -1.0563 -0.4634 -1.2677
   21MOL    C98 3338   5.302   2.784   0.863  0.2733  0.1465  0.3758
   21MOL    C99 3339   5.429   2.764   0.777  0.3309 -0.0288 -0.0595
   21MOL   N100 3340   5.503   2.657   0.842 -0.6121  0.1596  0.0426
   21MOL   H101 3341   5.335   2.777   0.967  3.4938  1.4471 -0.5123
   21MOL   H102 3342   5.226   2.706   0.853  1.2561 -0.9286  1.1096
   21MOL   H103 3343   5.502   2.844   0.784  0.4792 -0.1285 -0.5141
   21MOL   H104 3344   5.579   2.630   0.781 -0.4190  0.4856  0.1398
   21MOL   H105 3345   5.445   2.577   0.859  0.2381 -0.2734  0.9584
   21MOL   C106 3346   5.407   2.730   0.632 -0.1868  0.5357 -0.6448
   21MOL   C107 3347   5.530   2.688   0.553  0.0855 -0.2843 -0.6714
   21MOL   N108 3348   5.497   2.637   0.423 -0.1133 -0.3757  0.2743
   21MOL   H109 3349   5.345   2.640   0.634  0.6191 -0.0151  0.1260
   21MOL   H110 3350   5.349   2.809   0.584 -1.8408  1.0961  2.1943
   21MOL   H111 3351   5.571   2.608   0.614  0.6808  0.9953  0.6221
   21MOL   H112 3352   5.578   2.652   0.365  0.0068 -2.4350 -0.1496
   21MOL   H113 3353   5.417   2.682   0.380  0.4083 -0.8771 -1.2676
   21MOL   C114 3354   5.649   2.792   0.547 -0.0178  0.1615  0.0863
   21MOL   C115 3355   5.630   2.900   0.439  0.2963  0.0725  0.5556
   21MOL   N116 3356   5.516   2.986   0.472  0.1325  0.3222  0.3861
   21MOL   H117 3357   5.680   2.827   0.646  2.1367  1.8243 -1.1403
   21MOL   H118 3358   5.728   2.723   0.517 -0.8396 -0.3704 -0.9000
   21MOL   H119 3359   5.631   2.854   0.340  0.7469  1.6413 -0.1896
   21MOL   H120 3360   5.502   3.057   0.402  1.3353 -0.4506 -0.6617
   21MOL   H121 3361   5.428   2.937   0.474  0.9708 -1.2533  0.1993
   21MOL   C122 3362   5.761   2.982   0.422  0.0686 -0.2084 -0.1680
   21MOL   C123 3363   5.832   2.985   0.281 -0.3939  0.6282  0.6037
   21MOL   N124 3364   5.913   3.106   0.283  0.1782 -0.1535  0.2151
   21MOL   H125 3365   5.733   3.086   0.441 -2.8463 -0.6827 -1.5409
   21MOL   H126 3366   5.833   2.958   0.500  0.7311  1.2988 -0.3056
   21MOL   H127 3367   5.747   2.982   0.213 -0.4623  2.1837  0.6046
   21MOL   H128 3368   5.865   3.186   0.322  1.7936  1.1160 -0.3753
   21MOL   H129 3369   5.908   3.137   0.187  0.7750 -0.0069  0.2324
   21MOL   C130 3370   5.934   2.868   0.245  0.2340 -0.3737 -0.1488
   21MOL   C131 3371   5.866   2.721   0.245 -0.2303 -0.2408  0.4529
   21MOL   N132 3372   5.756   2.715   0.148 -0.1639  0.8479 -0.4071
   21MOL   H133 3373   5.982   2.902   0.154 -0.5106  0.2026 -0.3298
   21MOL   H134 3374   6.009   2.872   0.324  0.8939  1.1348 -0.8215
   21MOL   H135 3375   5.824   2.691   0.341 -0.2213  0.8443  0.7983
   21MOL   H136 3376   5.788   2.662   0.067  0.0958  1.3591 -0.6459
   21MOL   H137 3377   5.734   2.806   0.110 -2.1863  1.5104  2.2587
   21MOL   C138 3378   5.965   2.610   0.206 -0.7642 -0.7134 -0.3375
   21MOL   C139 3379   5.915   2.467   0.244 -0.0364  0.1124  0.6783
   21MOL   N140 3380   5.964   2.362   0.156 -0.1372 -0.5339  0.1913
   21MOL   H141 3381   5.964   2.625   0.099 -1.2100 -0.7036 -0.3354
   21MOL   H142 3382   6.063   2.642   0.241 -0.2423 -1.7902 -0.8041
   21MOL   H143 3383   5.807   2.473   0.241 -0.1002  0.4798  2.9286
   21MOL   H144 3384   6.012   2.396   0.074 -0.0481 -1.4474 -0.1425
   21MOL   H145 3385   6.036   2.309   0.203 -1.2701 -1.5223  0.8443
   21MOL   C146 3386   5.960   2.428   0.388  0.0882 -0.1321  0.2573
   21MOL   C147 3387   5.881   2.313   0.444  0.2668 -0.5418  0.0744
   21MOL   N148 3388   5.940   2.260   0.567  0.1420 -0.1438 -0.1665
   21MOL   H149 3389   6.068   2.428   0.402  0.1259  0.2734 -0.0375
   21MOL   H150 3390   5.935   2.516   0.449 -2.4194 -1.2539  0.9298
   21MOL   H151 3391   5.880   2.232   0.371 -1.3883 -0.9268  0.5045
   21MOL   H152 3392   5.881   2.187   0.603  0.7274  0.1171  1.3294
   21MOL   H153 3393   6.021   2.211   0.535 -0.6444 -3.2829  2.4515
   21MOL   C154 3394   5.729   2.348   0.467  0.6302 -1.1609 -0.9470
   21MOL   C155 3395   5.635   2.256   0.541 -0.3671 -0.1928 -0.4460
   21MOL   N156 3396   5.510   2.309   0.542 -0.1694  0.0442 -0.2289
   21MOL   H157 3397   5.727   2.441   0.524 -0.0084 -1.6909 -0.0858
   21MOL   H158 3398   5.693   2.373   0.367  0.7716  0.3526 -0.6237
   21MOL   H159 3399   5.676   2.243   0.641  1.8122  1.8677 -1.0142
   21MOL   H160 3400   5.506   2.381   0.613  3.1321 -0.5400  0.6186
   21MOL   H161 3401   5.503   2.365   0.459 -1.1171  0.5347  0.1635
   21MOL   H162 3402   5.639   2.155   0.499  1.1045 -0.0237 -0.7597
   22MOL     C1 3403   2.242   3.270   2.988 -0.1688 -0.1715 -0.0569
   22MOL     C2 3404   2.276   3.417   2.943 -0.2281 -0.0002 -0.1465
   22MOL     N3 3405   2.414   3.438   2.981  0.5480  0.4185 -0.1995
   22MOL     H4 3406   2.140   3.248   2.956  0.0207  1.2450 -1.6879
   22MOL     H5 3407   2.261   3.259   3.095  2.5517  1.1366 -0.3847
   22MOL     H6 3408   2.214   3.484   3.003 -0.7604  0.8442 -1.6133
   22MOL     H7 3409   2.437   3.536   2.968 -2.5086  0.8062 -3.4456
   22MOL     H8 3410   2.431   3.418   3.078  0.4330 -0.5528 -0.3774
   22MOL     H9 3411   2.308   3.204   2.932 -1.0855  0.2229 -1.6221
   22MOL    C10 3412   2.259   3.452   2.792  0.9044 -0.4646  0.1326
   22MOL    C11 3413   2.110   3.473   2.751  0.2442 -0.4121  0.1128
   22MOL    N12 3414   2.027   3.557   2.834 -0.8081  0.2070 -0.2952
   22MOL    H13 3415   2.306   3.550   2.779 -1.3106  0.9466  2.2552
   22MOL    H14 3416   2.311   3.388   2.721  0.6673  0.7245 -1.1446
   22MOL    H15 3417   2.056   3.379   2.761  1.9121 -1.2978  0.9160
   22MOL    H16 3418   2.023   3.524   2.929  2.3445  1.9319  0.4937
   22MOL    H17 3419   2.058   3.652   2.843  2.6385 -0.8313 -0.6311
   22MOL    C18 3420   2.083   3.528   2.604 -0.0450 -0.1150 -0.4135
   22MOL    C19 3421   2.151   3.469   2.482  0.3239  0.0130 -0.0556
   22MOL    N20 3422   2.280   3.534   2.472 -0.1024 -0.0145 -0.0832
   22MOL    H21 3423   1.978   3.509   2.586 -0.2652  0.6389  0.0342
   22MOL    H22 3424   2.097   3.636   2.605  0.0690 -0.1174 -1.3067
   22MOL    H23 3425   2.101   3.522   2.401  0.1940 -1.1261 -0.7446
   22MOL    H24 3426   2.270   3.634   2.465  0.9542  0.0933 -0.0401
   22MOL    H25 3427   2.328   3.522   2.560 -1.3459  2.5944  1.0113
   22MOL    C26 3428   2.165   3.313   2.477  0.2395 -0.1842  0.0685
   22MOL    C27 3429   2.186   3.257   2.336 -0.2011  0.0477 -0.2112
   22MOL    N28 3430   2.195   3.113   2.339  0.4828 -0.3821 -0.0820
   22MOL    H29 3431   2.239   3.273   2.547 -1.0139 -0.1470  1.4261
   22MOL    H30 3432   2.073   3.263   2.506 -1.1311  1.0052 -2.0428
   22MOL    H31 3433   2.282   3.296   2.303 -0.2692  0.8041  0.4657
   22MOL    H32 3434   2.102   3.075   2.340  0.5175 -0.5709 -2.7246
   22MOL    H33 3435   2.227   3.077   2.250  3.1765  2.5188 -0.3784
   22MOL    C34 3436   2.082   3.295   2.235 -0.2171 -0.3730 -0.1175
   22MOL    C35 3437   2.131   3.289   2.086 -0.6782 -0.0239 -0.0739
   22MOL    N36 3438   2.012   3.273   2.001 -0.2583 -1.0834  0.4092
   22MOL    H37 3439   1.998   3.228   2.252 -2.0249  2.1211  1.1836
   22MOL    H38 3440   2.041   3.394   2.258 -0.2587  0.0435 -1.8565
   22MOL    H39 3441   2.201   3.206   2.075 -0.7324 -0.1249  0.3239
   22MOL    H40 3442   1.941   3.342   2.017  1.5541  0.6059  1.3578
   22MOL    H41 3443   2.029   3.277   1.901  1.0866  0.1697  0.6674
   22MOL    C42 3444   2.206   3.420   2.044 -0.3190 -0.2819 -0.9033
   22MOL    C43 3445   2.343   3.465   2.109  0.3903  0.3626  0.1470
   22MOL    N44 3446   2.430   3.356   2.084  0.2753 -0.2097 -0.2384
   22MOL    H45 3447   2.223   3.432   1.937  0.6336  1.7865 -0.5566
   22MOL    H46 3448   2.136   3.500   2.070  0.2735 -0.0983  0.2095
   22MOL    H47 3449   2.316   3.491   2.211  1.1534  0.4135  0.3415
   22MOL    H48 3450   2.434   3.339   1.985 -0.4035  0.9180 -0.4647
   22MOL    H49 3451   2.385   3.280   2.132  1.2509 -0.3402  0.4934
   22MOL    C50 3452   2.411   3.592   2.057  0.1813 -0.2143  0.2280
   22MOL    C51 3453   2.327   3.721   2.082 -0.0710 -0.2399 -0.3599
   22MOL    N52 3454   2.327   3.744   2.230  0.3160  0.5163  0.4206
   22MOL    H53 3455   2.500   3.598   2.120  1.7641  0.4989 -2.0383
   22MOL    H54 3456   2.437   3.587   1.951 -1.0396 -1.3752 -0.0303
   22MOL    H55 3457   2.224   3.700   2.052  0.1125  1.4819 -2.2782
   22MOL    H56 3458   2.329   3.662   2.287 -1.1959  0.1423 -0.0356
   22MOL    H57 3459   2.405   3.802   2.257  0.9014  0.6366 -1.4287
   22MOL    C58 3460   2.378   3.848   2.012 -0.1037 -0.2206  0.4414
   22MOL    C59 3461   2.291   3.977   2.022  0.4335  0.1479 -0.2829
   22MOL    N60 3462   2.386   4.086   2.042 -0.5351  0.6531  0.4419
   22MOL    H61 3463   2.474   3.852   2.063  0.6613 -0.6679 -0.9647
   22MOL    H62 3464   2.383   3.812   1.909  1.8333  0.9239  0.1252
   22MOL    H63 3465   2.231   3.962   2.112 -1.9614  2.3828 -1.4339
   22MOL    H64 3466   2.338   4.163   2.085 -1.8585 -0.3686  0.8198
   22MOL    H65 3467   2.460   4.062   2.106  0.6706  1.7406 -0.5178
   22MOL    C66 3468   2.187   4.014   1.906 -0.2134 -0.0769  0.1490
   22MOL    C67 3469   2.086   3.909   1.872 -0.4778 -0.0173  0.4185
   22MOL    N68 3470   1.983   3.905   1.965  0.3205 -1.3916 -0.1127
   22MOL    H69 3471   2.136   4.109   1.923  1.0806  0.6566 -0.0225
   22MOL    H70 3472   2.252   4.027   1.819 -0.7919 -0.3301 -0.3261
   22MOL    H71 3473   2.133   3.811   1.879  2.1176  0.9571 -2.1462
   22MOL    H72 3474   1.913   3.837   1.941 -1.6886  0.2919  0.8467
   22MOL    H73 3475   2.012   3.886   2.059  1.0012  0.9894  0.2048
   22MOL    C74 3476   2.030   3.933   1.733 -0.0208  0.1785  0.2716
   22MOL    C75 3477   2.019   3.812   1.640  0.6915 -0.1673  0.4884
   22MOL    N76 3478   1.909   3.838   1.543  0.1315 -0.3448 -0.5479
   22MOL    H77 3479   1.929   3.975   1.739 -0.5237 -0.6786 -1.5910
   22MOL    H78 3480   2.092   4.010   1.686 -0.4594  1.2024  1.3553
   22MOL    H79 3481   1.984   3.724   1.694  1.6977  0.2456  1.8444
   22MOL    H80 3482   1.824   3.830   1.598 -0.8844  2.3984 -1.6422
   22MOL    H81 3483   1.901   3.765   1.473 -0.6405  0.4117 -1.2650
   22MOL    C82 3484   2.140   3.757   1.565  0.5923  0.0918  0.2475
   22MOL    C83 3485   2.260   3.707   1.655 -0.2465  0.9847  0.2470
   22MOL    N84 3486   2.219   3.581   1.721  0.0226  0.0680  0.0169
   22MOL    H85 3487   2.108   3.679   1.497  0.6882 -0.4575  0.8307
   22MOL    H86 3488   2.168   3.838   1.498  0.5204 -0.2472 -0.1953
   22MOL    H87 3489   2.291   3.785   1.725  0.0767  0.4530  0.6977
   22MOL    H88 3490   2.128   3.599   1.762  0.5566  0.5728  0.9909
   22MOL    H89 3491   2.282   3.574   1.800  0.9912  2.0057 -0.5559
   22MOL    C90 3492   2.383   3.681   1.580 -0.8469  0.2086  0.6528
   22MOL    C91 3493   2.454   3.812   1.513  0.7047  0.3790 -0.0846
   22MOL    N92 3494   2.515   3.898   1.618  0.3070  0.0924  0.5973
   22MOL    H93 3495   2.451   3.629   1.647  0.0962 -0.6603 -0.9360
   22MOL    H94 3496   2.370   3.605   1.503 -0.7323 -1.0189  1.8311
   22MOL    H95 3497   2.377   3.868   1.461  0.5052  1.0475  0.9201
   22MOL    H96 3498   2.443   3.908   1.688 -1.6608  0.5345 -1.4479
   22MOL    H97 3499   2.530   3.987   1.574 -2.2691  0.6211  0.7493
   22MOL    C98 3500   2.562   3.771   1.413  0.1864 -0.1193  0.2230
   22MOL    C99 3501   2.518   3.706   1.276  0.2255  0.0950 -0.3996
   22MOL   N100 3502   2.501   3.557   1.302  0.2264 -0.5715 -0.1555
   22MOL   H101 3503   2.619   3.860   1.386 -0.9603  0.2589 -0.9972
   22MOL   H102 3504   2.637   3.704   1.456  2.5917  1.7140 -0.9273
   22MOL   H103 3505   2.597   3.721   1.203  0.7492 -0.2551  0.0947
   22MOL   H104 3506   2.572   3.517   1.363  2.5742 -0.4640 -2.7099
   22MOL   H105 3507   2.530   3.507   1.219  1.3024 -1.4618  0.7280
   22MOL   C106 3508   2.387   3.760   1.213 -0.3487  0.6765 -0.1843
   22MOL   C107 3509   2.394   3.912   1.193  0.5292  0.3167  0.7187
   22MOL   N108 3510   2.484   3.946   1.086 -0.1956  0.2969 -0.0299
   22MOL   H109 3511   2.366   3.696   1.127  0.8558 -1.4393  1.0543
   22MOL   H110 3512   2.312   3.757   1.292 -1.2961  2.4454 -0.9754
   22MOL   H111 3513   2.426   3.963   1.284 -1.7918  1.4381  0.9496
   22MOL   H112 3514   2.552   4.008   1.128 -1.1378  2.0969 -1.0861
   22MOL   H113 3515   2.428   4.011   1.033  0.8646  2.3043  1.2565
   22MOL   C114 3516   2.253   3.957   1.147  0.6181  0.1085 -0.1202
   22MOL   C115 3517   2.221   4.108   1.126 -0.3324 -0.2279 -0.2608
   22MOL   N116 3518   2.319   4.182   1.047  0.6464 -0.1712 -0.4937
   22MOL   H117 3519   2.230   3.894   1.061  1.8308  0.6439 -0.8602
   22MOL   H118 3520   2.185   3.921   1.224  1.7930  1.2037  1.4643
   22MOL   H119 3521   2.217   4.159   1.222  1.3765  0.3975 -0.5133
   22MOL   H120 3522   2.287   4.257   0.988  1.9752 -1.1391 -2.5072
   22MOL   H121 3523   2.381   4.230   1.110  1.5223 -0.2575 -1.2786
   22MOL   C122 3524   2.089   4.121   1.050 -0.1632  0.1174  0.2310
   22MOL   C123 3525   1.959   4.047   1.079 -0.4254 -0.1542 -0.0953
   22MOL   N124 3526   1.965   3.913   1.027 -0.0601  0.1318 -0.2708
   22MOL   H125 3527   2.058   4.224   1.033 -1.9301 -0.3673  0.4361
   22MOL   H126 3528   2.121   4.088   0.951 -2.6042 -1.0651 -0.1815
   22MOL   H127 3529   1.881   4.108   1.032 -0.5088  0.0090  0.2571
   22MOL   H128 3530   1.887   3.855   1.055 -0.1389  0.9407  1.2239
   22MOL   H129 3531   2.043   3.858   1.060 -0.9363  0.2952  2.1626
   22MOL   C130 3532   1.914   4.044   1.230  0.7016 -0.0137  0.5398
   22MOL   C131 3533   1.934   4.179   1.308  0.2020 -0.6827  0.1693
   22MOL   N132 3534   1.827   4.279   1.279  0.1237  0.4306 -0.1140
   22MOL   H133 3535   1.812   4.009   1.246  0.3836  0.3310 -0.6631
   22MOL   H134 3536   1.976   3.965   1.271  1.0453 -0.4161 -0.7275
   22MOL   H135 3537   2.031   4.221   1.278 -0.3421 -0.4591 -1.3518
   22MOL   H136 3538   1.860   4.368   1.314  3.7004  0.0614 -2.2814
   22MOL   H137 3539   1.749   4.244   1.334  2.5764 -1.8423  2.1143
   22MOL   C138 3540   1.926   4.170   1.457  0.6241  0.6438  0.1129
   22MOL   C139 3541   2.007   4.276   1.529 -0.4649 -0.3427  0.1479
   22MOL   N140 3542   1.976   4.285   1.669  0.4563  0.4356  0.5162
   22MOL   H141 3543   1.823   4.175   1.491  1.0982  1.4202  1.4509
   22MOL   H142 3544   1.975   4.074   1.472  1.3185  1.2963  2.0184
   22MOL   H143 3545   1.983   4.376   1.492  1.2214 -0.4066 -1.1932
   22MOL   H144 3546   1.983   4.194   1.712  0.2009  0.9430  1.6618
   22MOL   H145 3547   1.876   4.295   1.683  0.4123 -1.0548  1.4145
   22MOL   C146 3548   2.162   4.240   1.510  0.2335 -0.1109  0.0841
   22MOL   C147 3549   2.260   4.362   1.512 -0.2868  0.2811 -0.3410
   22MOL   N148 3550   2.369   4.338   1.606  0.3644 -0.0105  0.5160
   22MOL   H149 3551   2.190   4.172   1.591 -0.3169 -0.5639 -0.0980
   22MOL   H150 3552   2.181   4.175   1.425  2.8284  2.0124 -1.0301
   22MOL   H151 3553   2.203   4.445   1.552 -1.8823 -0.5437 -0.8589
   22MOL   H152 3554   2.331   4.300   1.691  0.5277  2.3667  1.6756
   22MOL   H153 3555   2.414   4.425   1.629  0.0835  0.6514 -1.3366
   22MOL   C154 3556   2.315   4.412   1.377 -0.1567 -0.0047 -0.1629
   22MOL   C155 3557   2.214   4.450   1.265  0.3800 -0.2932 -0.2275
   22MOL   N156 3558   2.264   4.522   1.146  0.1409  0.1944 -0.3073
   22MOL   H157 3559   2.366   4.509   1.386 -0.5554  0.0778  1.1963
   22MOL   H158 3560   2.395   4.349   1.338  0.4822  0.1299  0.9111
   22MOL   H159 3561   2.124   4.492   1.311  0.8405  1.5073 -0.9145
   22MOL   H160 3562   2.190   4.524   1.078  1.5785  1.8679 -1.8536
   22MOL   H161 3563   2.329   4.451   1.115  2.4087  1.7284  0.8247
   22MOL   H162 3564   2.180   4.358   1.218 -3.9873 -0.0662  2.2175
   23MOL     C1 3565   1.281   4.014   3.709 -0.2234 -0.4294  0.3344
   23MOL     C2 3566   1.222   4.075   3.834  0.2916 -0.6076  0.4686
   23MOL     N3 3567   1.246   4.215   3.836  0.3865 -0.2896  0.2955
   23MOL     H4 3568   1.381   4.046   3.681 -0.4329 -0.5533 -0.5444
   23MOL     H5 3569   1.213   4.031   3.626 -1.2905 -1.0181  1.0677
   23MOL     H6 3570   1.267   4.040   3.927  0.1898 -1.0315  0.3560
   23MOL     H7 3571   1.164   4.262   3.871  1.4110  2.4763 -0.8696
   23MOL     H8 3572   1.318   4.224   3.907  0.9784  0.8830 -0.4464
   23MOL     H9 3573   1.267   3.907   3.720 -2.8008 -0.3432 -1.5316
   23MOL    C10 3574   1.073   4.049   3.860 -0.3479  0.4115  0.2811
   23MOL    C11 3575   1.047   3.927   3.945 -0.0075 -0.0260  0.2204
   23MOL    N12 3576   0.917   3.935   4.002  0.1642 -0.0265 -0.5281
   23MOL    H13 3577   1.029   4.138   3.907 -2.8651 -1.0478  0.7874
   23MOL    H14 3578   1.015   4.045   3.767  0.4864  0.6252 -0.2578
   23MOL    H15 3579   1.110   3.935   4.034  0.4087  1.0552 -0.1686
   23MOL    H16 3580   0.892   4.029   4.027  0.4714  0.0493 -0.5066
   23MOL    H17 3581   0.892   3.871   4.077  0.3441  0.2315 -0.2465
   23MOL    C18 3582   1.072   3.790   3.881 -0.6000  0.3967 -0.0147
   23MOL    C19 3583   1.027   3.770   3.735 -0.4812  0.2785 -0.1651
   23MOL    N20 3584   1.104   3.663   3.671 -0.1040  0.0583 -0.0707
   23MOL    H21 3585   1.177   3.770   3.900 -0.0768  0.7983 -2.3167
   23MOL    H22 3586   1.026   3.715   3.945  1.7250  1.1372  2.5867
   23MOL    H23 3587   1.056   3.862   3.685  2.1072 -1.0372 -1.1311
   23MOL    H24 3588   1.201   3.681   3.691 -0.2561  0.6968  0.1201
   23MOL    H25 3589   1.088   3.685   3.574 -0.5130 -0.8432 -0.2094
   23MOL    C26 3590   0.876   3.741   3.709  0.0294  0.0975  0.2644
   23MOL    C27 3591   0.787   3.864   3.676  0.4902 -0.5612 -0.3587
   23MOL    N28 3592   0.799   3.887   3.530 -0.2836 -0.4733  0.5911
   23MOL    H29 3593   0.863   3.665   3.633  0.7828  0.3512 -0.1271
   23MOL    H30 3594   0.838   3.683   3.793 -0.1030 -1.1477 -0.6488
   23MOL    H31 3595   0.816   3.957   3.723  0.5016 -1.5335  1.6039
   23MOL    H32 3596   0.774   3.980   3.498 -1.9242 -1.5968 -1.4497
   23MOL    H33 3597   0.897   3.885   3.502 -0.5546 -0.6810 -0.3546
   23MOL    C34 3598   0.638   3.859   3.713  0.0459  0.7097 -0.3895
   23MOL    C35 3599   0.610   3.803   3.855 -0.3478  0.2095  0.3585
   23MOL    N36 3600   0.540   3.909   3.926 -0.8749 -0.0760 -0.6346
   23MOL    H37 3601   0.602   3.960   3.697 -0.3432  0.2493 -2.5852
   23MOL    H38 3602   0.567   3.816   3.642  0.0344 -0.3079  0.2288
   23MOL    H39 3603   0.701   3.788   3.913  1.1150 -2.1189 -2.4038
   23MOL    H40 3604   0.558   3.897   4.025 -0.8878  1.0152 -0.4936
   23MOL    H41 3605   0.583   3.998   3.905  0.1566 -0.3419  0.2561
   23MOL    C42 3606   0.527   3.667   3.881 -0.9417 -0.0640  0.0167
   23MOL    C43 3607   0.594   3.542   3.826 -0.2730 -0.2896  0.7877
   23MOL    N44 3608   0.675   3.497   3.935 -0.0277  0.4426 -0.5409
   23MOL    H45 3609   0.499   3.656   3.986 -0.5680  2.1144  0.3763
   23MOL    H46 3610   0.440   3.677   3.816  0.7239 -0.3562 -2.3308
   23MOL    H47 3611   0.648   3.568   3.735 -0.1635  0.1835  0.9905
   23MOL    H48 3612   0.710   3.404   3.913  3.1096  1.3307  0.5621
   23MOL    H49 3613   0.755   3.558   3.944 -0.5669  0.9663  0.8735
   23MOL    C50 3614   0.491   3.425   3.803  0.6215  0.2473  0.0093
   23MOL    C51 3615   0.416   3.440   3.667 -0.2218  0.5127  0.3846
   23MOL    N52 3616   0.505   3.383   3.569  0.0619 -0.0817 -0.1916
   23MOL    H53 3617   0.530   3.323   3.800 -0.5639 -0.2144 -0.2770
   23MOL    H54 3618   0.423   3.424   3.888  0.9196 -1.1545  0.2462
   23MOL    H55 3619   0.404   3.545   3.640 -0.1644  0.1383 -1.1467
   23MOL    H56 3620   0.486   3.413   3.474 -1.2303 -0.3294 -0.0305
   23MOL    H57 3621   0.597   3.420   3.585 -0.1788  0.4187  0.0291
   23MOL    C58 3622   0.282   3.361   3.667 -0.4878 -0.2450 -0.6595
   23MOL    C59 3623   0.203   3.356   3.537 -0.2480  0.2133  0.0515
   23MOL    N60 3624   0.087   3.278   3.546  0.4816 -0.0189 -0.0066
   23MOL    H61 3625   0.298   3.257   3.696  3.3016  0.4093 -0.2010
   23MOL    H62 3626   0.230   3.407   3.751 -0.2370 -0.2140 -0.5205
   23MOL    H63 3627   0.287   3.321   3.477  0.1100 -1.3526  1.4644
   23MOL    H64 3628   0.104   3.184   3.576 -0.0780  0.5134  2.0646
   23MOL    H65 3629   0.030   3.304   3.626  1.9749 -0.9555  1.3833
   23MOL    C66 3630   0.165   3.495   3.471  0.2392 -0.6759 -0.0674
   23MOL    C67 3631   0.254   3.563   3.366  0.4763  0.4282 -0.0726
   23MOL    N68 3632   0.255   3.483   3.244 -0.2697 -0.2064 -0.3972
   23MOL    H69 3633   0.067   3.484   3.424  0.9116 -1.5392 -1.3058
   23MOL    H70 3634   0.148   3.566   3.551 -0.1493 -1.0007  0.1406
   23MOL    H71 3635   0.358   3.557   3.398 -0.2759 -0.4341  2.2782
   23MOL    H72 3636   0.160   3.458   3.219 -0.6495 -0.0825  0.8992
   23MOL    H73 3637   0.305   3.396   3.258  0.3774  0.1976 -0.1673
   23MOL    C74 3638   0.211   3.706   3.330 -0.1936  0.8925 -0.5200
   23MOL    C75 3639   0.233   3.813   3.448 -0.2303  0.2506 -0.1300
   23MOL    N76 3640   0.374   3.808   3.484  0.0494 -0.2295  0.2463
   23MOL    H77 3641   0.266   3.726   3.238 -1.2305 -1.8855 -1.7946
   23MOL    H78 3642   0.107   3.714   3.299 -0.8246 -2.1530  0.6588
   23MOL    H79 3643   0.172   3.777   3.531 -0.1612  0.1004 -0.1429
   23MOL    H80 3644   0.386   3.711   3.510 -0.5637 -0.3282  0.1522
   23MOL    H81 3645   0.426   3.822   3.398 -1.6341 -1.2010 -0.9616
   23MOL    C82 3646   0.176   3.954   3.413 -0.5789  0.4054 -0.0259
   23MOL    C83 3647   0.165   4.055   3.529  0.1017  0.2032  0.0648
   23MOL    N84 3648   0.150   4.191   3.478  0.3236  0.3226 -0.0010
   23MOL    H85 3649   0.236   4.001   3.334  0.5561  0.2422  0.7207
   23MOL    H86 3650   0.077   3.934   3.373 -0.6967 -0.3046  0.6188
   23MOL    H87 3651   0.260   4.049   3.582  0.8390  0.7434 -1.1713
   23MOL    H88 3652   0.235   4.224   3.435  0.2100  3.1668  1.7946
   23MOL    H89 3653   0.084   4.194   3.401 -0.4165 -1.0200  0.5474
   23MOL    C90 3654   0.054   4.020   3.624  0.0915 -0.4339 -0.1318
   23MOL    C91 3655   0.056   4.085   3.768 -0.7264  0.3096  0.5279
   23MOL    N92 3656   7.224   4.184   3.769 -0.3586 -0.5649  0.3379
   23MOL    H93 3657   7.234   4.025   3.571  0.2071 -0.5578 -0.3551
   23MOL    H94 3658   0.059   3.911   3.637  0.2663 -0.6576 -1.9808
   23MOL    H95 3659   0.147   4.144   3.779 -0.1213 -0.9592  2.4870
   23MOL    H96 3660   7.239   4.253   3.696  2.3582 -1.3610  0.0627
   23MOL    H97 3661   7.135   4.143   3.746 -0.3495 -1.2592  1.5194
   23MOL    C98 3662   0.041   3.989   3.890  0.5831 -0.8197 -0.3151
   23MOL    C99 3663   0.180   3.919   3.911 -0.0699  0.2607 -0.0066
   23MOL   N100 3664   0.273   4.017   3.963  0.3426  0.7557 -0.3337
   23MOL   H101 3665   0.012   4.040   3.982  2.6511 -1.6302  0.8008
   23MOL   H102 3666   7.237   3.914   3.883  0.2121 -0.9466  4.0341
   23MOL   H103 3667   0.195   3.888   3.807  3.8423  0.5958  0.3772
   23MOL   H104 3668   0.361   3.982   3.929 -0.3669 -1.1307 -0.3048
   23MOL   H105 3669   0.272   4.107   3.917 -0.6229  0.0392 -1.7677
   23MOL   C106 3670   0.183   3.792   3.990  0.8355  0.2130  0.3630
   23MOL   C107 3671   0.112   3.669   3.929  0.0116  0.0427 -0.4048
   23MOL   N108 3672   0.141   3.650   3.791 -0.4161  0.0575 -0.1170
   23MOL   H109 3673   0.288   3.760   3.987  0.4591 -0.9762 -0.4923
   23MOL   H110 3674   0.150   3.814   4.091 -0.8470 -0.0794 -0.1140
   23MOL   H111 3675   0.005   3.684   3.945 -0.1831 -0.8191 -0.8778
   23MOL   H112 3676   0.104   3.562   3.758 -1.1800  0.9603 -1.7264
   23MOL   H113 3677   0.239   3.647   3.766 -0.1027  1.7210  0.8594
   23MOL   C114 3678   0.156   3.540   4.000 -0.5018  0.3180  0.0746
   23MOL   C115 3679   0.067   3.516   4.123 -0.4695 -0.3398  0.2342
   23MOL   N116 3680   7.205   3.478   4.096 -0.2473  0.7100  0.0107
   23MOL   H117 3681   0.141   3.443   3.952 -2.2990  1.3062 -1.4173
   23MOL   H118 3682   0.260   3.546   4.032  0.4016 -2.1252 -2.1584
   23MOL   H119 3683   0.056   3.612   4.172 -0.4081 -1.0361  1.6411
   23MOL   H120 3684   7.150   3.434   4.169 -0.7014  1.5229  0.1591
   23MOL   H121 3685   7.150   3.553   4.057 -2.0437 -0.8147 -0.4943
   23MOL   C122 3686   0.147   3.426   4.217  0.3315 -0.1661 -0.1149
   23MOL   C123 3687   0.262   3.494   4.292 -0.2145 -0.1957 -0.2535
   23MOL   N124 3688   0.202   3.588   4.382  0.8457  0.0154 -0.0044
   23MOL   H125 3689   0.074   3.390   4.289  0.1518  0.2486 -0.0877
   23MOL   H126 3690   0.170   3.335   4.163 -2.4575 -0.2733 -1.1863
   23MOL   H127 3691   0.324   3.560   4.231  2.4436 -0.8720  1.6449
   23MOL   H128 3692   0.210   3.682   4.346 -0.6020  0.0452 -0.2566
   23MOL   H129 3693   0.104   3.565   4.386  0.9234 -0.1046  1.9558
   23MOL   C130 3694   0.341   3.393   4.380 -0.2883  0.1822  0.2956
   23MOL   C131 3695   0.467   3.324   4.320 -0.9968 -0.5937 -0.0979
   23MOL   N132 3696   0.560   3.296   4.425  0.6793  0.6188  0.1743
   23MOL   H133 3697   0.389   3.453   4.457  0.6021 -1.2222  0.8512
   23MOL   H134 3698   0.266   3.325   4.420  0.2143  0.6675  2.1075
   23MOL   H135 3699   0.509   3.386   4.240 -1.1702 -1.3901 -0.8194
   23MOL   H136 3700   0.639   3.258   4.375 -0.1774 -0.4190 -0.3890
   23MOL   H137 3701   0.594   3.368   4.488  0.8637  1.3997 -0.8036
   23MOL   C138 3702   0.441   3.195   4.250 -0.5255  0.3785  0.8320
   23MOL   C139 3703   0.550   3.116   4.175 -0.5820  0.2733 -0.3065
   23MOL   N140 3704   0.500   2.991   4.128  0.0822 -0.5226  0.0476
   23MOL   H141 3705   0.399   3.125   4.323 -0.3503 -0.4849  0.1201
   23MOL   H142 3706   0.355   3.207   4.185 -1.8678 -0.2929  2.4493
   23MOL   H143 3707   0.618   3.098   4.258  0.3681 -2.1667 -1.5736
   23MOL   H144 3708   0.579   2.940   4.091  1.2975  0.9884  0.5217
   23MOL   H145 3709   0.483   2.943   4.216 -0.3950 -2.3367 -0.9933
   23MOL   C146 3710   0.616   3.200   4.066  0.0654 -0.1806 -0.0584
   23MOL   C147 3711   0.745   3.148   4.007  0.3686  0.3735  0.1756
   23MOL   N148 3712   0.776   3.224   3.887 -0.4957 -0.7376  0.1965
   23MOL   H149 3713   0.531   3.218   4.001  1.1242 -1.5627 -1.8722
   23MOL   H150 3714   0.643   3.300   4.099 -0.0989 -0.4153  0.8010
   23MOL   H151 3715   0.725   3.042   3.993 -0.0974  0.4094  0.5816
   23MOL   H152 3716   0.694   3.240   3.830 -0.0701  0.2085 -0.1764
   23MOL   H153 3717   0.841   3.165   3.838  2.7108  1.2675  1.8385
   23MOL   C154 3718   0.858   3.173   4.105  0.0388 -0.1150  0.3961
   23MOL   C155 3719   0.983   3.099   4.059  0.5560 -0.2221  0.0215
   23MOL   N156 3720   1.074   3.077   4.172 -0.5146  0.5398 -0.0709
   23MOL   H157 3721   0.879   3.279   4.119 -1.8458  1.0276 -4.2915
   23MOL   H158 3722   0.824   3.143   4.204  0.2188 -0.9104  0.2158
   23MOL   H159 3723   1.038   3.162   3.989  0.7241 -0.3596  0.0318
   23MOL   H160 3724   1.032   3.003   4.226  1.5963 -0.9503 -0.4535
   23MOL   H161 3725   1.156   3.026   4.144  0.5246  1.4317  1.2310
   23MOL   H162 3726   0.950   3.008   4.009  0.3971  0.0429 -0.3616
   24MOL     C1 3727   6.094   4.563   1.889  0.1575  0.7011  0.1160
   24MOL     C2 3728   5.997   4.545   2.005  0.0016  0.9368  0.1557
   24MOL     N3 3729   6.064   4.595   2.125  0.2019 -0.0965  0.1556
   24MOL     H4 3730   6.061   4.521   1.794 -2.9902 -1.2372  1.9850
   24MOL     H5 3731   6.188   4.516   1.920  0.3721  1.2910  0.3692
   24MOL     H6 3732   5.993   4.436   2.005  2.9806  0.7497 -2.7390
   24MOL     H7 3733   6.057   4.695   2.119  2.6582  0.0728 -0.0483
   24MOL     H8 3734   6.018   4.561   2.208 -2.0992 -0.9522 -1.4028
   24MOL     H9 3735   6.119   4.669   1.890 -0.2840  0.8645 -2.6895
   24MOL    C10 3736   5.853   4.602   1.976  0.4399  0.7602  0.3792
   24MOL    C11 3737   5.769   4.521   1.871 -0.2366  0.1814  0.3562
   24MOL    N12 3738   5.732   4.400   1.924  0.0637 -0.2652  0.3931
   24MOL    H13 3739   5.789   4.620   2.062 -2.7648  0.8586 -1.9449
   24MOL    H14 3740   5.874   4.700   1.934  2.3670  1.6274  3.2749
   24MOL    H15 3741   5.836   4.513   1.785  0.2253  0.1133  0.7182
   24MOL    H16 3742   5.714   4.426   2.020 -1.8157 -2.5161  0.6940
   24MOL    H17 3743   5.819   4.347   1.927  0.8693  1.0457  0.5619
   24MOL    C18 3744   5.643   4.603   1.813 -0.1907  0.0211  0.1490
   24MOL    C19 3745   5.620   4.609   1.657 -0.4742 -0.0546 -0.7816
   24MOL    N20 3746   5.729   4.685   1.601 -1.1598 -0.1940  0.4491
   24MOL    H21 3747   5.550   4.570   1.859 -1.2334  1.3901 -0.9491
   24MOL    H22 3748   5.639   4.704   1.854 -4.0247 -0.4036  0.9812
   24MOL    H23 3749   5.529   4.661   1.629  0.2049  0.1713 -2.6790
   24MOL    H24 3750   5.739   4.632   1.515 -1.0927  0.6296 -0.0556
   24MOL    H25 3751   5.693   4.773   1.566  0.9350  0.1788 -0.8353
   24MOL    C26 3752   5.615   4.468   1.590  0.3683  0.7545 -0.2701
   24MOL    C27 3753   5.468   4.431   1.541 -0.3826  0.0107  0.1432
   24MOL    N28 3754   5.443   4.524   1.427  0.3256  0.7218 -0.5094
   24MOL    H29 3755   5.687   4.445   1.511  2.1466  0.6238  1.3465
   24MOL    H30 3756   5.632   4.387   1.661 -3.0493  0.0866 -0.1358
   24MOL    H31 3757   5.397   4.457   1.620 -1.5692 -1.2000 -0.5084
   24MOL    H32 3758   5.528   4.559   1.386  1.0060  0.7152  0.8869
   24MOL    H33 3759   5.397   4.610   1.453 -0.1891 -0.1314  1.5429
   24MOL    C34 3760   5.443   4.280   1.503  0.2286  0.5031  0.0225
   24MOL    C35 3761   5.303   4.248   1.445 -0.5406  0.0442  0.6266
   24MOL    N36 3762   5.304   4.104   1.427  0.5193 -0.0548  0.0009
   24MOL    H37 3763   5.532   4.252   1.447 -1.0588 -0.1039 -1.7590
   24MOL    H38 3764   5.457   4.237   1.602  0.1761  2.1044  0.7490
   24MOL    H39 3765   5.289   4.296   1.348  1.9956  0.7783  0.5792
   24MOL    H40 3766   5.329   4.068   1.518 -0.9851  0.8766  0.7937
   24MOL    H41 3767   5.371   4.068   1.360  1.5306 -0.2455  1.0939
   24MOL    C42 3768   5.191   4.300   1.536 -0.4729 -0.4956 -0.1851
   24MOL    C43 3769   5.053   4.281   1.468  0.1172  0.1730 -0.7440
   24MOL    N44 3770   4.952   4.317   1.573 -0.4098 -0.6597  0.0497
   24MOL    H45 3771   5.190   4.249   1.632 -1.7733  1.4831  0.8905
   24MOL    H46 3772   5.211   4.403   1.568 -1.2425 -0.9524  1.8059
   24MOL    H47 3773   5.040   4.178   1.435  0.1539 -0.5627  1.4054
   24MOL    H48 3774   4.965   4.270   1.662  1.4203  0.6954  0.5481
   24MOL    H49 3775   4.864   4.288   1.534  0.2374 -0.8904 -1.2441
   24MOL    C50 3776   5.033   4.374   1.345 -0.2322  0.2447  0.1464
   24MOL    C51 3777   5.013   4.311   1.201  0.7427  0.3176  0.5919
   24MOL    N52 3778   4.879   4.297   1.160  0.2190 -0.7034  0.0449
   24MOL    H53 3779   4.947   4.440   1.358 -0.1710  0.1313  1.1420
   24MOL    H54 3780   5.117   4.444   1.341 -0.5622  0.5390 -1.8337
   24MOL    H55 3781   5.060   4.213   1.210  0.0484 -0.1629 -0.8866
   24MOL    H56 3782   4.834   4.381   1.128 -0.0350 -1.1507 -0.7961
   24MOL    H57 3783   4.828   4.263   1.240 -1.4511 -0.6639 -0.9695
   24MOL    C58 3784   5.091   4.383   1.093 -0.1030 -0.2579  0.3834
   24MOL    C59 3785   5.118   4.311   0.959 -0.6325  0.0962  0.1213
   24MOL    N60 3786   5.143   4.418   0.869  0.0740 -0.2064 -0.2744
   24MOL    H61 3787   5.046   4.480   1.074  0.2217  0.2647  2.1390
   24MOL    H62 3788   5.189   4.406   1.134  0.5449  0.4474 -1.5090
   24MOL    H63 3789   5.027   4.262   0.923  1.2368 -1.4749 -2.6316
   24MOL    H64 3790   5.153   4.380   0.776 -3.6449  0.1450 -0.8934
   24MOL    H65 3791   5.064   4.479   0.855 -0.4528 -0.9543 -0.5798
   24MOL    C66 3792   5.232   4.211   0.947  0.2687  0.3125 -0.5226
   24MOL    C67 3793   5.230   4.087   1.034 -0.2954 -0.2726 -0.3967
   24MOL    N68 3794   5.119   4.004   1.002  0.2105  0.2243 -0.0418
   24MOL    H69 3795   5.224   4.185   0.842  0.2896  0.3655 -0.5373
   24MOL    H70 3796   5.328   4.262   0.954  0.0474  0.4090  2.8380
   24MOL    H71 3797   5.225   4.109   1.141 -2.6509  2.4920 -1.0048
   24MOL    H72 3798   5.032   4.039   1.038 -0.6848 -0.2115 -1.7431
   24MOL    H73 3799   5.138   3.915   1.045  3.4286  1.3999  1.1381
   24MOL    C74 3800   5.358   4.006   1.011 -0.3154  0.1445  0.7577
   24MOL    C75 3801   5.496   4.064   1.059  0.3489  0.1367 -0.1267
   24MOL    N76 3802   5.505   4.065   1.208 -0.3816 -0.0681 -0.1395
   24MOL    H77 3803   5.346   3.907   1.056 -1.9508 -0.0031  0.0440
   24MOL    H78 3804   5.371   3.979   0.906  0.0447  1.5135  0.4455
   24MOL    H79 3805   5.502   4.164   1.015 -1.7687  0.0469 -0.6960
   24MOL    H80 3806   5.605   4.065   1.220 -0.2410 -0.6010 -1.2503
   24MOL    H81 3807   5.466   4.159   1.211 -0.8546 -0.1832 -1.8537
   24MOL    C82 3808   5.613   3.982   1.008 -0.5849 -0.5485 -0.6269
   24MOL    C83 3809   5.739   4.065   0.990 -0.2801  0.6974 -0.3799
   24MOL    N84 3810   5.837   4.022   1.092 -0.3074  0.1041 -0.0858
   24MOL    H85 3811   5.631   3.898   1.074 -0.8760 -0.5546 -0.5573
   24MOL    H86 3812   5.595   3.939   0.909 -2.0057 -1.3824 -0.0165
   24MOL    H87 3813   5.731   4.172   1.013 -0.7729  1.1274 -2.4539
   24MOL    H88 3814   5.881   3.942   1.048  1.6520 -1.2571  4.0645
   24MOL    H89 3815   5.911   4.090   1.088 -0.5123  0.3023 -0.5415
   24MOL    C90 3816   5.809   4.056   0.853 -0.5281 -0.5025  0.2584
   24MOL    C91 3817   5.740   4.155   0.747 -0.4211  0.4298  0.2341
   24MOL    N92 3818   5.821   4.150   0.625  0.4190  0.1968  0.6328
   24MOL    H93 3819   5.914   4.083   0.861  0.1784 -2.1899 -2.4915
   24MOL    H94 3820   5.820   3.955   0.813  1.0855  0.3035 -1.4348
   24MOL    H95 3821   5.753   4.259   0.777  0.6431  0.0168  1.2581
   24MOL    H96 3822   5.790   4.230   0.571  0.4116 -0.0328  0.2966
   24MOL    H97 3823   5.915   4.172   0.652  0.8800 -1.3593  0.3209
   24MOL    C98 3824   5.593   4.132   0.712  1.0275 -0.1437 -0.1354
   24MOL    C99 3825   5.521   4.220   0.600 -0.0796  0.2839  0.4135
   24MOL   N100 3826   5.396   4.148   0.559 -0.6363  0.3955 -0.4710
   24MOL   H101 3827   5.578   4.026   0.689 -0.3836 -0.4397  2.0647
   24MOL   H102 3828   5.544   4.152   0.807  0.1340  0.1840 -0.6631
   24MOL   H103 3829   5.582   4.228   0.510 -0.5009  0.5215  0.1513
   24MOL   H104 3830   5.417   4.057   0.520 -2.6270  0.0766 -0.8645
   24MOL   H105 3831   5.342   4.114   0.638  1.0948  0.9271  0.9846
   24MOL   C106 3832   5.485   4.361   0.643 -0.2533 -0.2898 -0.6788
   24MOL   C107 3833   5.599   4.463   0.653 -0.8377  0.5291 -0.0448
   24MOL   N108 3834   5.650   4.494   0.523  0.3617 -0.4896  0.3838
   24MOL   H109 3835   5.413   4.403   0.573 -0.0845 -2.9831 -2.5628
   24MOL   H110 3836   5.440   4.357   0.742  0.0065 -2.4812 -0.6151
   24MOL   H111 3837   5.675   4.425   0.720 -0.0442  0.9910 -0.6732
   24MOL   H112 3838   5.586   4.532   0.454  1.9836  0.4218 -0.6684
   24MOL   H113 3839   5.683   4.409   0.479 -1.7345 -1.1749  0.1102
   24MOL   C114 3840   5.560   4.596   0.716  0.4209 -0.5560  0.6699
   24MOL   C115 3841   5.593   4.594   0.863  0.1856 -0.4216 -0.1953
   24MOL   N116 3842   5.569   4.728   0.920 -0.3469 -0.6353  0.2444
   24MOL   H117 3843   5.622   4.679   0.683  1.3037 -2.1196 -1.7372
   24MOL   H118 3844   5.460   4.622   0.683  0.5226 -2.9107 -1.6491
   24MOL   H119 3845   5.701   4.586   0.870  0.5180  1.3083 -2.6915
   24MOL   H120 3846   5.472   4.756   0.920 -0.2796 -0.3158 -1.5575
   24MOL   H121 3847   5.607   4.799   0.859 -1.2806  0.3851  0.8183
   24MOL   C122 3848   5.513   4.495   0.952 -0.3698  0.3175  0.2105
   24MOL   C123 3849   5.529   4.494   1.105 -0.3857 -0.2971 -0.2398
   24MOL   N124 3850   5.444   4.388   1.156 -0.0613 -0.2763  0.3635
   24MOL   H125 3851   5.407   4.511   0.932 -0.7592 -0.6724  1.3761
   24MOL   H126 3852   5.531   4.393   0.918  1.6434  0.7583 -0.0948
   24MOL   H127 3853   5.500   4.595   1.136 -3.8781 -0.8363 -1.6359
   24MOL   H128 3854   5.448   4.405   1.256 -1.4321  3.1415 -0.1058
   24MOL   H129 3855   5.350   4.409   1.127  0.1239 -1.5701 -1.2228
   24MOL   C130 3856   5.670   4.455   1.159 -0.0277 -0.3708  0.2208
   24MOL   C131 3857   5.759   4.577   1.179 -0.6379  0.5811 -0.1136
   24MOL   N132 3858   5.698   4.640   1.295  0.0343  0.7494  0.1764
   24MOL   H133 3859   5.658   4.399   1.252 -1.7036 -0.5266 -0.0819
   24MOL   H134 3860   5.710   4.378   1.092 -0.9784 -0.5657 -0.1321
   24MOL   H135 3861   5.769   4.633   1.087 -1.2402 -2.2933 -1.9811
   24MOL   H136 3862   5.620   4.689   1.252  0.9454  1.3495 -0.8179
   24MOL   H137 3863   5.749   4.725   1.315 -0.3718  1.0929 -0.2433
   24MOL   C138 3864   5.903   4.536   1.216 -0.2104  0.1610 -0.5259
   24MOL   C139 3865   6.001   4.530   1.102  0.1117 -0.5344  0.2457
   24MOL   N140 3866   6.132   4.527   1.164 -0.2301  0.2132  0.2786
   24MOL   H141 3867   5.943   4.611   1.284 -1.6442 -1.0594  1.7038
   24MOL   H142 3868   5.908   4.436   1.259  0.3259 -0.6371 -2.3763
   24MOL   H143 3869   6.005   4.632   1.061 -0.6774 -1.0419 -1.1284
   24MOL   H144 3870   6.170   4.435   1.180  2.1234  0.9755 -0.6695
   24MOL   H145 3871   6.126   4.565   1.257  1.2686  0.2438  0.3657
   24MOL   C146 3872   5.986   4.405   1.010  1.2646 -0.5151  0.3490
   24MOL   C147 3873   6.082   4.421   0.893  0.4810 -0.1594 -0.6301
   24MOL   N148 3874   6.129   4.289   0.863  0.1704  0.5757  0.0645
   24MOL   H149 3875   5.996   4.310   1.063 -0.1715 -1.2465 -0.6442
   24MOL   H150 3876   5.884   4.404   0.973  1.2991 -0.5243  0.2529
   24MOL   H151 3877   6.180   4.467   0.909  0.3591  1.0034 -2.9828
   24MOL   H152 3878   6.131   4.254   0.957 -0.0735 -3.1719 -1.2413
   24MOL   H153 3879   6.225   4.297   0.832  0.8239  0.1403  1.9303
   24MOL   C154 3880   6.018   4.481   0.767 -0.4053 -0.6000  0.2006
   24MOL   C155 3881   6.002   4.633   0.774  0.5565  0.5075 -0.5021
   24MOL   N156 3882   5.953   4.693   0.650  0.4210 -0.4716 -0.4323
   24MOL   H157 3883   6.075   4.449   0.679  1.6286  1.3861  0.7589
   24MOL   H158 3884   5.914   4.451   0.752 -0.0917 -0.7103 -1.8784
   24MOL   H159 3885   6.092   4.687   0.803 -1.5191  2.2295  3.0041
   24MOL   H160 3886   5.934   4.792   0.649  1.3037 -0.2974 -1.6158
   24MOL   H161 3887   5.866   4.648   0.624 -0.5332  0.5340  0.9912
   24MOL   H162 3888   5.939   4.656   0.859 -0.0019  1.2126 -1.1040
   25MOL     C1 3889   1.037   0.639   5.296 -0.7076  0.3865  0.4046
   25MOL     C2 3890   1.007   0.684   5.437 -0.0454 -0.2383  0.8772
   25MOL     N3 3891   0.909   0.584   5.486 -0.1813 -0.3023 -0.7511
   25MOL     H4 3892   1.125   0.689   5.257  0.0849  0.5212  2.3226
   25MOL     H5 3893   0.957   0.661   5.225  0.5234  0.4094 -0.9996
   25MOL     H6 3894   0.955   0.779   5.433  2.0507  1.0118  2.2316
   25MOL     H7 3895   0.828   0.583   5.425 -0.2882 -0.7071 -0.6069
   25MOL     H8 3896   0.880   0.616   5.578  0.0651 -0.9421 -0.4454
   25MOL     H9 3897   1.054   0.532   5.298 -1.2869  0.2718 -0.7570
   25MOL    C10 3898   1.139   0.696   5.525 -0.1364  0.2400 -0.1239
   25MOL    C11 3899   1.226   0.826   5.495 -0.1121  0.8702 -0.1433
   25MOL    N12 3900   1.165   0.934   5.565  0.0547 -0.0762 -0.2048
   25MOL    H13 3901   1.121   0.688   5.632  1.0060  0.2428  0.0768
   25MOL    H14 3902   1.203   0.612   5.501 -0.5121 -0.0323 -0.1706
   25MOL    H15 3903   1.247   0.846   5.390 -0.4966 -0.5530 -0.5050
   25MOL    H16 3904   1.072   0.951   5.530 -0.4061  0.4784  1.2678
   25MOL    H17 3905   1.206   1.023   5.539 -0.8711 -0.0063 -1.4686
   25MOL    C18 3906   1.364   0.812   5.566 -0.7653 -0.6576 -1.0214
   25MOL    C19 3907   1.480   0.726   5.511 -0.2396  0.0782 -0.0043
   25MOL    N20 3908   1.507   0.763   5.376  0.1948 -0.3278  0.1900
   25MOL    H21 3909   1.407   0.910   5.588 -1.4855 -1.2215  3.4099
   25MOL    H22 3910   1.355   0.767   5.665  0.9337 -3.5398 -2.1227
   25MOL    H23 3911   1.458   0.619   5.520 -0.0491  0.1159  0.9254
   25MOL    H24 3912   1.568   0.690   5.340 -0.5602 -2.0663  2.3428
   25MOL    H25 3913   1.423   0.759   5.319 -0.2281  1.6275  0.6366
   25MOL    C26 3914   1.617   0.764   5.581 -0.2155 -0.2221 -0.4333
   25MOL    C27 3915   1.613   0.753   5.739 -0.3845 -0.0640 -0.9722
   25MOL    N28 3916   1.638   0.615   5.773 -0.1903 -0.3403 -0.2920
   25MOL    H29 3917   1.701   0.698   5.557  0.3346  0.4236 -0.2702
   25MOL    H30 3918   1.651   0.864   5.555  0.3034  0.5063  2.8361
   25MOL    H31 3919   1.516   0.783   5.780 -0.4912  0.1931 -1.4073
   25MOL    H32 3920   1.615   0.566   5.688 -2.3140 -1.8707  1.1068
   25MOL    H33 3921   1.737   0.595   5.783 -0.1216  0.3056  0.3587
   25MOL    C34 3922   1.736   0.820   5.813 -0.1199  0.8210 -0.0436
   25MOL    C35 3923   1.738   0.977   5.801  0.0199 -0.5410 -0.2707
   25MOL    N36 3924   1.617   1.033   5.861  0.1031 -0.4777 -0.2121
   25MOL    H37 3925   1.728   0.802   5.921  1.1536  2.5901  0.3724
   25MOL    H38 3926   1.826   0.769   5.778 -0.7057  1.5305 -2.6263
   25MOL    H39 3927   1.745   1.007   5.696  1.9734  1.8730  0.4965
   25MOL    H40 3928   1.639   1.020   5.959 -4.0903 -0.0852  0.8919
   25MOL    H41 3929   1.525   0.991   5.853  0.0935 -0.9321  1.9294
   25MOL    C42 3930   1.851   1.057   5.868 -0.6289 -0.0905  0.0152
   25MOL    C43 3931   1.902   1.169   5.768 -0.1307 -0.2108  0.1370
   25MOL    N44 3932   1.800   1.275   5.754 -0.6920  0.3637 -0.3948
   25MOL    H45 3933   1.826   1.101   5.964 -0.4712 -0.6554  0.3177
   25MOL    H46 3934   1.928   0.981   5.885 -1.1363 -0.9692 -1.4915
   25MOL    H47 3935   1.919   1.109   5.679 -0.7766 -1.4885  0.8546
   25MOL    H48 3936   1.711   1.229   5.765 -0.8760  0.3114 -1.9500
   25MOL    H49 3937   1.797   1.298   5.655  1.7728 -0.3225 -0.6560
   25MOL    C50 3938   2.035   1.230   5.830 -0.1554 -0.1226 -0.8228
   25MOL    C51 3939   2.154   1.239   5.731  0.3176  0.4484 -0.9663
   25MOL    N52 3940   2.238   1.341   5.785 -0.1671  0.6297 -0.2089
   25MOL    H53 3941   2.010   1.324   5.879  0.5920 -0.2359 -0.1986
   25MOL    H54 3942   2.070   1.171   5.915  0.2715  0.9961 -0.2188
   25MOL    H55 3943   2.114   1.254   5.630 -4.2978 -2.4850  0.2707
   25MOL    H56 3944   2.328   1.349   5.740  0.2813  2.9187  1.0192
   25MOL    H57 3945   2.266   1.296   5.872 -1.2337 -1.0562 -0.7144
   25MOL    C58 3946   2.233   1.107   5.738 -0.0574 -0.3257  0.1969
   25MOL    C59 3947   2.329   1.088   5.622 -0.2211 -0.3198  0.6559
   25MOL    N60 3948   2.385   0.954   5.626 -0.3767  0.0726  0.1966
   25MOL    H61 3949   2.281   1.098   5.835 -1.3887  2.2975  1.1631
   25MOL    H62 3950   2.164   1.024   5.726 -0.4926  0.4749 -3.5250
   25MOL    H63 3951   2.403   1.164   5.645 -2.5941  2.0435  0.7042
   25MOL    H64 3952   2.412   0.911   5.538  1.5227 -1.2093  1.3745
   25MOL    H65 3953   2.310   0.891   5.653 -0.5622  0.7263  1.2493
   25MOL    C66 3954   2.284   1.105   5.470 -0.3947  0.5070  0.7869
   25MOL    C67 3955   2.320   1.244   5.415  0.0624 -0.0412 -0.9492
   25MOL    N68 3956   2.460   1.256   5.373  0.4534  0.0444 -0.6827
   25MOL    H69 3957   2.325   1.032   5.401 -0.3160  2.2310 -1.0323
   25MOL    H70 3958   2.176   1.090   5.466  0.0670 -2.9407 -0.9598
   25MOL    H71 3959   2.308   1.312   5.499 -0.6300 -1.1943 -0.0931
   25MOL    H72 3960   2.497   1.349   5.387  0.4295  0.0167 -0.4258
   25MOL    H73 3961   2.519   1.196   5.429 -1.0673 -2.4144 -1.6323
   25MOL    C74 3962   2.228   1.299   5.312 -0.2508 -0.8542 -0.0346
   25MOL    C75 3963   2.230   1.450   5.275  0.1225  0.1964 -0.0678
   25MOL    N76 3964   2.173   1.463   5.141 -0.1876  0.1936 -0.6801
   25MOL    H77 3965   2.264   1.248   5.222 -0.6770  0.9800 -1.2731
   25MOL    H78 3966   2.127   1.265   5.334 -2.1114  3.2516 -1.7499
   25MOL    H79 3967   2.334   1.481   5.272  0.6200 -1.4672 -0.6856
   25MOL    H80 3968   2.186   1.560   5.115  1.3100 -0.2071 -1.4381
   25MOL    H81 3969   2.212   1.409   5.066 -0.1218 -0.6815 -0.0207
   25MOL    C82 3970   2.141   1.543   5.359  0.0705 -0.3016  0.9446
   25MOL    C83 3971   2.198   1.581   5.493  0.0691  0.0346 -0.4294
   25MOL    N84 3972   2.323   1.661   5.468 -0.0958  0.3205  0.5416
   25MOL    H85 3973   2.113   1.636   5.310  0.2101 -1.0803 -0.6528
   25MOL    H86 3974   2.048   1.491   5.380 -0.6813  0.9770  0.8328
   25MOL    H87 3975   2.237   1.494   5.547 -0.7514 -0.6826 -0.9770
   25MOL    H88 3976   2.386   1.591   5.433  0.8333  1.3552  0.0932
   25MOL    H89 3977   2.368   1.690   5.554 -0.9026  1.2899  0.6623
   25MOL    C90 3978   2.115   1.667   5.583 -0.0967  0.2248  0.4200
   25MOL    C91 3979   1.972   1.608   5.618 -0.1458 -0.4166 -1.0550
   25MOL    N92 3980   2.000   1.535   5.740 -0.4399  0.0071  0.0461
   25MOL    H93 3981   2.179   1.697   5.666 -2.6077  1.6856  1.8597
   25MOL    H94 3982   2.091   1.759   5.529 -1.6527  0.1391  0.9466
   25MOL    H95 3983   1.937   1.538   5.542 -1.6495 -1.3307  0.4498
   25MOL    H96 3984   2.090   1.489   5.739  0.6007  2.0364 -0.2928
   25MOL    H97 3985   1.938   1.456   5.752  0.2473 -0.5839 -0.2551
   25MOL    C98 3986   1.860   1.702   5.656  0.4862  0.0206 -0.1971
   25MOL    C99 3987   1.796   1.765   5.526  0.4499  0.0940  0.3588
   25MOL   N100 3988   1.677   1.690   5.497 -0.1525  0.1825  0.0443
   25MOL   H101 3989   1.777   1.659   5.712  0.3336  2.3138  1.4043
   25MOL   H102 3990   1.893   1.786   5.717  0.4606  1.0232 -1.5341
   25MOL   H103 3991   1.857   1.748   5.437  0.2393 -1.3234  0.4801
   25MOL   H104 3992   1.622   1.747   5.433  0.3889 -1.0867 -1.5793
   25MOL   H105 3993   1.703   1.613   5.437  1.0036  0.0746  0.6800
   25MOL   C106 3994   1.762   1.917   5.552 -0.3691  0.3111 -0.1666
   25MOL   C107 3995   1.873   2.016   5.541 -0.6713  0.2331  0.5580
   25MOL   N108 3996   1.954   1.970   5.429 -0.0991 -0.2611  0.1331
   25MOL   H109 3997   1.680   1.947   5.488  1.5068  0.4420 -2.5702
   25MOL   H110 3998   1.721   1.932   5.652 -3.2304  2.6856 -1.6207
   25MOL   H111 3999   1.934   2.012   5.631 -0.9116 -1.7359  0.6753
   25MOL   H112 4000   2.037   2.025   5.408  0.8605 -1.2650  1.1897
   25MOL   H113 4001   2.001   1.882   5.444 -0.1195 -0.6802 -2.0190
   25MOL   C114 4002   1.823   2.160   5.505 -0.1873  0.0949  0.0153
   25MOL   C115 4003   1.711   2.215   5.596  0.7904 -0.1353  0.1047
   25MOL   N116 4004   1.772   2.237   5.722 -0.0246 -0.5267  0.3431
   25MOL   H117 4005   1.902   2.235   5.498 -0.8091  1.1348  3.4359
   25MOL   H118 4006   1.784   2.145   5.404 -1.3378 -0.8466  0.5851
   25MOL   H119 4007   1.635   2.136   5.598  0.2509  0.3604 -0.5388
   25MOL   H120 4008   1.708   2.269   5.794  0.2080 -1.7517  1.1055
   25MOL   H121 4009   1.802   2.146   5.755  1.1695  0.3613  1.7738
   25MOL   C122 4010   1.638   2.346   5.545 -0.8073  0.1171 -0.1406
   25MOL   C123 4011   1.509   2.367   5.627  0.3215 -0.1631  0.3637
   25MOL   N124 4012   1.472   2.506   5.611  0.1202  0.1318  0.0013
   25MOL   H125 4013   1.706   2.431   5.540 -2.1440  1.2428  0.5007
   25MOL   H126 4014   1.609   2.339   5.441  2.5148 -1.0777 -1.0431
   25MOL   H127 4015   1.533   2.351   5.732  0.6965 -1.0703  0.1384
   25MOL   H128 4016   1.403   2.527   5.681  1.8341  0.7597  1.5303
   25MOL   H129 4017   1.426   2.518   5.521 -1.7854  2.1821  1.2018
   25MOL   C130 4018   1.399   2.265   5.582  0.6773  0.5999  0.5803
   25MOL   C131 4019   1.333   2.172   5.686  0.7532 -0.0348 -0.5195
   25MOL   N132 4020   1.228   2.245   5.751  0.2835 -0.1918 -0.2062
   25MOL   H133 4021   1.319   2.323   5.535 -1.2242 -1.5975  0.9979
   25MOL   H134 4022   1.440   2.208   5.499  0.6820  0.2221  0.8447
   25MOL   H135 4023   1.410   2.139   5.756  1.0082  0.2552 -0.6621
   25MOL   H136 4024   1.272   2.320   5.803  1.1708  0.1239 -1.3875
   25MOL   H137 4025   1.181   2.304   5.683  0.3848 -0.5374 -0.5803
   25MOL   C138 4026   1.254   2.058   5.625  0.1829 -0.1896 -0.1861
   25MOL   C139 4027   1.240   1.931   5.712 -0.1515 -0.8822  0.1742
   25MOL   N140 4028   1.129   1.852   5.660  0.2422 -0.2848 -0.6649
   25MOL   H141 4029   1.158   2.104   5.603  1.0217  1.4799 -0.3861
   25MOL   H142 4030   1.295   2.028   5.529  0.9123 -1.1070  0.4083
   25MOL   H143 4031   1.215   1.960   5.814 -2.0927 -0.2790 -0.4446
   25MOL   H144 4032   1.161   1.833   5.566  1.6223  1.0619 -0.4976
   25MOL   H145 4033   1.052   1.915   5.643  0.5875  0.1606 -0.5861
   25MOL   C146 4034   1.364   1.844   5.709 -0.3146  0.2171  0.4343
   25MOL   C147 4035   1.406   1.803   5.851  0.2600  0.4948 -0.5286
   25MOL   N148 4036   1.486   1.682   5.842 -0.4296 -0.0611 -0.0022
   25MOL   H149 4037   1.334   1.764   5.641 -0.8660 -0.5560  1.5653
   25MOL   H150 4038   1.445   1.899   5.662 -0.7219  1.1895  0.8465
   25MOL   H151 4039   1.308   1.783   5.894  0.9975  0.8368  1.3488
   25MOL   H152 4040   1.437   1.605   5.798  1.7507 -0.4729 -1.7962
   25MOL   H153 4041   1.567   1.689   5.783 -1.9592  1.1498 -1.9875
   25MOL   C154 4042   1.479   1.916   5.933  0.7778  0.3200  0.1138
   25MOL   C155 4043   1.489   1.877   6.078  0.0922 -0.4506 -0.1504
   25MOL   N156 4044   1.498   1.997   6.160 -0.0361 -0.4144  0.3478
   25MOL   H157 4045   1.576   1.921   5.884  0.3355 -0.2677 -0.8498
   25MOL   H158 4046   1.435   2.015   5.923  1.9115  0.5828 -2.9868
   25MOL   H159 4047   1.577   1.814   6.092 -1.5775 -2.5970  1.1345
   25MOL   H160 4048   1.589   2.042   6.154  0.4470 -1.1703  1.7971
   25MOL   H161 4049   1.501   1.950   6.249  1.3369  0.6260  0.8861
   25MOL   H162 4050   1.398   1.828   6.113 -0.3780  0.7975  0.3749
   26MOL     C1 4051   6.324   6.292   2.811  0.8887 -0.4095  0.2846
   26MOL     C2 4052   6.470   6.248   2.828 -0.6150  0.2339  0.0277
   26MOL     N3 4053   6.543   6.358   2.890 -0.3611  0.2802 -0.0345
   26MOL     H4 4054   6.319   6.389   2.762  1.8724 -0.3674  0.2546
   26MOL     H5 4055   6.284   6.294   2.912 -1.1228 -0.2281 -0.4963
   26MOL     H6 4056   6.497   6.231   2.724 -0.7793  1.5026 -0.2282
   26MOL     H7 4057   6.484   6.413   2.950 -1.6847  2.1811 -2.9885
   26MOL     H8 4058   6.612   6.317   2.952  1.2834  1.1350 -1.2534
   26MOL     H9 4059   6.255   6.223   2.763  0.1302 -0.9089  2.0276
   26MOL    C10 4060   6.509   6.119   2.908  0.1796  0.4460  0.0377
   26MOL    C11 4061   6.437   5.986   2.867  0.2191 -0.2263  0.7621
   26MOL    N12 4062   6.521   5.874   2.926  0.0290  0.5607  0.1605
   26MOL    H13 4063   6.615   6.096   2.917 -0.1870 -1.3497 -0.1197
   26MOL    H14 4064   6.487   6.145   3.012  0.9212  2.3329 -0.2627
   26MOL    H15 4065   6.437   5.979   2.758  1.5957 -1.0305  0.8003
   26MOL    H16 4066   6.616   5.894   2.900  0.4418  0.6703  1.7275
   26MOL    H17 4067   6.533   5.901   3.022  1.6846  1.0572 -0.1670
   26MOL    C18 4068   6.296   5.970   2.934 -0.2779 -0.6309 -0.2032
   26MOL    C19 4069   6.216   5.839   2.908  0.6353  0.1598  0.5704
   26MOL    N20 4070   6.093   5.852   2.990 -0.2188 -0.3548  0.0047
   26MOL    H21 4071   6.310   5.973   3.042 -0.0174 -0.0140 -0.2480
   26MOL    H22 4072   6.234   6.055   2.907 -1.0747 -0.4097  2.2254
   26MOL    H23 4073   6.273   5.758   2.952  0.8476  0.3055  0.5643
   26MOL    H24 4074   6.053   5.944   2.995  0.3150 -0.2574  3.5747
   26MOL    H25 4075   6.131   5.829   3.081 -0.7361 -0.8806  0.0916
   26MOL    C26 4076   6.172   5.804   2.761  0.2273  0.5045 -0.5794
   26MOL    C27 4077   6.288   5.751   2.677  0.6678  0.4501 -0.0598
   26MOL    N28 4078   6.289   5.605   2.672  0.3965  0.7314 -0.1300
   26MOL    H29 4079   6.081   5.745   2.776  1.0308  0.0643  3.0689
   26MOL    H30 4080   6.141   5.895   2.709  0.9852  1.1966  0.1525
   26MOL    H31 4081   6.382   5.780   2.722 -0.1243  1.1108  1.1858
   26MOL    H32 4082   6.382   5.568   2.666  0.2019  0.0926  0.6644
   26MOL    H33 4083   6.230   5.584   2.593  0.1342  0.2294  0.1916
   26MOL    C34 4084   6.288   5.808   2.534 -0.0388  0.5790 -0.2178
   26MOL    C35 4085   6.162   5.792   2.448  0.0217 -0.0667 -0.1742
   26MOL    N36 4086   6.174   5.895   2.346 -0.0544 -0.0890 -0.3340
   26MOL    H37 4087   6.306   5.915   2.548  1.1579  0.2164  1.0163
   26MOL    H38 4088   6.371   5.753   2.490  0.1124 -0.5640  1.4779
   26MOL    H39 4089   6.075   5.820   2.508 -0.0815 -0.8213  0.0389
   26MOL    H40 4090   6.168   5.851   2.255 -3.1748  1.1713 -0.8228
   26MOL    H41 4091   6.270   5.924   2.339  0.6265 -1.9842  0.7976
   26MOL    C42 4092   6.150   5.646   2.388 -0.4113  0.2040  0.1166
   26MOL    C43 4093   6.017   5.574   2.377 -0.0757 -0.5146  0.4010
   26MOL    N44 4094   6.030   5.458   2.280 -0.1478 -0.7122 -0.5182
   26MOL    H45 4095   6.186   5.646   2.285 -4.0345 -1.4771 -1.2620
   26MOL    H46 4096   6.228   5.590   2.440  0.2691  1.8929  0.9347
   26MOL    H47 4097   5.949   5.646   2.331 -0.3697 -0.6148  0.6815
   26MOL    H48 4098   6.062   5.496   2.192  1.0668 -0.8511 -0.1327
   26MOL    H49 4099   5.940   5.417   2.258 -1.8424  1.7913  1.4438
   26MOL    C50 4100   5.969   5.524   2.516 -0.1735  0.0793 -0.6378
   26MOL    C51 4101   5.830   5.568   2.565  0.5991 -0.1916 -0.6317
   26MOL    N52 4102   5.800   5.490   2.681  0.1429 -0.5352  0.6391
   26MOL    H53 4103   5.989   5.417   2.526  1.8150  0.6956  2.6395
   26MOL    H54 4104   6.041   5.552   2.593 -1.2060  0.7507  0.0786
   26MOL    H55 4105   5.755   5.542   2.490 -0.2418  0.4978 -0.0382
   26MOL    H56 4106   5.874   5.486   2.750  0.4267 -0.9656  0.3150
   26MOL    H57 4107   5.718   5.520   2.731  0.1060 -0.8320  0.7567
   26MOL    C58 4108   5.822   5.725   2.599  0.2027 -0.3068  0.2231
   26MOL    C59 4109   5.679   5.769   2.657 -0.3989 -0.2825 -0.4889
   26MOL    N60 4110   5.705   5.899   2.714 -0.1163 -0.2756  0.4546
   26MOL    H61 4111   5.902   5.763   2.662  2.5112 -0.4798 -2.5178
   26MOL    H62 4112   5.854   5.773   2.506  0.3728  0.6247  0.7606
   26MOL    H63 4113   5.642   5.713   2.744 -2.3117  2.8719  0.7918
   26MOL    H64 4114   5.723   5.884   2.813 -0.5568 -0.8476  0.4495
   26MOL    H65 4115   5.791   5.934   2.674 -0.3600  0.8923  0.9173
   26MOL    C66 4116   5.564   5.765   2.551 -0.1126 -0.4901  0.4675
   26MOL    C67 4117   5.434   5.848   2.576 -0.2125 -0.1438 -0.7118
   26MOL    N68 4118   5.338   5.829   2.468  0.5764  0.1637 -0.3387
   26MOL    H69 4119   5.613   5.814   2.468 -0.4822 -0.8795  0.0179
   26MOL    H70 4120   5.527   5.662   2.544 -0.9858 -0.1867  0.5089
   26MOL    H71 4121   5.472   5.950   2.569 -1.8805  0.5285 -0.1299
   26MOL    H72 4122   5.341   5.728   2.460  0.1873 -0.0456  1.7848
   26MOL    H73 4123   5.383   5.870   2.387  2.6889 -0.5248  0.4456
   26MOL    C74 4124   5.359   5.836   2.709  0.0622 -0.3592  0.1605
   26MOL    C75 4125   5.254   5.947   2.751 -0.0719  0.5477  0.6715
   26MOL    N76 4126   5.135   5.925   2.666  0.1154 -0.1784 -0.0355
   26MOL    H77 4127   5.310   5.739   2.712 -1.3179  0.2979 -0.8434
   26MOL    H78 4128   5.445   5.837   2.776 -1.1914  0.1495  1.7991
   26MOL    H79 4129   5.295   6.046   2.730  1.9789  0.1280  2.5037
   26MOL    H80 4130   5.169   5.892   2.577 -1.2859  0.5734 -0.8551
   26MOL    H81 4131   5.090   6.013   2.644 -1.7157 -0.5230  2.1593
   26MOL    C82 4132   5.218   5.932   2.898  0.4185  0.1930 -0.3663
   26MOL    C83 4133   5.120   6.039   2.949 -0.5745  0.1968  0.1237
   26MOL    N84 4134   4.981   5.999   2.913  0.4369  0.0486 -0.1488
   26MOL    H85 4135   5.175   5.835   2.922  1.5453 -0.5037 -1.0818
   26MOL    H86 4136   5.318   5.929   2.942  1.3920  0.7000 -2.4860
   26MOL    H87 4137   5.144   6.121   2.881 -1.5632 -0.3316 -0.8790
   26MOL    H88 4138   4.944   6.088   2.883 -0.0214  0.3513  1.2661
   26MOL    H89 4139   4.997   5.965   2.819 -0.7243  0.5076 -0.5241
   26MOL    C90 4140   5.143   6.075   3.100 -0.0337 -0.7995 -0.5424
   26MOL    C91 4141   5.289   6.112   3.138  0.2030 -1.5247 -0.5954
   26MOL    N92 4142   5.316   6.226   3.056  0.2619 -0.3943  0.6128
   26MOL    H93 4143   5.073   6.151   3.131  0.4355 -0.4868 -0.2399
   26MOL    H94 4144   5.129   5.983   3.157  2.3450 -0.4520  0.7049
   26MOL    H95 4145   5.354   6.025   3.127 -0.2230 -1.9504  0.2216
   26MOL    H96 4146   5.279   6.204   2.964  0.8391  0.0183  0.2822
   26MOL    H97 4147   5.415   6.238   3.044  0.4078 -2.9991 -1.3123
   26MOL    C98 4148   5.303   6.159   3.281  0.0854 -0.3309 -0.0662
   26MOL    C99 4149   5.307   6.051   3.392 -0.1187 -0.4521  0.1533
   26MOL   N100 4150   5.412   6.083   3.479 -0.2271 -0.1227 -0.1051
   26MOL   H101 4151   5.396   6.214   3.284 -0.7115  0.9801  2.8860
   26MOL   H102 4152   5.239   6.245   3.303  1.0655  0.0883  1.2340
   26MOL   H103 4153   5.324   5.950   3.355  2.1963 -1.1487  2.9296
   26MOL   H104 4154   5.417   6.010   3.548 -4.6129 -1.9508 -1.5655
   26MOL   H105 4155   5.495   6.067   3.423 -0.0787  2.5680 -0.7469
   26MOL   C106 4156   5.183   6.059   3.483  0.0329  0.2651  0.4778
   26MOL   C107 4157   5.170   5.938   3.580 -0.0293  0.4819  0.4193
   26MOL   N108 4158   5.054   5.962   3.667  0.2677  0.7313 -0.1420
   26MOL   H109 4159   5.189   6.155   3.534  0.2477  1.0780 -1.0372
   26MOL   H110 4160   5.093   6.063   3.422  0.8576 -0.9096 -0.8543
   26MOL   H111 4161   5.261   5.929   3.639  0.5531  0.4960 -0.4637
   26MOL   H112 4162   5.053   5.883   3.731 -3.0833 -0.2591 -1.3203
   26MOL   H113 4163   5.088   6.032   3.732  1.8026 -0.4948  0.4077
   26MOL   C114 4164   5.149   5.806   3.500 -0.0522  0.2344  0.0037
   26MOL   C115 4165   5.235   5.686   3.548  0.0642  0.0016  0.4446
   26MOL   N116 4166   5.374   5.711   3.518  0.4824  0.1033  0.0452
   26MOL   H117 4167   5.044   5.780   3.507  0.5986 -1.9412  2.6329
   26MOL   H118 4168   5.171   5.819   3.394  2.1506  2.7242  0.6972
   26MOL   H119 4169   5.209   5.597   3.491  1.0757  0.9845 -1.6009
   26MOL   H120 4170   5.423   5.766   3.588  0.1565  1.0267 -0.4495
   26MOL   H121 4171   5.421   5.622   3.508  1.5628  0.5103  1.4133
   26MOL   C122 4172   5.232   5.654   3.696  0.1753 -0.4332  0.1541
   26MOL   C123 4173   5.096   5.620   3.750 -0.0429  0.2976 -0.0920
   26MOL   N124 4174   5.048   5.500   3.686 -0.6352  0.4731 -0.3499
   26MOL   H125 4175   5.294   5.566   3.712 -0.0621 -1.0716 -2.2071
   26MOL   H126 4176   5.278   5.736   3.751  0.5031 -0.6200  0.1587
   26MOL   H127 4177   5.033   5.702   3.717 -3.1419 -2.3497 -0.9541
   26MOL   H128 4178   5.035   5.528   3.589 -0.3221 -0.7401 -0.7538
   26MOL   H129 4179   4.960   5.486   3.732 -0.2461  0.6646  0.4647
   26MOL   C130 4180   5.091   5.605   3.898 -0.9778  0.0313 -0.6804
   26MOL   C131 4181   4.953   5.570   3.960  0.3504 -0.0824  0.3492
   26MOL   N132 4182   4.971   5.561   4.106  0.1104 -0.1381 -1.3722
   26MOL   H133 4183   5.152   5.519   3.927 -0.0078  0.7737 -0.4692
   26MOL   H134 4184   5.140   5.691   3.944  0.8877 -1.2032 -0.2592
   26MOL   H135 4185   4.919   5.474   3.922 -0.6601  1.1595 -1.9453
   26MOL   H136 4186   4.960   5.464   4.131 -1.6305 -1.2000 -5.8079
   26MOL   H137 4187   5.067   5.573   4.136 -0.4125 -0.0890  0.3195
   26MOL   C138 4188   4.846   5.682   3.934  0.3638  0.2643  0.7081
   26MOL   C139 4189   4.771   5.696   3.796  0.3661  0.0552 -0.4926
   26MOL   N140 4190   4.729   5.564   3.738 -0.1191  0.0765  0.0794
   26MOL   H141 4191   4.770   5.660   4.009 -1.0485  1.7353 -0.2452
   26MOL   H142 4192   4.892   5.774   3.969  1.1947 -0.5620  1.8364
   26MOL   H143 4193   4.842   5.741   3.727  0.4428  1.8426  0.6865
   26MOL   H144 4194   4.663   5.526   3.804 -1.5562 -2.2673 -2.6060
   26MOL   H145 4195   4.678   5.580   3.652 -1.5404 -2.0022  0.5150
   26MOL   C146 4196   4.647   5.790   3.801 -0.6985 -0.2300  0.2846
   26MOL   C147 4197   4.670   5.938   3.861 -0.1302 -0.1982 -0.1262
   26MOL   N148 4198   4.750   6.021   3.770  1.1185  0.0766  0.0214
   26MOL   H149 4199   4.600   5.802   3.704 -2.9949  0.2286  1.4136
   26MOL   H150 4200   4.575   5.742   3.867  0.9091 -0.4252  1.9443
   26MOL   H151 4201   4.707   5.947   3.964  1.2063  1.9107 -0.7644
   26MOL   H152 4202   4.850   6.010   3.776  0.9526 -1.8791 -0.3973
   26MOL   H153 4203   4.733   5.985   3.677  0.1748 -0.9760  0.5944
   26MOL   C154 4204   4.528   6.003   3.863 -0.2433 -0.0123  0.6494
   26MOL   C155 4205   4.431   5.952   3.968 -0.0311  0.0544  0.8058
   26MOL   N156 4206   4.308   6.035   3.962 -0.7214  0.8167 -0.2509
   26MOL   H157 4207   4.545   6.106   3.895  0.7589 -0.1623  0.5960
   26MOL   H158 4208   4.488   5.996   3.761 -0.3573  0.3480  0.6658
   26MOL   H159 4209   4.476   5.946   4.067  1.1082 -3.4768  0.1763
   26MOL   H160 4210   4.314   6.074   3.869  3.1901  2.4414  0.5700
   26MOL   H161 4211   4.327   6.120   4.013  0.6021 -0.0953  0.7951
   26MOL   H162 4212   4.410   5.846   3.951  1.1521  0.1341 -1.3094
   27MOL     C1 4213   0.588   6.518   7.267 -0.4555 -0.6355 -0.2109
   27MOL     C2 4214   0.541   6.377   7.259  1.0527  0.6642  0.1674
   27MOL     N3 4215   0.653   6.292   0.009 -0.2384  0.7943  0.8485
   27MOL     H4 4216   0.587   6.553   0.094  1.0877  0.7155 -0.6286
   27MOL     H5 4217   0.516   6.592   7.231  2.1762  0.9993 -2.3380
   27MOL     H6 4218   0.530   6.354   7.153  1.5737  0.5210  0.1426
   27MOL     H7 4219   0.700   6.320   0.094 -0.7026  1.8174  0.7754
   27MOL     H8 4220   0.720   6.305   7.211 -0.2004 -1.3582  0.4639
   27MOL     H9 4221   0.687   6.542   7.226 -0.1970 -0.6799  0.3865
   27MOL    C10 4222   0.410   6.335   0.043  0.2501 -0.0496  0.3300
   27MOL    C11 4223   0.313   6.257   7.226 -0.1935  1.1384  0.0131
   27MOL    N12 4224   0.217   6.187   0.031 -0.5125  0.5434  0.3041
   27MOL    H13 4225   0.438   6.270   0.125 -1.8833 -1.1656  0.2234
   27MOL    H14 4226   0.356   6.419   0.086  2.7709  1.8861 -0.1914
   27MOL    H15 4227   0.378   6.182   7.180  0.1062 -0.6349  3.1833
   27MOL    H16 4228   0.119   6.194   0.005 -0.4908  0.7239  0.2663
   27MOL    H17 4229   0.213   6.226   0.125  1.2738 -1.3851  1.2185
   27MOL    C18 4230   0.237   6.343   7.117 -0.5855  0.0833  0.2996
   27MOL    C19 4231   0.191   6.245   6.996  0.9254  0.1719 -0.5083
   27MOL    N20 4232   0.081   6.305   6.921  0.0709  0.2097 -0.0130
   27MOL    H21 4233   0.156   6.396   7.168  0.0595  1.5542 -0.1583
   27MOL    H22 4234   0.303   6.417   7.070 -1.8642  0.0310 -1.6334
   27MOL    H23 4235   0.162   6.145   7.028  0.2193  0.1466 -1.2063
   27MOL    H24 4236   0.015   6.242   6.879  0.9969 -0.6047 -0.2443
   27MOL    H25 4237   0.105   6.366   6.845  1.4241 -0.6908 -0.3194
   27MOL    C26 4238   0.312   6.227   6.903  0.0445  0.5971 -0.6432
   27MOL    C27 4239   0.320   6.094   6.817  0.0598  1.0142  0.4701
   27MOL    N28 4240   0.375   6.130   6.693 -0.6470 -0.2502  0.2275
   27MOL    H29 4241   0.318   6.308   6.830  0.5164  0.2454 -1.0075
   27MOL    H30 4242   0.407   6.238   6.956 -0.6852  0.9324  0.5924
   27MOL    H31 4243   0.217   6.062   6.803  0.0121  0.0881  2.7873
   27MOL    H32 4244   0.368   6.043   6.644 -2.8829 -0.0224  0.1051
   27MOL    H33 4245   0.309   6.193   6.650 -2.9970 -1.1356  2.4022
   27MOL    C34 4246   0.396   5.971   6.881 -0.6056 -0.6861  0.0061
   27MOL    C35 4247   0.353   5.929   7.020 -0.7017  0.9425 -0.1046
   27MOL    N36 4248   0.242   5.833   7.010 -0.0266  0.7331  0.1758
   27MOL    H37 4249   0.393   5.882   6.817 -1.1431 -0.4475 -0.2971
   27MOL    H38 4250   0.501   5.999   6.896 -1.2975 -0.4518  5.5689
   27MOL    H39 4251   0.308   6.010   7.078  1.9287  0.8983  2.0481
   27MOL    H40 4252   0.169   5.880   6.958 -0.2586  0.0062 -0.1714
   27MOL    H41 4253   0.215   5.807   7.104  1.1785  3.2263  1.2524
   27MOL    C42 4254   0.453   5.843   7.109 -0.3397  0.3740  0.2245
   27MOL    C43 4255   0.552   5.941   7.176 -0.0295  0.2073  0.0707
   27MOL    N44 4256   0.506   5.991   0.026  0.0816 -0.0881 -0.5747
   27MOL    H45 4257   0.396   5.791   7.185  1.2062 -0.7441  0.6640
   27MOL    H46 4258   0.504   5.763   7.054  2.7264 -0.1161  3.5579
   27MOL    H47 4259   0.577   6.031   7.119 -2.0088  0.7177 -0.0148
   27MOL    H48 4260   0.409   6.016   0.013 -0.1888  0.3002  2.0136
   27MOL    H49 4261   0.551   6.080   0.042 -0.6084 -0.2197  2.3693
   27MOL    C50 4262   0.698   5.882   7.210 -0.2388  0.1772 -0.1963
   27MOL    C51 4263   0.812   5.979   7.175  0.6824  0.3036 -0.0778
   27MOL    N52 4264   0.871   6.049   0.020  0.3126  0.4330  0.2099
   27MOL    H53 4265   0.694   5.855   0.040  0.3448  0.2386 -0.1562
   27MOL    H54 4266   0.704   5.787   7.158  0.2454  1.0823 -1.8163
   27MOL    H55 4267   0.765   6.061   7.121  0.5366 -0.0190 -0.4396
   27MOL    H56 4268   0.809   6.114   0.068  1.5935  1.4708  0.4926
   27MOL    H57 4269   0.930   6.121   7.257 -0.5410  0.8995 -0.2367
   27MOL    C58 4270   0.928   5.910   7.092  0.7973 -0.5087 -0.7601
   27MOL    C59 4271   0.899   5.924   6.944  0.2353 -0.7908  0.0475
   27MOL    N60 4272   0.924   6.066   6.908  0.8965  0.3760  0.5568
   27MOL    H61 4273   1.016   5.972   7.112 -0.7194  1.0934  1.1863
   27MOL    H62 4274   0.945   5.810   7.133  0.0415 -0.7224 -0.9683
   27MOL    H63 4275   0.796   5.891   6.929 -0.4187  1.5045 -0.6198
   27MOL    H64 4276   0.859   6.121   6.962 -0.9393  0.1328 -1.3178
   27MOL    H65 4277   0.886   6.088   6.816  3.0875  0.2028 -0.4294
   27MOL    C66 4278   0.993   5.851   6.846 -0.6237  0.0280 -0.0142
   27MOL    C67 4279   0.974   5.696   6.853 -0.1045 -0.0759  1.1995
   27MOL    N68 4280   0.837   5.667   6.810  0.0174 -0.3209  0.2112
   27MOL    H69 4281   0.993   5.878   6.740  0.6704 -3.3058 -0.9189
   27MOL    H70 4282   1.096   5.887   6.856 -0.5958  0.6539 -2.1524
   27MOL    H71 4283   0.987   5.659   6.955 -1.9947  0.5118  1.6897
   27MOL    H72 4284   0.787   5.681   6.896  1.1864 -1.7266  1.1546
   27MOL    H73 4285   0.835   5.566   6.806 -1.0295 -0.3142  0.4931
   27MOL    C74 4286   1.059   5.614   6.760  0.2463  0.3718 -0.0180
   27MOL    C75 4287   1.221   5.615   6.766  0.4886 -0.0849 -0.1324
   27MOL    N76 4288   1.266   5.560   6.892  0.2240 -0.5095  0.4418
   27MOL    H77 4289   1.031   5.511   6.785  2.0043 -0.8884 -2.9915
   27MOL    H78 4290   1.017   5.620   6.660 -1.1046  2.4205  0.6293
   27MOL    H79 4291   1.242   5.722   6.766 -2.2342  0.5129  1.4435
   27MOL    H80 4292   1.249   5.461   6.901  0.1935 -0.6326 -0.9813
   27MOL    H81 4293   1.366   5.572   6.895  0.0908  0.8026  0.2096
   27MOL    C82 4294   1.282   5.539   6.648 -0.3188 -0.4868  0.3887
   27MOL    C83 4295   1.278   5.622   6.523 -0.1377 -0.0380  0.6500
   27MOL    N84 4296   1.413   5.677   6.501 -0.6161  0.2327  0.1846
   27MOL    H85 4297   1.379   5.499   6.678  0.4550  0.6178 -0.6048
   27MOL    H86 4298   1.224   5.447   6.639 -0.6716 -0.2160 -0.1372
   27MOL    H87 4299   1.217   5.709   6.547  1.1055  0.6520  1.3720
   27MOL    H88 4300   1.411   5.738   6.421 -0.8176 -0.6041 -0.4630
   27MOL    H89 4301   1.432   5.733   6.582 -0.8858  1.0391 -0.3023
   27MOL    C90 4302   1.231   5.550   6.385 -0.4383  0.6050 -0.7423
   27MOL    C91 4303   1.082   5.506   6.382 -0.0297  0.2038  0.1995
   27MOL    N92 4304   1.000   5.624   6.355 -0.0543  0.4851 -0.4449
   27MOL    H93 4305   1.252   5.622   6.306  0.8840  0.5595 -0.4420
   27MOL    H94 4306   1.296   5.465   6.363  0.7972  1.0312  1.1527
   27MOL    H95 4307   1.051   5.467   6.479 -1.7799  1.8895  0.3535
   27MOL    H96 4308   1.019   5.658   6.262  1.2698  1.3295  0.1137
   27MOL    H97 4309   1.004   5.707   6.412 -1.3803  1.0713 -1.2095
   27MOL    C98 4310   1.049   5.411   6.265 -0.1894 -0.7813  0.0072
   27MOL    C99 4311   1.091   5.269   6.301  0.1621 -0.0246 -0.5567
   27MOL   N100 4312   1.014   5.207   6.409 -0.1692  0.1761 -0.1719
   27MOL   H101 4313   0.945   5.417   6.233 -0.0844  0.9183 -0.0816
   27MOL   H102 4314   1.128   5.447   6.198 -0.3174 -1.6671 -0.6276
   27MOL   H103 4315   1.194   5.277   6.337  0.5883  2.0907 -2.1350
   27MOL   H104 4316   1.044   5.114   6.436 -1.5860 -0.2915 -0.1991
   27MOL   H105 4317   1.015   5.262   6.493  1.0112  2.3187 -1.5327
   27MOL   C106 4318   1.096   5.174   6.181  0.0820 -0.2545  0.1147
   27MOL   C107 4319   1.187   5.211   6.066 -0.2890 -0.0736  0.9656
   27MOL   N108 4320   1.325   5.220   6.111 -0.2519  0.1945 -0.1701
   27MOL   H109 4321   1.133   5.079   6.217  1.3202 -1.0080 -2.9558
   27MOL   H110 4322   0.995   5.163   6.141 -0.7922  1.4321  1.7659
   27MOL   H111 4323   1.157   5.309   6.029  1.9404  1.1806  2.3149
   27MOL   H112 4324   1.383   5.242   6.031 -0.7547  3.0428  0.1918
   27MOL   H113 4325   1.337   5.306   6.162 -1.8767 -0.0435  0.6324
   27MOL   C114 4326   1.177   5.098   5.961  0.2051 -0.0954  0.3115
   27MOL   C115 4327   1.027   5.069   5.911  0.3439  0.5347 -0.2512
   27MOL   N116 4328   0.971   5.200   5.871  0.1816  0.5963  0.2542
   27MOL   H117 4329   1.225   5.138   5.872 -2.3611 -0.0076 -1.0611
   27MOL   H118 4330   1.231   5.008   5.991  0.3995  0.6760  2.3357
   27MOL   H119 4331   0.970   5.028   5.994  0.8156  1.5964  0.6079
   27MOL   H120 4332   0.990   5.258   5.952 -0.3731 -1.1590  1.6849
   27MOL   H121 4333   0.871   5.202   5.862  0.3029 -0.6824 -1.6663
   27MOL   C122 4334   1.038   4.970   5.788  0.4503 -0.5356  0.3384
   27MOL   C123 4335   0.907   4.932   5.705 -0.9103  0.2627 -0.0082
   27MOL   N124 4336   0.945   4.849   5.598 -0.3860  0.6875  0.2080
   27MOL   H125 4337   1.119   5.003   5.723  0.9364 -2.3911 -0.0230
   27MOL   H126 4338   1.070   4.875   5.829 -0.3231 -0.1910  1.7870
   27MOL   H127 4339   0.864   5.022   5.661  2.3095  0.8574 -2.0453
   27MOL   H128 4340   0.985   4.914   5.532 -2.2261  0.3047 -1.3445
   27MOL   H129 4341   1.028   4.799   5.626 -0.1855  0.3555 -0.9701
   27MOL   C130 4342   0.796   4.856   5.770  0.6093 -0.1217 -0.1155
   27MOL   C131 4343   0.714   4.927   5.885 -0.8054 -0.2769  0.7229
   27MOL   N132 4344   0.609   5.019   5.844 -0.5525  0.1826  0.1312
   27MOL   H133 4345   0.729   4.806   5.700 -1.1393 -1.0657  2.1813
   27MOL   H134 4346   0.826   4.764   5.819 -0.6555 -1.3532 -1.5933
   27MOL   H135 4347   0.783   4.989   5.944  0.4051 -1.3901  0.5013
   27MOL   H136 4348   0.527   4.968   5.816 -0.4449  0.6371 -1.0534
   27MOL   H137 4349   0.648   5.053   5.757 -0.8473 -0.0973 -0.1120
   27MOL   C138 4350   0.643   4.834   5.983 -0.8070  0.2435 -0.2540
   27MOL   C139 4351   0.734   4.758   6.089  0.3755 -0.3383  0.2049
   27MOL   N140 4352   0.810   4.849   6.157  0.2681 -0.3984 -0.1312
   27MOL   H141 4353   0.568   4.891   6.037 -0.8542 -1.3963  1.4410
   27MOL   H142 4354   0.584   4.770   5.918 -2.3197  0.5467  0.7944
   27MOL   H143 4355   0.802   4.691   6.036 -1.4207 -0.3003 -2.2646
   27MOL   H144 4356   0.750   4.914   6.205  0.0578  0.9468 -2.1480
   27MOL   H145 4357   0.891   4.821   6.210  0.0237 -1.1858 -0.1665
   27MOL   C146 4358   0.654   4.680   6.201 -0.2449  0.4288 -0.1871
   27MOL   C147 4359   0.594   4.549   6.146 -0.0646  0.3125 -0.4634
   27MOL   N148 4360   0.700   4.448   6.135  0.0698  0.0163  0.1904
   27MOL   H149 4361   0.723   4.660   6.283 -0.4126 -0.6809 -0.2981
   27MOL   H150 4362   0.583   4.750   6.244 -1.5700 -1.3198  0.5436
   27MOL   H151 4363   0.550   4.558   6.046  0.6894  0.8144 -0.7558
   27MOL   H152 4364   0.671   4.352   6.126 -2.7476  0.8433 -0.0100
   27MOL   H153 4365   0.756   4.459   6.051 -0.3952 -0.6720 -0.2082
   27MOL   C154 4366   0.495   4.494   6.250  0.4971 -0.4555 -0.0776
   27MOL   C155 4367   0.358   4.563   6.257  0.3032  0.1198  0.5619
   27MOL   N156 4368   0.306   4.546   6.393 -0.3431 -0.0026 -0.3907
   27MOL   H157 4369   0.485   4.392   6.211  1.0609  0.0371 -1.5272
   27MOL   H158 4370   0.533   4.496   6.352  1.5186  0.2062 -0.4712
   27MOL   H159 4371   0.292   4.542   6.173  1.1394  1.4320 -0.4563
   27MOL   H160 4372   0.209   4.575   6.388 -1.0003 -2.2389 -1.4226
   27MOL   H161 4373   0.301   4.446   6.407 -1.7569  0.1504  0.2523
   27MOL   H162 4374   0.379   4.668   6.236  1.7881 -0.4929 -1.0866
   28MOL     C1 4375   6.928   0.732   4.802  0.4009  0.0799 -0.0290
   28MOL     C2 4376   6.929   0.673   4.663  0.3276 -0.8328 -0.0675
   28MOL     N3 4377   6.944   0.782   4.570 -0.0173  1.2750 -0.6205
   28MOL     H4 4378   6.929   0.649   4.874 -1.2600  0.2653  0.2340
   28MOL     H5 4379   6.836   0.785   4.826 -0.8720 -1.9219 -0.3080
   28MOL     H6 4380   6.832   0.627   4.644  1.7918 -4.7141  1.3472
   28MOL     H7 4381   6.925   0.752   4.475 -1.7397  1.9309 -0.4878
   28MOL     H8 4382   6.859   0.836   4.573 -2.0158 -1.7522 -0.9811
   28MOL     H9 4383   7.012   0.800   4.816  0.0553  0.3012  1.0421
   28MOL    C10 4384   7.037   0.571   4.629 -0.2625 -0.2131 -0.1705
   28MOL    C11 4385   7.024   0.444   4.716  0.2050 -0.7018 -0.1429
   28MOL    N12 4386   7.073   0.331   4.636  0.0314 -0.0452  0.0727
   28MOL    H13 4387   7.013   0.551   4.525 -0.9214  0.4729 -0.1550
   28MOL    H14 4388   7.141   0.604   4.638  0.7041 -3.7686  3.0160
   28MOL    H15 4389   6.923   0.434   4.755  0.5037 -2.8034  0.1418
   28MOL    H16 4390   7.167   0.347   4.605  0.5043 -1.7392  0.6169
   28MOL    H17 4391   7.022   0.337   4.549 -2.3590  1.3080  1.4949
   28MOL    C18 4392   7.120   0.464   4.840 -0.3208 -0.1581 -1.0416
   28MOL    C19 4393   7.077   0.381   4.959  0.4450 -0.0190  0.5251
   28MOL    N20 4394   7.109   0.243   4.928  0.8003 -0.2487  0.1645
   28MOL    H21 4395   7.226   0.450   4.819  0.0639 -0.3793  0.9431
   28MOL    H22 4396   7.121   0.565   4.881 -1.0153 -0.9955  1.1661
   28MOL    H23 4397   6.969   0.388   4.972  0.3241  0.5696 -0.6652
   28MOL    H24 4398   7.208   0.225   4.940  0.8991  0.7214  0.8493
   28MOL    H25 4399   7.085   0.220   4.833 -1.8206 -0.5487  0.8589
   28MOL    C26 4400   7.156   0.417   5.088 -1.5767  0.1170  0.0900
   28MOL    C27 4401   7.117   0.550   5.159  0.5720 -0.0036 -0.0120
   28MOL    N28 4402   6.979   0.553   5.204 -0.0844 -0.2938 -0.0384
   28MOL    H29 4403   7.153   0.337   5.163  3.4662 -2.2272 -1.9510
   28MOL    H30 4404   7.264   0.417   5.073 -1.6918 -0.2816 -0.7931
   28MOL    H31 4405   7.117   0.612   5.069  1.4090  0.0740  0.0434
   28MOL    H32 4406   6.933   0.643   5.196  0.6310  0.1393  0.7108
   28MOL    H33 4407   6.967   0.510   5.294 -0.7043 -1.1479 -0.5181
   28MOL    C34 4408   7.215   0.591   5.271 -0.4725 -0.3518  0.0092
   28MOL    C35 4409   7.194   0.728   5.351  0.1763  0.2082 -0.0694
   28MOL    N36 4410   7.241   0.716   5.488  0.4874 -0.7932 -0.1875
   28MOL    H37 4411   7.218   0.508   5.342  1.4971  0.8506  1.3712
   28MOL    H38 4412   0.042   0.585   5.237  0.5858  1.1296  2.8328
   28MOL    H39 4413   7.087   0.743   5.362  0.3554 -0.1719  2.3969
   28MOL    H40 4414   7.177   0.762   5.551  1.7349  3.6013 -1.9551
   28MOL    H41 4415   7.228   0.618   5.509 -0.4474 -0.7260 -0.4523
   28MOL    C42 4416   7.263   0.849   5.283 -0.2837 -0.5146 -0.1278
   28MOL    C43 4417   7.181   0.900   5.165  0.1886 -0.8001  0.2526
   28MOL    N44 4418   7.091   1.006   5.208  0.5132  0.4972  0.0653
   28MOL    H45 4419   0.006   0.935   5.348 -1.3797  1.7187 -2.6754
   28MOL    H46 4420   0.085   0.815   5.249 -0.0120 -0.6809  0.8149
   28MOL    H47 4421   7.123   0.813   5.133  1.0764 -0.5279 -2.1666
   28MOL    H48 4422   7.032   0.985   5.288 -1.8706  0.1091 -1.7356
   28MOL    H49 4423   7.019   0.998   5.138 -0.3170 -0.0072  0.9691
   28MOL    C50 4424   7.261   0.950   5.050 -0.4738  0.1327 -0.3572
   28MOL    C51 4425   0.058   0.834   4.969  0.0591 -0.4822 -0.8089
   28MOL    N52 4426   7.274   0.821   4.838  0.2612 -0.4733 -0.0724
   28MOL    H53 4427   7.204   1.001   4.972 -0.3032  2.5103  1.0244
   28MOL    H54 4428   0.061   1.013   5.097  0.0547 -0.1496 -0.8170
   28MOL    H55 4429   0.060   0.738   5.020 -1.0041  0.8480  1.8345
   28MOL    H56 4430   7.174   0.818   4.850  0.5666 -0.9988  2.8000
   28MOL    H57 4431   0.022   0.896   4.775 -0.9283 -0.7741 -0.8979
   28MOL    C58 4432   0.204   0.864   4.939 -0.4317 -0.2031  0.0370
   28MOL    C59 4433   0.303   0.862   5.055 -0.2678 -0.2456  0.5857
   28MOL    N60 4434   0.343   0.727   5.080  0.1883  0.1001 -0.6191
   28MOL    H61 4435   0.251   0.799   4.864 -0.3622  0.6993 -0.7121
   28MOL    H62 4436   0.202   0.960   4.888 -0.9919 -1.3264 -2.1215
   28MOL    H63 4437   0.261   0.908   5.145  0.1507 -0.7224  1.0254
   28MOL    H64 4438   0.381   0.689   4.995 -0.8849 -0.0302 -1.0568
   28MOL    H65 4439   0.260   0.671   5.093 -1.4274  2.4833 -0.1340
   28MOL    C66 4440   0.421   0.951   5.026 -0.7297  0.0417  0.3987
   28MOL    C67 4441   0.509   0.955   5.156 -0.2263  0.4773 -0.2987
   28MOL    N68 4442   0.588   0.833   5.162  0.3568 -0.2135  0.4650
   28MOL    H69 4443   0.476   0.923   4.936  0.1920  0.5772  0.7898
   28MOL    H70 4444   0.379   1.050   5.005 -0.8819 -0.2581 -0.7369
   28MOL    H71 4445   0.441   0.973   5.239  1.0114  1.7841  0.4478
   28MOL    H72 4446   0.613   0.823   5.065  1.6987 -1.9895  0.9662
   28MOL    H73 4447   0.509   0.771   5.171 -1.2613  1.8867  0.9009
   28MOL    C74 4448   0.603   1.075   5.144 -0.3407 -1.0446  0.1450
   28MOL    C75 4449   0.685   1.121   5.272  0.4694  0.6904  0.5871
   28MOL    N76 4450   0.774   1.012   5.293  0.0607 -0.2679 -0.1053
   28MOL    H77 4451   0.665   1.054   5.057 -1.3370 -0.2433 -0.7780
   28MOL    H78 4452   0.550   1.162   5.104  1.9711  0.4011  0.1105
   28MOL    H79 4453   0.609   1.120   5.350 -1.7250 -0.7149 -1.5243
   28MOL    H80 4454   0.724   0.942   5.241 -0.8429  0.2606  0.0360
   28MOL    H81 4455   0.761   0.989   5.390 -1.3898  0.4859 -0.1039
   28MOL    C82 4456   0.761   1.253   5.247 -0.0835  0.4537  0.4741
   28MOL    C83 4457   0.694   1.391   5.270 -0.0493  0.7351 -0.2046
   28MOL    N84 4458   0.593   1.416   5.173 -0.7632 -0.2381  0.0370
   28MOL    H85 4459   0.850   1.254   5.311  0.2533 -1.9431  0.1048
   28MOL    H86 4460   0.799   1.255   5.145 -1.9240 -1.7690 -0.2919
   28MOL    H87 4461   0.764   1.470   5.240  1.0966 -1.2412 -2.9219
   28MOL    H88 4462   0.509   1.367   5.198  0.1028 -1.9371 -0.3252
   28MOL    H89 4463   0.566   1.513   5.181 -0.2086 -0.0886  0.1776
   28MOL    C90 4464   0.641   1.413   5.415  0.1759  0.3036  0.2716
   28MOL    C91 4465   0.727   1.354   5.532 -0.6477  0.2234 -0.2640
   28MOL    N92 4466   0.859   1.413   5.541 -0.9865 -0.0694 -0.2785
   28MOL    H93 4467   0.630   1.521   5.417  2.0544  0.5738 -1.8383
   28MOL    H94 4468   0.541   1.369   5.416  1.1612 -2.0313 -0.0988
   28MOL    H95 4469   0.734   1.247   5.513 -0.5854 -0.0299  1.1378
   28MOL    H96 4470   0.921   1.372   5.610 -2.6751 -2.4018 -0.0760
   28MOL    H97 4471   0.840   1.504   5.580 -4.1426 -0.9839  0.4265
   28MOL    C98 4472   0.640   1.377   5.658  0.2041 -0.3785 -0.2852
   28MOL    C99 4473   0.691   1.332   5.795  0.3567 -0.8037  0.4026
   28MOL   N100 4474   0.594   1.374   5.889  0.1237 -0.3311  0.4080
   28MOL   H101 4475   0.624   1.483   5.674  0.6100 -0.6152  1.7800
   28MOL   H102 4476   0.540   1.335   5.643  1.0022 -2.0788 -1.0320
   28MOL   H103 4477   0.784   1.386   5.812 -0.7512  2.3523 -2.7744
   28MOL   H104 4478   0.630   1.328   5.971 -1.7827 -1.6350  0.5542
   28MOL   H105 4479   0.508   1.323   5.872  0.2731 -0.0129 -1.3680
   28MOL   C106 4480   0.719   1.184   5.799  0.2038 -0.2945  0.5010
   28MOL   C107 4481   0.811   1.147   5.921  0.8157 -0.2408 -0.5312
   28MOL   N108 4482   0.757   1.193   6.048 -0.4375  0.2870 -0.3586
   28MOL   H109 4483   0.631   1.121   5.810  0.8148 -1.0700  1.0341
   28MOL   H110 4484   0.763   1.139   5.710 -0.4965  1.9600 -1.0156
   28MOL   H111 4485   0.900   1.206   5.903  0.6886 -0.6163 -2.6131
   28MOL   H112 4486   0.787   1.290   6.047  1.7524 -0.3618 -0.3451
   28MOL   H113 4487   0.791   1.156   6.135 -0.4969 -1.5397 -1.0955
   28MOL   C114 4488   0.830   0.991   5.939 -0.5318  0.1101  0.4650
   28MOL   C115 4489   0.965   0.956   6.014  0.1509  0.5656  0.0311
   28MOL   N116 4490   0.944   0.838   6.098 -0.2126  0.3495 -0.1825
   28MOL   H117 4491   0.745   0.953   5.996  0.5282  0.0275  2.0238
   28MOL   H118 4492   0.811   0.937   5.847  0.8913  0.3213  0.0416
   28MOL   H119 4493   0.989   1.040   6.080  1.0296 -0.9590  1.6729
   28MOL   H120 4494   0.869   0.874   6.156  0.7953  0.9967  0.7416
   28MOL   H121 4495   1.016   0.831   6.169 -0.3615  1.8794  0.1258
   28MOL   C122 4496   1.084   0.949   5.921  0.3081  0.0360 -0.4050
   28MOL   C123 4497   1.220   0.943   5.986 -0.1060 -0.5626 -0.3322
   28MOL   N124 4498   1.305   0.847   5.919 -0.6289 -0.5195 -0.1588
   28MOL   H125 4499   1.064   0.862   5.859  1.8168  0.2588 -1.2399
   28MOL   H126 4500   1.061   1.019   5.840 -0.9743 -2.7883 -2.6005
   28MOL   H127 4501   1.206   0.901   6.086  1.7931  0.7512  0.5059
   28MOL   H128 4502   1.267   0.755   5.900 -0.8734 -0.1070 -1.7891
   28MOL   H129 4503   1.300   0.884   5.825  1.9776  0.0146 -0.1216
   28MOL   C130 4504   1.294   1.077   5.989 -0.3589 -0.3551  0.1976
   28MOL   C131 4505   1.234   1.193   6.084  0.6004 -0.3573  0.4053
   28MOL   N132 4506   1.222   1.144   6.221  0.1346  0.5458  0.5396
   28MOL   H133 4507   1.398   1.056   6.011 -0.7293 -1.1613  1.2004
   28MOL   H134 4508   1.301   1.103   5.883 -0.3655 -0.5265  0.1551
   28MOL   H135 4509   1.139   1.209   6.033  1.3838 -0.1767 -1.0413
   28MOL   H136 4510   1.190   1.209   6.292  0.2599 -0.8634  1.9244
   28MOL   H137 4511   1.314   1.128   6.258 -0.6184 -0.2157  2.1393
   28MOL   C138 4512   1.333   1.310   6.073  0.3078 -0.2160 -0.6558
   28MOL   C139 4513   1.260   1.449   6.068  0.0963 -1.0968  0.2101
   28MOL   N140 4514   1.351   1.566   6.086 -0.1126 -0.0153  0.0825
   28MOL   H141 4515   1.402   1.318   6.157 -0.1946  0.0848 -0.2676
   28MOL   H142 4516   1.399   1.292   5.988 -0.6682 -0.6566 -1.3311
   28MOL   H143 4517   1.187   1.440   6.148 -0.2634  0.0405  0.0140
   28MOL   H144 4518   1.414   1.580   6.008  0.0921 -3.0467 -0.3710
   28MOL   H145 4519   1.416   1.544   6.160  1.4719 -2.4087 -1.9319
   28MOL   C146 4520   1.187   1.465   5.932 -0.1247 -0.5565 -0.3772
   28MOL   C147 4521   1.072   1.574   5.923  0.0250  0.0765 -0.7730
   28MOL   N148 4522   1.035   1.594   5.785  0.1001  0.7940 -0.2863
   28MOL   H149 4523   1.257   1.475   5.850 -3.1388  0.8383 -2.8986
   28MOL   H150 4524   1.139   1.370   5.910 -2.8819  0.6443  0.2015
   28MOL   H151 4525   1.116   1.662   5.971 -0.1478  0.0351 -0.5392
   28MOL   H152 4526   0.943   1.636   5.783 -0.8269 -1.2270 -3.4725
   28MOL   H153 4527   1.103   1.662   5.754  3.0734 -1.9612 -0.0874
   28MOL   C154 4528   0.945   1.542   6.010 -0.2296 -0.6844  0.0932
   28MOL   C155 4529   0.835   1.641   6.003 -0.0920 -0.5129  0.1136
   28MOL   N156 4530   0.718   1.580   6.063 -0.1988 -0.6734 -0.0723
   28MOL   H157 4531   0.909   1.442   5.983  0.6186 -1.6368  2.3711
   28MOL   H158 4532   0.971   1.533   6.115 -1.1121  0.7443  0.4470
   28MOL   H159 4533   0.810   1.675   5.902  1.8398  1.6725  0.3204
   28MOL   H160 4534   0.663   1.657   6.099  1.5219 -0.4193  2.1283
   28MOL   H161 4535   0.664   1.528   5.996  0.1584 -1.5564  0.3234
   28MOL   H162 4536   0.869   1.727   6.061 -0.3177  0.2559 -0.8629
   29MOL     C1 4537   1.325   0.021   0.639 -0.5384 -0.0786 -0.0965
   29MOL     C2 4538   1.447   0.093   0.690 -0.5987 -0.4125 -0.8185
   29MOL     N3 4539   1.416   0.232   0.683  0.1713  0.7724 -0.7121
   29MOL     H4 4540   1.328   7.189   0.653  3.8089  0.1990  1.9512
   29MOL     H5 4541   1.288   0.030   0.537  0.8966 -3.0619 -0.9253
   29MOL     H6 4542   1.530   0.076   0.621  1.6482 -3.3896  2.4318
   29MOL     H7 4543   1.385   0.245   0.588 -2.9254 -0.2399  0.0943
   29MOL     H8 4544   1.495   0.293   0.695  0.7308  0.2256 -1.6147
   29MOL     H9 4545   1.237   0.060   0.691 -0.1361 -0.1467  0.6461
   29MOL    C10 4546   1.497   0.052   0.832  0.1285  0.0178  0.2223
   29MOL    C11 4547   1.555   7.180   0.821 -0.2010 -0.4246 -0.0505
   29MOL    N12 4548   1.691   7.195   0.787  0.0517  0.1392  0.4887
   29MOL    H13 4549   1.579   0.114   0.868 -0.5175  0.9110  0.1864
   29MOL    H14 4550   1.416   0.065   0.903  0.1811 -0.2864  0.3389
   29MOL    H15 4551   1.494   7.129   0.746 -0.3585  1.5067 -1.2468
   29MOL    H16 4552   1.735   7.233   0.870 -0.8995  2.0759  0.1465
   29MOL    H17 4553   1.694   0.002   0.730 -2.0442 -1.1301 -1.5392
   29MOL    C18 4554   1.548   7.111   0.963 -0.3255  0.1086 -0.1962
   29MOL    C19 4555   1.547   6.958   0.969  0.1699  0.8956 -0.1551
   29MOL    N20 4556   1.676   6.897   0.941 -0.1208  0.3045  0.0711
   29MOL    H21 4557   1.623   7.156   1.028  1.4232 -0.5234 -1.7021
   29MOL    H22 4558   1.447   7.129   0.999 -1.0361  0.7244 -2.4153
   29MOL    H23 4559   1.485   6.931   0.884  2.7312  0.3110 -1.8976
   29MOL    H24 4560   1.709   6.952   0.863 -0.9665  0.3058 -0.2814
   29MOL    H25 4561   1.742   6.929   1.011 -0.8750  0.2255  0.8331
   29MOL    C26 4562   1.495   6.902   1.104 -0.3783  0.4315  0.1585
   29MOL    C27 4563   1.340   6.909   1.108 -0.2899 -0.1871 -0.2587
   29MOL    N28 4564   1.278   6.793   1.049  0.2276  0.1695  0.4102
   29MOL    H29 4565   1.537   6.803   1.120 -2.1294  0.1269  3.2170
   29MOL    H30 4566   1.527   6.971   1.182  1.7509  0.5870 -0.8218
   29MOL    H31 4567   1.303   6.998   1.058  1.6375  1.4978  1.2201
   29MOL    H32 4568   1.188   6.791   1.095 -0.9640  0.3483 -1.8639
   29MOL    H33 4569   1.321   6.705   1.075 -0.3496  0.1338  1.2666
   29MOL    C34 4570   1.284   6.920   1.255 -0.0582 -0.1258  0.3041
   29MOL    C35 4571   1.137   6.972   1.284 -0.0101  0.1437 -0.2046
   29MOL    N36 4572   1.042   6.904   1.199 -0.0614 -0.5238  0.0790
   29MOL    H37 4573   1.318   6.826   1.298  1.5964  0.8065  1.1215
   29MOL    H38 4574   1.356   6.983   1.307  0.0716  1.6767 -1.9829
   29MOL    H39 4575   1.138   7.081   1.273 -1.2377  0.2417  0.4334
   29MOL    H40 4576   0.951   6.940   1.221 -0.5353 -2.0039  0.5968
   29MOL    H41 4577   1.061   6.944   1.108  0.4315 -0.6311  0.1337
   29MOL    C42 4578   1.091   6.932   1.421  0.4954 -1.0071 -0.2617
   29MOL    C43 4579   1.177   6.969   1.540 -0.5343 -0.2341 -0.1498
   29MOL    N44 4580   1.096   7.026   1.642  0.0666  0.6930  0.3064
   29MOL    H45 4581   0.998   6.987   1.433  1.2923  0.5074 -0.9244
   29MOL    H46 4582   1.076   6.824   1.431  0.4939 -0.7836  2.5864
   29MOL    H47 4583   1.237   7.050   1.500 -2.3442  0.9629 -0.4628
   29MOL    H48 4584   1.038   6.963   1.694 -1.5373  2.0281  0.1909
   29MOL    H49 4585   1.150   7.071   1.715  0.9791  0.9593 -0.5250
   29MOL    C50 4586   1.250   6.845   1.600 -0.1465  0.4604 -0.1143
   29MOL    C51 4587   1.377   6.879   1.690  0.1859 -0.4878  0.4903
   29MOL    N52 4588   1.400   6.759   1.771 -0.1424 -0.6996  1.3064
   29MOL    H53 4589   1.177   6.799   1.667  2.2539 -1.9336  0.9491
   29MOL    H54 4590   1.280   6.763   1.534 -0.9076 -0.6233  0.8625
   29MOL    H55 4591   1.353   6.968   1.748 -0.1476  0.7723 -1.5098
   29MOL    H56 4592   1.433   6.678   1.720  0.1299  0.4816 -0.4258
   29MOL    H57 4593   1.484   6.780   1.824  1.9559 -2.0333 -1.4301
   29MOL    C58 4594   1.507   6.899   1.597  0.4031  0.1965 -0.1692
   29MOL    C59 4595   1.546   7.049   1.566  0.4258  1.2107  0.1011
   29MOL    N60 4596   1.573   7.114   1.695 -0.2881 -0.4316 -0.4740
   29MOL    H61 4597   1.592   6.852   1.646  1.1683  1.3492 -0.3767
   29MOL    H62 4598   1.499   6.837   1.508  1.3916  0.6867 -0.5970
   29MOL    H63 4599   1.469   7.104   1.512  0.6156  1.6319  0.2562
   29MOL    H64 4600   1.507   7.070   1.758 -0.4104 -0.2729 -0.4926
   29MOL    H65 4601   1.541   7.210   1.695 -2.8265 -1.2159  1.7676
   29MOL    C66 4602   1.682   7.039   1.489 -0.5302 -0.0286  0.3983
   29MOL    C67 4603   1.740   7.182   1.452 -0.3547  0.5660 -0.3279
   29MOL    N68 4604   1.881   7.169   1.416  0.7603 -0.4979 -0.3826
   29MOL    H69 4605   1.752   6.971   1.539 -0.5475 -1.0551 -0.9416
   29MOL    H70 4606   1.666   6.988   1.394  0.1869 -0.9901  0.7831
   29MOL    H71 4607   1.731   7.236   1.546  1.7535 -0.1479  0.3223
   29MOL    H72 4608   1.928   7.258   1.431 -0.5891  0.2091 -0.2877
   29MOL    H73 4609   1.933   7.106   1.476 -0.4009 -1.3681 -0.2751
   29MOL    C74 4610   1.670   7.257   1.335 -0.0149 -0.0095  0.3974
   29MOL    C75 4611   1.719   0.129   1.294 -0.1963  0.4854 -0.5768
   29MOL    N76 4612   1.676   0.161   1.157 -0.0802  0.0087 -0.4913
   29MOL    H77 4613   1.679   7.180   1.257  0.4319  1.3190 -0.8834
   29MOL    H78 4614   1.563   7.263   1.356 -0.0450 -0.2836  0.3371
   29MOL    H79 4615   1.827   0.136   1.278  0.0604  0.8398  1.2067
   29MOL    H80 4616   1.577   0.178   1.170  0.1494 -0.5095  2.3661
   29MOL    H81 4617   1.710   0.254   1.139  0.0742  0.3807  1.5428
   29MOL    C82 4618   1.650   0.236   1.389 -0.5821  0.3245  0.6454
   29MOL    C83 4619   1.715   0.247   1.528  0.4245  0.2371 -0.4445
   29MOL    N84 4620   1.640   0.169   1.628 -0.2999  0.1320  0.4238
   29MOL    H85 4621   1.671   0.333   1.345  0.2134  0.0122  0.3199
   29MOL    H86 4622   1.545   0.208   1.385 -0.4144 -0.3050  0.5351
   29MOL    H87 4623   1.690   0.347   1.563  0.8635 -0.0856  0.8271
   29MOL    H88 4624   1.542   0.189   1.621 -0.0758  1.2620  0.5106
   29MOL    H89 4625   1.676   0.203   1.716 -0.2079 -0.1145  0.4842
   29MOL    C90 4626   1.859   0.228   1.542 -0.3142  0.0655  0.0873
   29MOL    C91 4627   1.942   0.341   1.476 -0.4800 -0.4545 -0.1743
   29MOL    N92 4628   1.924   0.473   1.527 -0.1285 -0.2776  0.2689
   29MOL    H93 4629   1.889   0.234   1.646  1.9036  0.4310 -0.5348
   29MOL    H94 4630   1.886   0.128   1.508 -0.5614 -0.5209  1.6200
   29MOL    H95 4631   1.906   0.359   1.374 -0.4674  1.4609  0.1390
   29MOL    H96 4632   1.829   0.502   1.512  0.3050  0.6790 -0.6846
   29MOL    H97 4633   1.927   0.460   1.627  0.3660  2.2930  0.6098
   29MOL    C98 4634   2.094   0.318   1.471 -0.5858 -0.3498 -0.0134
   29MOL    C99 4635   2.146   0.198   1.378 -0.8889  0.9083  0.3454
   29MOL   N100 4636   2.182   0.250   1.241 -0.4449 -0.4766 -0.4656
   29MOL   H101 4637   2.144   0.411   1.447 -0.2936 -0.1339  1.3773
   29MOL   H102 4638   2.115   0.300   1.576 -0.9208 -0.7988 -0.0204
   29MOL   H103 4639   2.062   0.129   1.373 -1.2186  1.2296  1.4534
   29MOL   H104 4640   2.217   0.164   1.202  0.0976 -0.5981  0.2669
   29MOL   H105 4641   2.264   0.306   1.262  0.6892 -2.3930  0.4033
   29MOL   C106 4642   2.272   0.123   1.427  0.2837 -0.3694 -0.2667
   29MOL   C107 4643   2.245   0.041   1.561 -0.0681 -0.5458 -0.3557
   29MOL   N108 4644   2.186   7.185   1.548  0.9799 -0.1555  0.1967
   29MOL   H109 4645   2.307   0.055   1.349  0.5799 -1.3086  0.6735
   29MOL   H110 4646   2.360   0.187   1.430  0.9117 -1.2752  0.6078
   29MOL   H111 4647   2.164   0.084   1.620 -0.6992 -0.7258 -1.0885
   29MOL   H112 4648   2.232   7.120   1.486 -0.0802  0.5037 -1.3217
   29MOL   H113 4649   2.181   7.139   1.638 -0.7823  0.1308  0.2616
   29MOL   C114 4650   2.360   0.038   1.655  0.8896  0.6844 -0.1308
   29MOL   C115 4651   2.385   0.175   1.722 -0.2150  0.5025 -0.0276
   29MOL   N116 4652   2.284   0.217   1.815 -0.5855 -0.4163 -0.0281
   29MOL   H117 4653   2.335   7.240   1.731  1.7948  0.5884  0.0895
   29MOL   H118 4654   2.447   0.004   1.599 -0.8441 -0.9471 -1.8704
   29MOL   H119 4655   2.382   0.257   1.650 -1.6742  0.9884  0.5559
   29MOL   H120 4656   2.206   0.264   1.772  1.5624  0.3818 -3.2791
   29MOL   H121 4657   2.315   0.295   1.870  0.5460  0.0535 -1.2949
   29MOL   C122 4658   2.531   0.179   1.789  0.1514 -0.0291 -0.2777
   29MOL   C123 4659   2.636   0.241   1.698  0.7921  1.3702  0.1941
   29MOL   N124 4660   2.731   0.311   1.786  0.5064 -0.2786 -0.5786
   29MOL   H125 4661   2.520   0.238   1.880 -1.4256 -0.3660 -0.2377
   29MOL   H126 4662   2.558   0.078   1.822  1.7045  0.1510 -0.9611
   29MOL   H127 4663   2.594   0.312   1.626 -1.6079  0.4231  0.6089
   29MOL   H128 4664   2.792   0.255   1.844 -0.2003 -0.7921 -0.3292
   29MOL   H129 4665   2.787   0.354   1.714  0.4618  0.3009 -0.2613
   29MOL   C130 4666   2.721   0.134   1.624 -0.2228 -0.0158  0.7097
   29MOL   C131 4667   2.702   0.131   1.475 -0.2099  0.4100 -0.1830
   29MOL   N132 4668   2.797   0.231   1.424 -0.0458 -0.0893 -0.4848
   29MOL   H133 4669   2.829   0.145   1.635  0.0376  0.5344 -2.0433
   29MOL   H134 4670   2.705   0.038   1.671 -1.8258  0.5200  1.3083
   29MOL   H135 4671   2.597   0.153   1.456  0.8746  2.3256 -4.5093
   29MOL   H136 4672   2.889   0.194   1.443 -0.0135  0.5983  0.8403
   29MOL   H137 4673   2.806   0.219   1.325  3.8108 -1.8694 -0.0021
   29MOL   C138 4674   2.743   7.263   1.422 -0.3577  0.1046  0.4492
   29MOL   C139 4675   2.646   7.150   1.454  0.5186 -0.2615  0.5499
   29MOL   N140 4676   2.520   7.153   1.384  0.0795  0.2186 -0.0565
   29MOL   H141 4677   2.763   7.266   1.315  1.4119 -0.1979  0.7489
   29MOL   H142 4678   2.835   7.229   1.471  0.0342  1.6321  0.8051
   29MOL   H143 4679   2.617   7.150   1.559  0.6389 -2.4528  0.6104
   29MOL   H144 4680   2.480   7.243   1.407  2.4223  1.1876  0.3406
   29MOL   H145 4681   2.533   7.150   1.284 -0.3831 -1.8796 -0.0601
   29MOL   C146 4682   2.709   7.014   1.416  0.1611 -0.3177 -0.3417
   29MOL   C147 4683   2.825   6.962   1.508  0.0513 -0.1235 -0.4399
   29MOL   N148 4684   2.781   6.970   1.644 -0.2277 -0.2679  0.8921
   29MOL   H149 4685   2.637   6.933   1.404  1.0843 -1.2748  0.3761
   29MOL   H150 4686   2.739   7.026   1.313 -2.3812 -0.8514 -1.1893
   29MOL   H151 4687   2.905   7.034   1.491  1.2159 -0.9923  1.1925
   29MOL   H152 4688   2.682   6.956   1.655 -0.5597  1.8333  0.8064
   29MOL   H153 4689   2.787   7.067   1.671 -1.9657  0.5727 -1.6547
   29MOL   C154 4690   2.862   6.815   1.480  0.1452  0.6873  0.0663
   29MOL   C155 4691   2.946   6.803   1.353  0.0604 -0.0309  0.0280
   29MOL   N156 4692   2.956   6.672   1.290 -0.5879 -0.1165 -0.0290
   29MOL   H157 4693   2.938   6.781   1.550 -1.2115 -0.5081  0.9687
   29MOL   H158 4694   2.775   6.749   1.473  0.1534  0.4958  1.7031
   29MOL   H159 4695   3.050   6.836   1.362  0.5599 -0.9099 -2.1405
   29MOL   H160 4696   3.018   6.617   1.347 -0.6451  1.2804  1.4524
   29MOL   H161 4697   2.868   6.623   1.290 -0.4603 -0.3817 -2.1997
   29MOL   H162 4698   2.909   6.871   1.277  1.3243 -0.5007 -1.0247
   30MOL     C1 4699   1.049   5.118   2.561 -0.0046  0.4380  0.0622
   30MOL     C2 4700   0.999   5.011   2.457 -0.6342  0.0430 -0.7189
   30MOL     N3 4701   0.897   4.939   2.527  0.4966 -0.3410 -0.0282
   30MOL     H4 4702   1.158   5.112   2.553 -0.1865 -0.0719 -2.4539
   30MOL     H5 4703   1.038   5.086   2.665  0.3661 -3.5411 -1.0453
   30MOL     H6 4704   1.083   4.942   2.451 -0.5369  0.1325 -0.4079
   30MOL     H7 4705   0.856   4.863   2.475 -1.0634  0.9816 -0.7904
   30MOL     H8 4706   0.813   4.992   2.545  1.5397  0.9580  1.1276
   30MOL     H9 4707   1.019   5.221   2.543  2.8645  1.3026 -0.1373
   30MOL    C10 4708   0.956   5.075   2.326 -0.1636 -0.1384  0.1750
   30MOL    C11 4709   1.078   5.103   2.231 -0.8312  0.6675 -0.1641
   30MOL    N12 4710   1.148   4.972   2.209  0.7402  0.5000  0.1149
   30MOL    H13 4711   0.897   4.996   2.279  1.6083 -0.8288 -0.9680
   30MOL    H14 4712   0.892   5.161   2.340  1.1670  0.9827 -0.5047
   30MOL    H15 4713   1.138   5.171   2.292  1.0842 -0.8510 -0.3096
   30MOL    H16 4714   1.197   4.988   2.122  0.5520 -0.1416 -0.1116
   30MOL    H17 4715   1.082   4.897   2.191 -0.7155  1.5203  1.0599
   30MOL    C18 4716   1.049   5.182   2.101  0.2741 -0.3144  0.0691
   30MOL    C19 4717   1.015   5.327   2.114  0.2089 -0.2625  0.2156
   30MOL    N20 4718   1.078   5.395   1.998  0.0680  0.0702 -0.0315
   30MOL    H21 4719   1.141   5.177   2.043  0.4959  3.4637  0.0106
   30MOL    H22 4720   0.972   5.135   2.040 -0.2367 -0.3613  0.7383
   30MOL    H23 4721   1.064   5.360   2.206  0.6795 -0.2381 -0.0443
   30MOL    H24 4722   1.177   5.385   2.009  0.2312 -1.5706 -2.3780
   30MOL    H25 4723   1.067   5.350   1.908 -1.4683  2.8801 -1.3284
   30MOL    C26 4724   0.860   5.352   2.109  0.5503  0.2965  0.1364
   30MOL    C27 4725   0.827   5.492   2.158  0.2389  0.1401 -0.4076
   30MOL    N28 4726   0.682   5.498   2.153  0.3062 -0.4552  0.9350
   30MOL    H29 4727   0.822   5.322   2.011 -1.8410 -0.8134  1.3427
   30MOL    H30 4728   0.798   5.278   2.159 -1.8633  1.0437 -1.6365
   30MOL    H31 4729   0.869   5.571   2.097  0.4651  0.7220  0.4845
   30MOL    H32 4730   0.653   5.595   2.158  0.3484 -0.5361  3.5185
   30MOL    H33 4731   0.653   5.453   2.067 -1.6865  1.8914  0.3258
   30MOL    C34 4732   0.875   5.531   2.305  0.8103 -0.0415  0.3929
   30MOL    C35 4733   1.019   5.570   2.338 -0.2264  0.3159  0.1262
   30MOL    N36 4734   1.081   5.645   2.232  0.5550  0.3511 -0.4842
   30MOL    H37 4735   0.803   5.607   2.337  1.6052  1.0597 -0.3766
   30MOL    H38 4736   0.851   5.449   2.373  1.0123 -1.2726 -0.9993
   30MOL    H39 4737   1.088   5.485   2.347 -1.2510 -0.4826  0.5514
   30MOL    H40 4738   1.181   5.635   2.246  0.3974  0.0999  0.5418
   30MOL    H41 4739   1.061   5.601   2.144 -2.5348  1.1900 -0.2635
   30MOL    C42 4740   1.024   5.644   2.468  0.1384 -0.7930  0.6866
   30MOL    C43 4741   1.000   5.566   2.601  0.1871  0.4717 -0.2900
   30MOL    N44 4742   1.082   5.625   2.703 -0.8921 -0.7155 -0.6898
   30MOL    H45 4743   1.130   5.668   2.478  0.6294 -1.3403 -2.6604
   30MOL    H46 4744   0.976   5.742   2.476 -0.7072 -1.1189 -0.3139
   30MOL    H47 4745   1.028   5.461   2.593  0.5245  0.4720  0.8069
   30MOL    H48 4746   1.029   5.703   2.739 -0.2457  0.0130 -1.2983
   30MOL    H49 4747   1.091   5.565   2.784 -1.4859  1.5006  1.0831
   30MOL    C50 4748   0.848   5.576   2.653  0.3325  0.0419  0.2565
   30MOL    C51 4749   0.810   5.500   2.788 -0.2426 -0.2465  0.2435
   30MOL    N52 4750   0.668   5.502   2.804  0.1414  0.3089  0.2697
   30MOL    H53 4751   0.797   5.672   2.648  1.8994  0.8755 -0.1298
   30MOL    H54 4752   0.808   5.513   2.573  0.6158 -1.4679  1.2706
   30MOL    H55 4753   0.856   5.536   2.880 -0.1740 -0.4412  0.2869
   30MOL    H56 4754   0.661   5.529   2.901 -0.7771 -0.1965  0.3453
   30MOL    H57 4755   0.631   5.409   2.815 -1.0744  0.8223  0.6053
   30MOL    C58 4756   0.851   5.347   2.793 -0.0483 -0.1621  0.3842
   30MOL    C59 4757   0.798   5.274   2.920  0.4324 -0.1237  0.5504
   30MOL    N60 4758   0.670   5.216   2.884 -0.4738 -0.5657 -0.9860
   30MOL    H61 4759   0.810   5.296   2.705  1.9815 -0.9379 -0.1411
   30MOL    H62 4760   0.959   5.331   2.781  0.3400 -0.1922  3.4665
   30MOL    H63 4761   0.794   5.349   2.999  1.5399 -1.3358  1.7629
   30MOL    H64 4762   0.635   5.165   2.964 -1.6305  2.3524  0.4313
   30MOL    H65 4763   0.684   5.135   2.826  3.2569 -1.1186  0.5692
   30MOL    C66 4764   0.885   5.154   2.964  0.2110  0.5654 -0.1465
   30MOL    C67 4765   1.024   5.197   3.025  0.0189 -0.1735 -0.2863
   30MOL    N68 4766   0.992   5.286   3.133  0.4212  0.2036 -0.1592
   30MOL    H69 4767   0.826   5.108   3.044 -2.3377  1.3472 -1.5398
   30MOL    H70 4768   0.886   5.086   2.879  2.9400  0.9898 -0.5005
   30MOL    H71 4769   1.087   5.255   2.958  2.1445  1.0746  2.6858
   30MOL    H72 4770   0.894   5.281   3.157  0.8684 -1.2579  1.4191
   30MOL    H73 4771   1.036   5.263   3.221  1.4908  0.4798 -0.6131
   30MOL    C74 4772   1.110   5.076   3.073 -0.6386  0.9783  0.7478
   30MOL    C75 4773   1.203   5.006   2.965  0.0790 -0.0969  0.3281
   30MOL    N76 4774   1.341   5.040   3.004  0.4573 -0.0725 -0.0810
   30MOL    H77 4775   1.177   5.117   3.149  2.0601  0.5888 -1.3160
   30MOL    H78 4776   1.055   5.008   3.138 -2.0334 -0.6111 -1.9912
   30MOL    H79 4777   1.187   5.049   2.866  0.1096 -0.6813  0.0691
   30MOL    H80 4778   1.381   5.044   2.912 -0.3847  0.7413 -0.4143
   30MOL    H81 4779   1.329   5.135   3.034  2.1134 -0.8321  3.2833
   30MOL    C82 4780   1.179   4.857   2.953  0.1789 -0.5951 -0.2956
   30MOL    C83 4781   1.065   4.830   2.862 -0.1011 -0.3364 -0.0652
   30MOL    N84 4782   1.122   4.825   2.732 -0.3409  0.1283  0.8556
   30MOL    H85 4783   1.266   4.800   2.920  1.0478  1.3793 -1.5042
   30MOL    H86 4784   1.150   4.823   3.052 -3.9565 -1.6909 -1.7771
   30MOL    H87 4785   0.990   4.908   2.869  0.4220  0.3330 -1.8104
   30MOL    H88 4786   1.081   4.902   2.682 -0.4199 -0.4708 -0.0163
   30MOL    H89 4787   1.219   4.851   2.742  0.8043 -2.4422 -2.3695
   30MOL    C90 4788   0.998   4.698   2.881 -0.3608  0.3549 -0.4456
   30MOL    C91 4789   0.917   4.693   3.013  0.1360 -0.1414  0.2217
   30MOL    N92 4790   0.820   4.802   3.009  0.3547  0.1013 -0.3196
   30MOL    H93 4791   0.925   4.685   2.801  0.9157 -2.0580 -1.2754
   30MOL    H94 4792   1.067   4.613   2.879  0.8043  1.2198  1.9423
   30MOL    H95 4793   0.977   4.713   3.102 -2.2450  1.2093  1.5514
   30MOL    H96 4794   0.859   4.895   3.017 -1.2312  1.0723 -3.4164
   30MOL    H97 4795   0.755   4.791   3.085  0.2914  0.0666 -0.3790
   30MOL    C98 4796   0.830   4.563   3.027 -0.0191  0.5200  0.3015
   30MOL    C99 4797   0.914   4.435   3.034  0.1308 -0.4715  0.2933
   30MOL   N100 4798   0.996   4.444   3.154  0.3402  0.1626  0.1308
   30MOL   H101 4799   0.760   4.558   3.110  0.5870 -0.5349  0.7746
   30MOL   H102 4800   0.762   4.556   2.943 -1.0405  0.1348  1.1508
   30MOL   H103 4801   0.981   4.434   2.948 -1.1301  0.0696 -0.7056
   30MOL   H104 4802   1.072   4.505   3.128 -0.4485  1.2555  0.3761
   30MOL   H105 4803   1.043   4.355   3.148 -0.2170 -0.0018 -2.4218
   30MOL   C106 4804   0.836   4.302   3.032 -0.1657  0.0493 -0.4585
   30MOL   C107 4805   0.754   4.278   2.909 -0.3773 -0.1308 -0.0281
   30MOL   N108 4806   0.842   4.249   2.793 -0.0330  0.2073  0.6263
   30MOL   H109 4807   0.915   4.230   3.053  0.8235  0.9111 -1.1177
   30MOL   H110 4808   0.775   4.317   3.121  1.7234  3.6909  0.3566
   30MOL   H111 4809   0.691   4.366   2.895  0.4748  0.4567 -0.2066
   30MOL   H112 4810   0.777   4.197   2.737  0.9404 -0.7506  0.3745
   30MOL   H113 4811   0.844   4.341   2.752 -0.5115 -1.2454 -2.7620
   30MOL   C114 4812   0.665   4.153   2.904 -0.1991 -0.0249 -0.0431
   30MOL   C115 4813   0.551   4.148   3.005  0.4123  0.4020  0.5234
   30MOL   N116 4814   0.456   4.256   2.982  0.0582  0.5965 -0.1751
   30MOL   H117 4815   0.623   4.143   2.804 -0.9418  0.5267  0.2097
   30MOL   H118 4816   0.720   4.059   2.916 -0.3960 -0.3161 -1.3953
   30MOL   H119 4817   0.603   4.160   3.100 -0.1068  2.0746  0.6180
   30MOL   H120 4818   0.485   4.349   3.011 -1.1376 -0.1197  3.5158
   30MOL   H121 4819   0.429   4.268   2.885  1.3772 -1.5283 -0.8264
   30MOL   C122 4820   0.471   4.015   3.005 -0.5616 -0.5189  1.1408
   30MOL   C123 4821   0.530   3.892   3.077  0.9642 -0.1307  0.0502
   30MOL   N124 4822   0.529   3.903   3.226 -0.3204 -0.5924 -0.5483
   30MOL   H125 4823   0.387   4.043   3.069 -0.2531 -1.2888  1.8998
   30MOL   H126 4824   0.431   3.986   2.908 -0.1316  0.7177  0.5893
   30MOL   H127 4825   0.635   3.883   3.049  1.3209 -0.2509  1.4245
   30MOL   H128 4826   0.585   3.832   3.270 -0.2595 -0.1758  0.0565
   30MOL   H129 4827   0.542   3.995   3.266 -0.1953  0.1027 -2.1324
   30MOL   C130 4828   0.465   3.760   3.016  0.3431 -0.2400 -0.0854
   30MOL   C131 4829   0.511   3.721   2.871 -0.3357  0.0774 -0.2028
   30MOL   N132 4830   0.652   3.696   2.861  0.6516 -0.9467 -0.0039
   30MOL   H133 4831   0.481   3.677   3.085 -4.6008  1.2483  3.1200
   30MOL   H134 4832   0.357   3.774   3.022  0.2390 -1.4129  1.1572
   30MOL   H135 4833   0.497   3.806   2.804  2.4316  0.0993 -0.8123
   30MOL   H136 4834   0.703   3.776   2.894 -1.6686  0.8291 -0.6140
   30MOL   H137 4835   0.675   3.635   2.939 -2.1998 -0.1672  1.5055
   30MOL   C138 4836   0.433   3.596   2.814  0.1316 -0.0519 -0.0004
   30MOL   C139 4837   0.271   3.611   2.802  0.2973 -0.3329 -0.6198
   30MOL   N140 4838   0.239   3.723   2.720  0.3123 -0.0888  0.1702
   30MOL   H141 4839   0.472   3.568   2.716 -0.9335 -2.6234  0.2584
   30MOL   H142 4840   0.469   3.509   2.870 -1.4556 -1.7391 -1.5242
   30MOL   H143 4841   0.227   3.630   2.900 -3.1578  0.3125 -2.2172
   30MOL   H144 4842   0.283   3.805   2.759 -3.0255  2.0856 -0.4717
   30MOL   H145 4843   0.141   3.739   2.736  0.3560  0.0680  0.2856
   30MOL   C146 4844   0.204   3.476   2.749 -0.0203  0.1384 -0.6372
   30MOL   C147 4845   0.207   3.360   2.844  0.4929  0.8938  0.5829
   30MOL   N148 4846   0.133   3.393   2.971 -0.7815 -0.5840  0.3892
   30MOL   H149 4847   0.107   3.494   2.703 -0.3958 -1.4764 -0.5144
   30MOL   H150 4848   0.267   3.450   2.664 -0.5805 -0.9750 -0.7312
   30MOL   H151 4849   0.310   3.346   2.876  0.2603 -0.4248  0.7798
   30MOL   H152 4850   0.145   3.313   3.031  1.6407  0.0598  0.8026
   30MOL   H153 4851   0.185   3.468   3.013 -0.8797  0.2802 -1.0149
   30MOL   C154 4852   0.154   3.232   2.778  0.4157  0.0780 -0.6707
   30MOL   C155 4853   0.242   3.170   2.674  0.0413 -0.1265 -0.6596
   30MOL   N156 4854   0.179   3.064   2.605 -0.0498  0.1433 -0.3111
   30MOL   H157 4855   0.122   3.168   2.859 -2.5667 -1.0066 -2.6160
   30MOL   H158 4856   0.057   3.256   2.735 -0.3121  0.1225  0.9901
   30MOL   H159 4857   0.330   3.120   2.715 -0.6623 -1.5872 -0.9022
   30MOL   H160 4858   0.096   3.099   2.559  0.3827  1.5397 -0.0793
   30MOL   H161 4859   0.234   3.043   2.523 -1.2544 -1.2847 -0.7681
   30MOL   H162 4860   0.267   3.251   2.606  2.6599 -0.9023 -0.6771
   31MOL     C1 4861   6.812   2.840   4.493  0.3363  0.0557  0.6438
   31MOL     C2 4862   6.798   2.738   4.617 -0.1727 -0.2478  0.5435
   31MOL     N3 4863   6.729   2.802   4.726  0.0391  0.3397 -0.0859
   31MOL     H4 4864   6.835   2.941   4.527  1.2728  0.3644 -0.8583
   31MOL     H5 4865   6.724   2.860   4.432  0.8519 -0.3176 -0.2417
   31MOL     H6 4866   6.900   2.730   4.654  0.7173 -1.4786 -2.0574
   31MOL     H7 4867   6.798   2.851   4.780  1.3961  0.6084 -2.0155
   31MOL     H8 4868   6.711   2.729   4.794  0.5661  0.1195 -0.1777
   31MOL     H9 4869   6.886   2.810   4.418  1.3096 -0.2574  1.7040
   31MOL    C10 4870   6.738   2.600   4.585  0.4448 -0.6000 -0.2524
   31MOL    C11 4871   6.813   2.527   4.474  0.3831 -0.2654  0.2574
   31MOL    N12 4872   6.818   2.396   4.529  0.1163  0.1612  0.4709
   31MOL    H13 4873   6.738   2.546   4.680  0.3476  0.7057  0.5050
   31MOL    H14 4874   6.632   2.607   4.557  0.1781  1.0829  1.0986
   31MOL    H15 4875   6.915   2.566   4.468  0.8637 -1.9426 -4.1093
   31MOL    H16 4876   6.879   2.341   4.470 -0.8452  0.4591 -0.8140
   31MOL    H17 4877   6.729   2.357   4.501  0.5600 -1.1285  0.8160
   31MOL    C18 4878   6.742   2.530   4.337 -0.3545  0.1982 -0.1853
   31MOL    C19 4879   6.830   2.483   4.217  0.0454 -0.6179 -0.6395
   31MOL    N20 4880   6.917   2.365   4.239  0.0574  0.4947 -0.5087
   31MOL    H21 4881   6.644   2.482   4.328  1.0532 -2.8302  0.1793
   31MOL    H22 4882   6.710   2.632   4.317 -0.6828  0.1279 -0.0307
   31MOL    H23 4883   6.892   2.569   4.193  0.1512 -1.8320 -5.0914
   31MOL    H24 4884   6.922   2.313   4.152 -3.0768  1.3672 -1.2886
   31MOL    H25 4885   7.010   2.394   4.265  0.6071 -2.6415  1.2429
   31MOL    C26 4886   6.735   2.442   4.099 -0.0539 -0.3409  0.1026
   31MOL    C27 4887   6.790   2.464   3.964 -0.5207  0.4183  0.5820
   31MOL    N28 4888   6.887   2.362   3.936 -1.3660  0.4623  0.0111
   31MOL    H29 4889   6.696   2.341   4.111 -0.5129 -0.0781  0.8191
   31MOL    H30 4890   6.651   2.511   4.105  0.3491  0.1696 -0.0471
   31MOL    H31 4891   6.829   2.566   3.963  5.1485 -1.5442  0.9877
   31MOL    H32 4892   6.886   2.342   3.837 -0.3768 -1.8007  0.4365
   31MOL    H33 4893   6.858   2.279   3.986  0.4900 -0.6210 -0.6297
   31MOL    C34 4894   6.683   2.455   3.859 -0.0117  0.2866  0.1297
   31MOL    C35 4895   6.601   2.584   3.830  0.3876 -0.0108  1.1067
   31MOL    N36 4896   6.690   2.680   3.770 -0.1540 -0.5484 -0.3502
   31MOL    H37 4897   6.727   2.429   3.763 -2.3254  0.3711 -0.9854
   31MOL    H38 4898   6.625   2.366   3.882  1.6239 -0.8128  0.0164
   31MOL    H39 4899   6.576   2.633   3.924 -0.3439 -1.5168  1.7225
   31MOL    H40 4900   6.630   2.718   3.698 -0.1209 -0.7398 -0.4779
   31MOL    H41 4901   6.721   2.760   3.823  0.7180  0.2196 -2.0061
   31MOL    C42 4902   6.480   2.564   3.730  0.2667  1.1069 -0.1135
   31MOL    C43 4903   6.375   2.676   3.736 -0.2526 -0.6484  0.0933
   31MOL    N44 4904   6.339   2.713   3.598  0.1345  0.4940  0.0034
   31MOL    H45 4905   6.513   2.545   3.628 -1.5726 -0.5320 -0.4306
   31MOL    H46 4906   6.438   2.467   3.758  1.4385  1.0539  1.5165
   31MOL    H47 4907   6.416   2.766   3.782 -1.1717  1.1440 -2.4681
   31MOL    H48 4908   6.278   2.642   3.559 -0.1349  0.0562  1.1971
   31MOL    H49 4909   6.282   2.795   3.604 -0.2015  0.1475  1.8200
   31MOL    C50 4910   6.246   2.632   3.807 -0.5947  0.0114  0.1691
   31MOL    C51 4911   6.251   2.638   3.964  0.5751  0.2163  0.1843
   31MOL    N52 4912   6.119   2.666   4.012 -0.0309  0.0287 -0.5299
   31MOL    H53 4913   6.164   2.694   3.773  1.4278  2.1863 -0.8891
   31MOL    H54 4914   6.222   2.534   3.765  0.9525  0.0000 -0.7484
   31MOL    H55 4915   6.317   2.723   3.981  0.5247  0.7768 -2.1878
   31MOL    H56 4916   6.138   2.756   4.053  1.3594 -1.4562  2.2169
   31MOL    H57 4917   6.112   2.596   4.085  2.9623 -1.0894 -1.2511
   31MOL    C58 4918   6.310   2.507   4.030 -0.3241 -0.1500  0.0633
   31MOL    C59 4919   6.322   2.523   4.189 -0.7450 -0.4296  0.3498
   31MOL    N60 4920   6.392   2.407   4.236 -0.9380  0.5435  0.3852
   31MOL    H61 4921   6.248   2.422   4.000 -1.2022  0.2354  0.7764
   31MOL    H62 4922   6.408   2.491   3.986 -0.7920  2.0102 -1.8648
   31MOL    H63 4923   6.218   2.526   4.221 -0.9259 -1.0466 -0.1582
   31MOL    H64 4924   6.375   2.402   4.335 -3.7474 -1.1364 -0.1073
   31MOL    H65 4925   6.488   2.439   4.238 -0.5242 -0.7114  2.4324
   31MOL    C66 4926   6.393   2.648   4.239 -0.1429  0.1865 -0.1015
   31MOL    C67 4927   6.381   2.675   4.394 -0.8153 -0.8155  0.2965
   31MOL    N68 4928   6.456   2.793   4.415 -0.0841 -0.2880  0.6436
   31MOL    H69 4929   6.493   2.651   4.198 -0.4199  0.7424 -0.7344
   31MOL    H70 4930   6.349   2.736   4.192 -1.6530 -0.2014  0.5429
   31MOL    H71 4931   6.431   2.602   4.458  0.1505 -1.5553 -1.2620
   31MOL    H72 4932   6.554   2.786   4.391 -0.2388  0.0672 -0.1263
   31MOL    H73 4933   6.451   2.838   4.505  2.5159 -1.6684  1.5420
   31MOL    C74 4934   6.244   2.702   4.453 -0.7052 -0.5898  0.2320
   31MOL    C75 4935   6.239   2.710   4.611  0.0292 -0.2890 -0.3468
   31MOL    N76 4936   6.124   2.786   4.644  0.3325  0.1458  0.0164
   31MOL    H77 4937   6.199   2.788   4.404  0.9321 -0.2992 -0.8240
   31MOL    H78 4938   6.172   2.624   4.428 -2.4317  0.6491  1.2823
   31MOL    H79 4939   6.325   2.772   4.639  0.5140 -0.7425 -0.8264
   31MOL    H80 4940   6.125   2.825   4.737  0.1531  1.4900 -0.5462
   31MOL    H81 4941   6.139   2.871   4.593 -0.1299 -0.4702 -1.1738
   31MOL    C82 4942   6.234   2.578   4.690 -0.6604  0.5683 -0.0526
   31MOL    C83 4943   6.378   2.521   4.726  0.5635 -0.0990 -0.2392
   31MOL    N84 4944   6.432   2.593   4.841 -0.9832 -0.4201  0.2560
   31MOL    H85 4945   6.168   2.598   4.774 -2.8950 -0.5582 -1.5013
   31MOL    H86 4946   6.168   2.509   4.637 -0.2011 -0.6250  0.9065
   31MOL    H87 4947   6.443   2.541   4.640  0.2962  1.3245 -0.1228
   31MOL    H88 4948   6.425   2.693   4.827 -1.1234 -0.4818 -0.1071
   31MOL    H89 4949   6.372   2.571   4.920 -0.0859 -0.8018  0.8357
   31MOL    C90 4950   6.372   2.367   4.758  0.4175 -0.1273 -0.4543
   31MOL    C91 4951   6.355   2.281   4.635 -0.2704  0.2526  0.7771
   31MOL    N92 4952   6.471   2.309   4.548 -0.0244  0.0941  0.2703
   31MOL    H93 4953   6.464   2.338   4.809  0.8315  0.6069 -0.7662
   31MOL    H94 4954   6.289   2.348   4.825  0.8796  0.5089  0.2974
   31MOL    H95 4955   6.260   2.296   4.584 -0.2689 -3.0030 -0.3457
   31MOL    H96 4956   6.546   2.304   4.616 -0.5695  2.4912  1.1294
   31MOL    H97 4957   6.500   2.235   4.487 -1.3225  0.9507 -1.4357
   31MOL    C98 4958   6.363   2.138   4.673  0.0140  0.3721 -0.6577
   31MOL    C99 4959   6.332   2.027   4.572 -0.0070  0.9073 -0.0593
   31MOL   N100 4960   6.399   1.917   4.630 -0.4209 -0.4655 -0.1965
   31MOL   H101 4961   6.459   2.117   4.721 -0.5354  0.1068  0.3291
   31MOL   H102 4962   6.290   2.131   4.753  1.4978  0.7949  0.7493
   31MOL   H103 4963   6.383   2.038   4.477 -2.1721  1.0394 -1.2420
   31MOL   H104 4964   6.499   1.906   4.635  0.0732  2.0771 -2.8214
   31MOL   H105 4965   6.365   1.832   4.587  1.4379 -1.4791  0.3380
   31MOL   C106 4966   6.186   1.987   4.560  0.5306  0.4008  0.3239
   31MOL   C107 4967   6.132   1.982   4.416 -0.7080 -0.1101 -0.2284
   31MOL   N108 4968   5.993   1.940   4.430  0.2782 -0.5256  0.3399
   31MOL   H109 4969   6.156   1.893   4.607 -0.5452  0.5628 -0.0119
   31MOL   H110 4970   6.126   2.044   4.632  0.0941  0.5488 -0.1551
   31MOL   H111 4971   6.184   1.901   4.364  2.4342 -0.2416  2.8643
   31MOL   H112 4972   5.968   1.928   4.334  0.2716 -0.9086  0.3906
   31MOL   H113 4973   5.982   1.846   4.464  0.8941 -0.5421  0.5067
   31MOL   C114 4974   6.152   2.125   4.350 -0.0200  0.1468  0.1057
   31MOL   C115 4975   6.124   2.147   4.197  0.6056 -0.1221  0.3051
   31MOL   N116 4976   6.113   2.291   4.181  0.2513  0.5400 -0.0473
   31MOL   H117 4977   6.083   2.193   4.400 -0.2721  0.7627 -1.0438
   31MOL   H118 4978   6.252   2.164   4.371  1.0753 -2.5824  0.1667
   31MOL   H119 4979   6.024   2.115   4.168  0.1401  0.9736  0.6821
   31MOL   H120 4980   6.185   2.331   4.240 -0.6319  1.0802  0.6789
   31MOL   H121 4981   6.146   2.305   4.087  2.5952  0.7797  0.7502
   31MOL   C122 4982   6.239   2.092   4.106 -0.4193  0.5575  0.0537
   31MOL   C123 4983   6.207   2.091   3.951 -1.2899  0.2443  0.1141
   31MOL   N124 4984   6.339   2.113   3.888  0.2867 -0.0004 -0.4717
   31MOL   H125 4985   6.332   2.144   4.126  0.8287  0.1806 -4.2373
   31MOL   H126 4986   6.239   1.984   4.125 -3.1706  0.8295  1.9326
   31MOL   H127 4987   6.148   2.176   3.916 -3.1321 -0.4294  1.4869
   31MOL   H128 4988   6.408   2.040   3.878 -0.9971 -1.1071 -1.6094
   31MOL   H129 4989   6.323   2.141   3.793  1.8845 -0.0011 -0.7465
   31MOL   C130 4990   6.135   1.976   3.890 -0.4607  0.3151  0.4218
   31MOL   C131 4991   5.992   1.958   3.926 -0.1283 -0.1855  0.1642
   31MOL   N132 4992   5.905   2.002   3.820 -0.0381  0.1530  0.4496
   31MOL   H133 4993   6.150   1.998   3.784 -1.6084 -2.1070 -0.2874
   31MOL   H134 4994   6.197   1.891   3.915 -2.1266 -0.6412  1.3580
   31MOL   H135 4995   5.959   2.007   4.017 -2.0885  1.6962 -1.5095
   31MOL   H136 4996   5.930   1.953   3.736  1.5191  0.8727  0.4736
   31MOL   H137 4997   5.815   1.961   3.839 -0.7387  1.0268 -0.9883
   31MOL   C138 4998   5.958   1.807   3.929 -0.0812  0.1127  0.5529
   31MOL   C139 4999   6.014   1.737   4.060 -0.1219  0.1437 -0.0354
   31MOL   N140 5000   5.901   1.712   4.147  0.3197 -0.1421 -0.4952
   31MOL   H141 5001   5.853   1.779   3.928  0.1955 -0.8862 -0.5722
   31MOL   H142 5002   6.006   1.758   3.844  0.3866  2.8724 -0.8365
   31MOL   H143 5003   6.078   1.804   4.117 -0.6453  0.4337  0.2157
   31MOL   H144 5004   5.855   1.799   4.168 -0.2911 -1.2771  3.2632
   31MOL   H145 5005   5.840   1.650   4.095  2.5414 -2.0812 -0.8784
   31MOL   C146 5006   6.092   1.610   4.019  0.1762 -0.1418  0.1941
   31MOL   C147 5007   6.222   1.627   3.940  0.0632 -0.1653 -0.1446
   31MOL   N148 5008   6.329   1.704   4.017  0.8514 -0.2630 -0.9566
   31MOL   H149 5009   6.116   1.548   4.105 -1.4539 -0.6236  0.3273
   31MOL   H150 5010   6.030   1.544   3.958 -1.0946  1.2806 -0.0872
   31MOL   H151 5011   6.204   1.691   3.853  0.3113  0.0101 -0.0681
   31MOL   H152 5012   6.358   1.658   4.102  0.6123 -2.9243 -2.2671
   31MOL   H153 5013   6.419   1.716   3.972  1.4816 -0.0951  0.3173
   31MOL   C154 5014   6.292   1.498   3.905  0.4769 -0.6222  0.1955
   31MOL   C155 5015   6.223   1.409   3.801 -0.2245  0.9484 -0.2288
   31MOL   N156 5016   6.285   1.277   3.780 -0.3387 -1.1480 -0.4391
   31MOL   H157 5017   6.398   1.507   3.885  0.4032 -2.9377 -1.4096
   31MOL   H158 5018   6.300   1.443   3.999 -1.1142 -0.0896  0.6620
   31MOL   H159 5019   6.219   1.468   3.710  1.2831 -1.1389 -1.7024
   31MOL   H160 5020   6.375   1.277   3.734 -0.5987 -1.3148 -0.9539
   31MOL   H161 5021   6.230   1.232   3.708 -3.0894 -0.0162  0.8920
   31MOL   H162 5022   6.119   1.397   3.832  0.0979  0.4414  0.6673
   32MOL     C1 5023   2.468   5.425   6.275 -0.0568 -0.0546  0.2925
   32MOL     C2 5024   2.540   5.531   6.190 -0.2754 -0.0546 -0.4062
   32MOL     N3 5025   2.667   5.470   6.149 -0.2913  0.6784 -0.0380
   32MOL     H4 5026   2.373   5.450   6.320  0.5970  0.2657  1.4928
   32MOL     H5 5027   2.528   5.396   6.361 -0.0445 -1.3194 -0.1264
   32MOL     H6 5028   2.549   5.610   6.265  1.1532  0.7561 -1.4159
   32MOL     H7 5029   2.732   5.541   6.120  2.0308 -2.1820 -2.1752
   32MOL     H8 5030   2.713   5.445   6.235  0.2452 -0.4007 -0.6242
   32MOL     H9 5031   2.453   5.341   6.206  0.7740 -1.2155  1.5095
   32MOL    C10 5032   2.463   5.575   6.067 -0.1068  0.5537 -0.1351
   32MOL    C11 5033   2.324   5.627   6.099  0.1744 -0.2176  0.6767
   32MOL    N12 5034   2.333   5.775   6.097  0.0095 -0.1378  0.1464
   32MOL    H13 5035   2.524   5.648   6.014  1.8221 -1.4766 -0.7605
   32MOL    H14 5036   2.461   5.482   6.009  2.6148 -1.2279  2.5086
   32MOL    H15 5037   2.278   5.595   6.193 -0.2057 -1.6725  0.0133
   32MOL    H16 5038   2.351   5.804   6.002  0.8399  0.4900  0.4877
   32MOL    H17 5039   2.243   5.815   6.119  0.0148 -0.1533  0.1951
   32MOL    C18 5040   2.218   5.583   5.997  0.4918  0.1265 -0.0647
   32MOL    C19 5041   2.183   5.433   6.004 -0.1728  0.0780 -0.0462
   32MOL    N20 5042   2.066   5.428   6.101  0.1316  0.1736  0.4468
   32MOL    H21 5043   2.131   5.646   5.975  0.4675 -0.0020 -0.3402
   32MOL    H22 5044   2.272   5.612   5.907  0.1608  0.6295 -0.1091
   32MOL    H23 5045   2.256   5.370   6.054 -1.4231 -0.5902  0.9495
   32MOL    H24 5046   2.101   5.466   6.188  2.9961 -0.2981 -0.4476
   32MOL    H25 5047   2.015   5.510   6.070  0.9735 -0.0365 -1.5388
   32MOL    C26 5048   2.149   5.369   5.870  0.0888  0.2571  0.9450
   32MOL    C27 5049   2.255   5.339   5.771  0.3352 -0.2470  0.0547
   32MOL    N28 5050   2.370   5.278   5.840  0.1712 -0.0955 -0.4683
   32MOL    H29 5051   2.113   5.269   5.893  2.9676 -0.6560  1.6245
   32MOL    H30 5052   2.062   5.417   5.824 -0.0207 -2.0783 -1.4102
   32MOL    H31 5053   2.296   5.427   5.722  1.4157 -0.7163  0.1226
   32MOL    H32 5054   2.344   5.198   5.896  1.7254 -0.2860  0.0093
   32MOL    H33 5055   2.393   5.353   5.903 -0.9699  0.1856 -0.3838
   32MOL    C34 5056   2.198   5.236   5.669 -0.1923  0.3754  0.0657
   32MOL    C35 5057   2.230   5.266   5.521  0.2892  0.6092 -0.0391
   32MOL    N36 5058   2.185   5.148   5.442  0.2307  0.3290 -0.4357
   32MOL    H37 5059   2.228   5.134   5.693 -0.2574  0.2435 -0.4018
   32MOL    H38 5060   2.089   5.231   5.679  0.0475 -2.2242  1.9058
   32MOL    H39 5061   2.337   5.273   5.505  0.4074  1.3471  1.0268
   32MOL    H40 5062   2.090   5.122   5.463 -0.0109  0.0425 -1.8331
   32MOL    H41 5063   2.240   5.072   5.478 -0.3150  0.3352  0.4234
   32MOL    C42 5064   2.149   5.391   5.468 -0.9840 -0.1894  0.1248
   32MOL    C43 5065   2.240   5.515   5.453  0.0627 -0.2120 -0.0166
   32MOL    N44 5066   2.297   5.511   5.328 -0.4957 -0.2005  1.3796
   32MOL    H45 5067   2.101   5.363   5.374 -1.8666  1.8077 -0.0321
   32MOL    H46 5068   2.071   5.418   5.540 -1.2425 -0.8396  0.0960
   32MOL    H47 5069   2.311   5.518   5.536  2.1391  0.1631 -1.7431
   32MOL    H48 5070   2.277   5.418   5.293 -0.7965  0.6437 -0.7692
   32MOL    H49 5071   2.397   5.510   5.338 -0.5191 -0.7987  1.5738
   32MOL    C50 5072   2.164   5.653   5.461  0.8775  0.4354  0.0865
   32MOL    C51 5073   2.258   5.771   5.494  0.0003 -0.5460 -1.1291
   32MOL    N52 5074   2.196   5.899   5.471  0.1473  0.3303  0.3817
   32MOL    H53 5075   2.114   5.675   5.366  0.4346 -0.2435  0.1576
   32MOL    H54 5076   2.078   5.650   5.527  1.4465 -0.5780  0.7961
   32MOL    H55 5077   2.350   5.762   5.437  0.2775 -0.0021 -0.7777
   32MOL    H56 5078   2.248   5.938   5.393 -1.4302  1.4372 -0.1280
   32MOL    H57 5079   2.220   5.971   5.537  0.5239  0.8748 -0.3401
   32MOL    C58 5080   2.287   5.762   5.647  0.0953  0.2094 -0.2299
   32MOL    C59 5081   2.417   5.832   5.687 -0.5763 -0.1255 -0.3687
   32MOL    N60 5082   2.377   5.882   5.816  0.1009  0.3345  0.3665
   32MOL    H61 5083   2.192   5.799   5.687  0.0494 -1.8857  1.7209
   32MOL    H62 5084   2.290   5.659   5.683  0.3113  0.7038  1.2137
   32MOL    H63 5085   2.431   5.922   5.628 -0.1610  1.4128  2.0206
   32MOL    H64 5086   2.447   5.943   5.857  0.1819  1.3425 -1.2288
   32MOL    H65 5087   2.306   5.948   5.787 -0.4116 -0.7459 -0.9074
   32MOL    C66 5088   2.538   5.745   5.702  0.0093  0.0363 -0.4879
   32MOL    C67 5089   2.593   5.694   5.569 -0.9870 -0.2714 -0.0149
   32MOL    N68 5090   2.632   5.804   5.479  0.3238 -0.1083  0.5006
   32MOL    H69 5091   2.620   5.796   5.753  0.8236  0.0366 -1.7848
   32MOL    H70 5092   2.513   5.666   5.772  2.0667 -2.3546 -2.3756
   32MOL    H71 5093   2.502   5.651   5.527 -0.6538 -1.0420  0.0491
   32MOL    H72 5094   2.724   5.777   5.446  1.6413  2.6003  1.7925
   32MOL    H73 5095   2.570   5.800   5.400 -1.0509  0.3596  1.5287
   32MOL    C74 5096   2.702   5.589   5.576 -0.9420  0.1750 -0.5224
   32MOL    C75 5097   2.685   5.463   5.670  0.1920  0.4336  0.2241
   32MOL    N76 5098   2.552   5.402   5.638  0.6299 -0.2109  0.1561
   32MOL    H77 5099   2.725   5.559   5.474 -2.3478 -0.3419 -0.6942
   32MOL    H78 5100   2.787   5.645   5.616  0.0833 -0.8461 -1.2622
   32MOL    H79 5101   2.678   5.506   5.770  1.8373  0.7325  0.2168
   32MOL    H80 5102   2.488   5.480   5.641  1.0375  0.0679  2.5962
   32MOL    H81 5103   2.524   5.333   5.706 -2.1736 -2.5135 -3.1949
   32MOL    C82 5104   2.785   5.345   5.658  0.3832 -0.0825  0.6816
   32MOL    C83 5105   2.931   5.374   5.706  0.1748 -0.2493 -0.0486
   32MOL    N84 5106   2.930   5.386   5.849 -0.3900 -0.2752 -0.0452
   32MOL    H85 5107   2.740   5.260   5.710 -2.7507  1.3566  0.4405
   32MOL    H86 5108   2.793   5.317   5.553  1.3687  3.1978 -0.1654
   32MOL    H87 5109   2.950   5.467   5.652 -1.6088  0.6988  0.9158
   32MOL    H88 5110   2.879   5.469   5.878 -1.7451 -0.2877 -2.3310
   32MOL    H89 5111   2.880   5.305   5.882  0.6584 -1.1929 -0.6924
   32MOL    C90 5112   3.041   5.271   5.677  0.4237  0.2123 -0.0664
   32MOL    C91 5113   3.063   5.239   5.527  0.0749  0.0565 -0.0159
   32MOL    N92 5114   3.140   5.339   5.462 -0.0841  0.0296  0.3017
   32MOL    H93 5115   3.131   5.297   5.732  1.1098 -0.4685 -0.8385
   32MOL    H94 5116   3.003   5.184   5.730 -0.3644  0.2005 -0.6462
   32MOL    H95 5117   2.973   5.226   5.467 -0.0570  0.1403  0.1652
   32MOL    H96 5118   3.106   5.429   5.492 -2.8126 -0.5677 -0.9160
   32MOL    H97 5119   3.229   5.344   5.511 -0.0306 -1.3592  0.3445
   32MOL    C98 5120   3.142   5.101   5.497 -0.2233  0.5930  0.6678
   32MOL    C99 5121   3.139   5.049   5.348  0.1904 -0.2231 -0.0493
   32MOL   N100 5122   3.257   4.964   5.341  0.3767 -0.0257 -0.0755
   32MOL   H101 5123   3.238   5.110   5.546 -0.1401  1.0897  0.4220
   32MOL   H102 5124   3.100   5.020   5.556  1.4202 -2.6443 -2.4120
   32MOL   H103 5125   3.140   5.133   5.279 -0.1896 -0.4077 -0.2825
   32MOL   H104 5126   3.231   4.871   5.371  2.2930 -0.2910  0.8231
   32MOL   H105 5127   3.274   4.952   5.242  0.0677  0.8606 -0.2415
   32MOL   C106 5128   3.012   4.974   5.299 -0.2027  0.0285  0.2798
   32MOL   C107 5129   2.964   4.850   5.374  0.0880  0.7679 -0.0457
   32MOL   N108 5130   2.820   4.837   5.345  0.1522  0.5220  0.5598
   32MOL   H109 5131   2.925   5.039   5.304 -0.9052 -0.8454 -0.3672
   32MOL   H110 5132   3.018   4.958   5.191 -1.4546 -3.0310  0.5949
   32MOL   H111 5133   2.962   4.875   5.480  1.4997  0.9062 -0.0402
   32MOL   H112 5134   2.795   4.751   5.392  1.1900  0.4304  0.9547
   32MOL   H113 5135   2.797   4.828   5.247 -0.1949  2.2046  0.4666
   32MOL   C114 5136   3.035   4.714   5.355 -0.3090  0.0063  0.1057
   32MOL   C115 5137   3.059   4.637   5.488 -0.4909  0.0332  0.0915
   32MOL   N116 5138   3.087   4.493   5.462  0.1487 -0.4867  0.4150
   32MOL   H117 5139   2.980   4.650   5.287  0.4663 -3.3483  2.5496
   32MOL   H118 5140   3.128   4.730   5.301  0.3686 -0.0016  1.2532
   32MOL   H119 5141   2.975   4.644   5.557 -0.1002 -1.6872  0.7607
   32MOL   H120 5142   3.187   4.485   5.475  0.1900  0.2653  0.5898
   32MOL   H121 5143   3.049   4.438   5.537 -0.0814 -1.9340 -0.7361
   32MOL   C122 5144   3.177   4.699   5.574 -0.0519 -0.6196 -0.1159
   32MOL   C123 5145   3.185   4.675   5.727 -0.6875  0.2473  0.1240
   32MOL   N124 5146   3.210   4.531   5.754 -0.3737 -0.5233  0.7262
   32MOL   H125 5147   3.267   4.676   5.518 -0.8538 -1.0665 -1.2534
   32MOL   H126 5148   3.176   4.808   5.565  0.8736 -0.4952  1.3018
   32MOL   H127 5149   3.090   4.702   5.775  0.1541  0.3976  1.7464
   32MOL   H128 5150   3.199   4.517   5.854 -0.2677 -0.9430  0.6767
   32MOL   H129 5151   3.134   4.470   5.727 -0.5115 -0.7015  1.4911
   32MOL   C130 5152   3.288   4.749   5.805 -0.4498 -0.6670  0.5187
   32MOL   C131 5153   3.267   4.905   5.812 -0.4445 -0.1980 -0.3212
   32MOL   N132 5154   3.146   4.934   5.885  0.1180  0.0987 -0.6368
   32MOL   H133 5155   3.296   4.703   5.904  1.8106 -1.3222  0.0700
   32MOL   H134 5156   3.382   4.730   5.752 -0.6835  1.0297 -0.5210
   32MOL   H135 5157   3.258   4.954   5.715  2.1871  2.1520  0.5320
   32MOL   H136 5158   3.067   4.901   5.831  0.9621 -1.0761 -1.1578
   32MOL   H137 5159   3.126   5.033   5.884  1.7222  0.4713  1.2054
   32MOL   C138 5160   3.382   4.976   5.880 -0.0963  0.2783  1.0633
   32MOL   C139 5161   3.484   5.045   5.779 -0.2738 -0.2188  0.4016
   32MOL   N140 5162   3.570   5.142   5.847 -0.2651 -0.8628  0.0624
   32MOL   H141 5163   3.346   5.034   5.966 -2.4879  0.0704  0.2303
   32MOL   H142 5164   3.446   4.908   5.937  1.0910 -0.3691 -1.0260
   32MOL   H143 5165   3.424   5.099   5.705 -0.5496 -0.2879  0.5782
   32MOL   H144 5166   3.517   5.226   5.866 -0.5058 -1.4578  2.1592
   32MOL   H145 5167   3.640   5.175   5.782 -0.9337 -0.2658 -0.3737
   32MOL   C146 5168   3.575   4.947   5.702  0.2682  0.2151 -0.3969
   32MOL   C147 5169   3.518   4.899   5.563 -0.5534  0.2244 -0.5853
   32MOL   N148 5170   3.521   5.008   5.471  0.2371 -0.0938  0.3378
   32MOL   H149 5171   3.670   4.993   5.678  0.1623  0.8830  0.4455
   32MOL   H150 5172   3.632   4.876   5.761 -2.0211 -0.7270  0.7441
   32MOL   H151 5173   3.422   4.847   5.563 -0.2750 -0.2804 -0.5197
   32MOL   H152 5174   3.456   5.081   5.494 -0.2867 -0.1405 -0.9636
   32MOL   H153 5175   3.479   4.965   5.390 -1.1294  1.2358  0.3190
   32MOL   C154 5176   3.611   4.794   5.506 -0.1316  0.1780  0.2538
   32MOL   C155 5177   3.581   4.659   5.573  0.3115  0.6376  0.0939
   32MOL   N156 5178   3.671   4.555   5.522  0.1430  0.3399 -0.0157
   32MOL   H157 5179   3.611   4.789   5.397 -2.3074  2.9365  0.0842
   32MOL   H158 5180   3.715   4.825   5.517 -0.0635  0.3515 -0.8070
   32MOL   H159 5181   3.487   4.616   5.540  1.1532 -1.0029 -0.1831
   32MOL   H160 5182   3.688   4.478   5.585  0.7378 -0.0078 -0.5975
   32MOL   H161 5183   3.623   4.508   5.447 -0.0483 -0.3720  0.5413
   32MOL   H162 5184   3.575   4.656   5.682  0.4860 -1.1105  0.0677
   33MOL     C1 5185   3.129   4.723   1.557  0.0250 -0.1251 -0.4625
   33MOL     C2 5186   3.042   4.752   1.680 -0.3605 -0.2452 -0.4629
   33MOL     N3 5187   3.121   4.807   1.783 -0.1369 -0.5408 -0.1712
   33MOL     H4 5188   3.085   4.647   1.493 -0.9050  0.0117  0.0080
   33MOL     H5 5189   3.208   4.672   1.613 -0.2949  2.1672  2.1923
   33MOL     H6 5190   3.002   4.662   1.726  2.3373 -1.1538  0.1324
   33MOL     H7 5191   3.204   4.750   1.775  0.6060  0.5539 -0.2934
   33MOL     H8 5192   3.150   4.899   1.756 -3.5299  1.5446  2.7280
   33MOL     H9 5193   3.172   4.805   1.499  2.4108 -1.1744 -0.2624
   33MOL    C10 5194   2.921   4.851   1.660 -0.5444 -0.1782  0.7124
   33MOL    C11 5195   2.800   4.791   1.592 -0.3484  0.0441 -0.3963
   33MOL    N12 5196   2.709   4.737   1.697 -0.0051 -0.6079 -0.5353
   33MOL    H13 5197   2.884   4.889   1.756 -1.4332  1.8885 -0.4164
   33MOL    H14 5198   2.955   4.940   1.607  1.7164 -1.8696 -0.7240
   33MOL    H15 5199   2.841   4.709   1.534  0.1339  1.1733 -1.6790
   33MOL    H16 5200   2.671   4.821   1.738  1.4312 -0.2478  0.1182
   33MOL    H17 5201   2.762   4.692   1.771  0.4202 -0.0437 -0.4871
   33MOL    C18 5202   2.727   4.885   1.498  0.7603 -0.3546 -0.7464
   33MOL    C19 5203   2.628   4.815   1.406 -0.0553 -0.8726 -0.0865
   33MOL    N20 5204   2.516   4.903   1.375  0.6795 -0.4740 -1.1346
   33MOL    H21 5205   2.672   4.951   1.565 -0.1667  1.4927 -3.2082
   33MOL    H22 5206   2.798   4.948   1.444  1.8323 -0.1711  0.8605
   33MOL    H23 5207   2.583   4.727   1.453 -0.3942 -0.6226  0.0615
   33MOL    H24 5208   2.543   4.984   1.321  3.5902 -0.1119  0.7185
   33MOL    H25 5209   2.439   4.854   1.334  0.1729 -0.7887  0.1702
   33MOL    C26 5210   2.701   4.770   1.279 -0.6036 -0.3144  0.3809
   33MOL    C27 5211   2.621   4.658   1.199 -0.1222 -1.2320 -0.5350
   33MOL    N28 5212   2.554   4.728   1.088  0.5540  0.3230  0.0795
   33MOL    H29 5213   2.731   4.847   1.208 -0.1266 -0.4325  0.4507
   33MOL    H30 5214   2.797   4.732   1.314 -2.2310 -3.5192  1.5420
   33MOL    H31 5215   2.553   4.611   1.270  1.0903 -0.8677  0.9030
   33MOL    H32 5216   2.541   4.824   1.117  2.2739  1.1032 -1.5382
   33MOL    H33 5217   2.460   4.692   1.089  0.1834  1.2900  0.8385
   33MOL    C34 5218   2.700   4.532   1.147 -0.3049  0.0974  0.3898
   33MOL    C35 5219   2.619   4.400   1.126  0.1427 -0.0859 -0.1065
   33MOL    N36 5220   2.548   4.422   1.009  0.1194  0.0937  0.4113
   33MOL    H37 5221   2.741   4.562   1.050 -3.3612 -2.0954 -1.6572
   33MOL    H38 5222   2.788   4.507   1.207  0.3955 -2.0874 -1.4934
   33MOL    H39 5223   2.547   4.392   1.208  1.6423 -1.0209  1.1394
   33MOL    H40 5224   2.581   4.512   0.977 -2.7769 -0.3418 -4.2360
   33MOL    H41 5225   2.589   4.363   0.939  0.5954 -0.5514  1.2208
   33MOL    C42 5226   2.699   4.268   1.104  0.2416  0.5803 -0.0783
   33MOL    C43 5227   2.756   4.223   1.237  0.1801  0.4678 -1.1672
   33MOL    N44 5228   2.651   4.198   1.337 -0.0514  0.0937 -0.5472
   33MOL    H45 5229   2.629   4.191   1.072  1.7319  0.6889 -3.8148
   33MOL    H46 5230   2.772   4.282   1.025 -0.6859  0.4951 -0.9561
   33MOL    H47 5231   2.833   4.289   1.278 -0.6697  1.3790 -1.0083
   33MOL    H48 5232   2.633   4.286   1.384 -1.6320 -1.1992  1.3188
   33MOL    H49 5233   2.684   4.133   1.407 -0.8436 -2.4554 -2.4716
   33MOL    C50 5234   2.824   4.084   1.205  0.3095  0.3583  0.6032
   33MOL    C51 5235   2.919   4.021   1.313  0.2169  0.1309  0.4658
   33MOL    N52 5236   2.971   3.894   1.266 -0.3001 -0.4438 -0.6814
   33MOL    H53 5237   2.755   4.010   1.164  0.5456  0.0234  0.8026
   33MOL    H54 5238   2.881   4.119   1.119 -0.0902  0.0923  0.2239
   33MOL    H55 5239   2.852   4.013   1.399 -2.2903 -0.0676 -1.4427
   33MOL    H56 5240   2.943   3.818   1.327  0.0950 -0.4150 -0.4635
   33MOL    H57 5241   2.942   3.871   1.172  0.6214 -0.1601 -1.0405
   33MOL    C58 5242   3.044   4.104   1.352 -0.1071 -0.0004  0.5834
   33MOL    C59 5243   3.097   4.096   1.500  0.4604  0.4854  0.8549
   33MOL    N60 5244   3.205   3.991   1.488 -0.1251 -0.6997 -0.1711
   33MOL    H61 5245   3.127   4.089   1.282  0.7015  4.8456  0.3301
   33MOL    H62 5246   3.016   4.208   1.338 -0.5532 -0.0743  0.9627
   33MOL    H63 5247   3.021   4.048   1.562  0.1167 -1.2392 -0.8663
   33MOL    H64 5248   3.203   3.935   1.571 -1.4426 -1.2804 -0.5783
   33MOL    H65 5249   3.187   3.922   1.417 -0.6359  0.1693 -0.9065
   33MOL    C66 5250   3.152   4.223   1.561 -0.2111  0.2976 -0.7852
   33MOL    C67 5251   3.044   4.293   1.652  0.3517  0.2993 -0.8064
   33MOL    N68 5252   3.115   4.406   1.711 -0.0346 -0.0648  0.4111
   33MOL    H69 5253   3.235   4.202   1.629 -0.9170 -0.3327 -0.1081
   33MOL    H70 5254   3.186   4.292   1.483 -1.5111 -0.1318 -1.7348
   33MOL    H71 5255   3.006   4.237   1.737  1.1269 -0.5890 -1.0405
   33MOL    H72 5256   3.058   4.465   1.769  2.6806 -0.2695  3.3864
   33MOL    H73 5257   3.187   4.381   1.776 -2.0771 -3.1774  1.6133
   33MOL    C74 5258   2.918   4.345   1.570 -0.3731  0.0724  0.5739
   33MOL    C75 5259   2.794   4.334   1.660  0.1042 -0.2754  0.6437
   33MOL    N76 5260   2.689   4.408   1.576  0.2828  0.1520 -0.2395
   33MOL    H77 5261   2.945   4.446   1.540 -1.7862  0.3946  0.3735
   33MOL    H78 5262   2.895   4.284   1.483  0.9208 -0.5225  0.6451
   33MOL    H79 5263   2.806   4.396   1.749 -1.7144 -1.1107  1.4824
   33MOL    H80 5264   2.606   4.354   1.561  0.5006 -0.4506  0.6799
   33MOL    H81 5265   2.665   4.496   1.620 -0.6858  0.5232 -1.4873
   33MOL    C82 5266   2.736   4.190   1.684 -0.0784 -0.9390  0.1607
   33MOL    C83 5267   2.663   4.179   1.822 -0.4130 -0.3493 -0.0528
   33MOL    N84 5268   2.651   4.033   1.848 -0.3113  0.2227  0.4847
   33MOL    H85 5269   2.666   4.158   1.607 -1.1323  1.8624 -0.1201
   33MOL    H86 5270   2.820   4.120   1.682  1.6412  1.0786 -0.6993
   33MOL    H87 5271   2.567   4.226   1.803 -1.0007 -1.3991  0.2555
   33MOL    H88 5272   2.622   3.984   1.765  1.2215  1.4612 -0.8176
   33MOL    H89 5273   2.575   4.027   1.914  0.1342 -1.3677  0.8565
   33MOL    C90 5274   2.731   4.253   1.943  0.3279 -0.1582  0.5166
   33MOL    C91 5275   2.664   4.384   1.972  0.0557 -0.2693 -0.2596
   33MOL    N92 5276   2.527   4.365   2.031 -0.3262  0.0253 -0.1646
   33MOL    H93 5277   2.727   4.191   2.033 -0.6242 -0.4235  0.2988
   33MOL    H94 5278   2.838   4.266   1.926  0.8046 -2.9042  1.1352
   33MOL    H95 5279   2.649   4.437   1.878  2.3635  0.2506 -0.3596
   33MOL    H96 5280   2.481   4.435   1.974  1.8227  1.7617  0.1634
   33MOL    H97 5281   2.507   4.272   1.998 -0.8626 -0.7431  2.2580
   33MOL    C98 5282   2.737   4.490   2.056  0.5727  0.2784 -0.2337
   33MOL    C99 5283   2.866   4.553   2.001 -1.0152 -0.0893  0.1184
   33MOL   N100 5284   2.841   4.688   1.957 -0.4901 -1.0350  0.2475
   33MOL   H101 5285   2.669   4.562   2.100  1.2783  0.6855  0.1900
   33MOL   H102 5286   2.766   4.452   2.154  1.0731 -0.1652 -0.5460
   33MOL   H103 5287   2.908   4.490   1.923 -0.3090 -1.0475  1.2504
   33MOL   H104 5288   2.930   4.731   1.936 -0.6421 -1.9467 -2.6166
   33MOL   H105 5289   2.799   4.749   2.025  1.6545  1.6462 -0.7218
   33MOL   C106 5290   2.971   4.579   2.115 -0.1283  0.7748 -0.7196
   33MOL   C107 5291   3.114   4.583   2.078 -0.4507 -0.8332  0.2726
   33MOL   N108 5292   3.156   4.724   2.055 -0.1484  0.5454  0.4810
   33MOL   H109 5293   2.942   4.667   2.172 -1.6731 -0.5388  0.5914
   33MOL   H110 5294   2.961   4.497   2.186  1.8450 -0.8007 -2.1880
   33MOL   H111 5295   3.127   4.531   1.983  0.3370  0.6177 -0.4317
   33MOL   H112 5296   3.142   4.769   1.965 -0.2909  0.0472  0.2562
   33MOL   H113 5297   3.250   4.746   2.085  0.1991 -1.1300  0.6544
   33MOL   C114 5298   3.214   4.516   2.182 -0.2600  0.4011 -0.1727
   33MOL   C115 5299   3.263   4.372   2.149  0.1838  0.0887  0.1944
   33MOL   N116 5300   3.399   4.355   2.202 -0.1793  0.4248  0.2010
   33MOL   H117 5301   3.306   4.574   2.187  0.2920 -0.3063 -1.7367
   33MOL   H118 5302   3.181   4.506   2.286  0.3531 -0.8982 -0.0902
   33MOL   H119 5303   3.266   4.365   2.040  1.1314  0.4173  0.1934
   33MOL   H120 5304   3.404   4.256   2.220 -1.9155  0.0867 -1.0770
   33MOL   H121 5305   3.467   4.368   2.128 -1.0560  2.3809 -0.2928
   33MOL   C122 5306   3.175   4.262   2.203 -0.4611 -1.0510 -0.2990
   33MOL   C123 5307   3.198   4.124   2.134 -0.0582 -0.2955  0.0720
   33MOL   N124 5308   3.320   4.064   2.188  0.9183  0.2421  0.2160
   33MOL   H125 5309   3.183   4.247   2.311 -2.1276 -0.3911 -0.0656
   33MOL   H126 5310   3.067   4.273   2.188 -0.8947 -2.1095  1.8128
   33MOL   H127 5311   3.220   4.142   2.029 -3.3712 -2.0310 -0.9916
   33MOL   H128 5312   3.347   3.978   2.144  0.5667 -0.3554  1.1526
   33MOL   H129 5313   3.277   4.018   2.267  1.4137 -2.7673 -1.2221
   33MOL   C130 5314   3.077   4.026   2.156  0.0951 -0.6568 -0.1956
   33MOL   C131 5315   3.060   3.905   2.067 -0.1195  0.9168  0.3603
   33MOL   N132 5316   2.953   3.825   2.128  1.0421 -0.1471  0.4164
   33MOL   H133 5317   3.072   3.990   2.258  0.3619 -0.4687 -0.1149
   33MOL   H134 5318   2.982   4.077   2.140 -0.2168 -0.7808  1.1919
   33MOL   H135 5319   3.144   3.836   2.079  0.4057  1.3276 -0.9089
   33MOL   H136 5320   2.960   3.733   2.086 -0.2409 -0.1145  0.1111
   33MOL   H137 5321   2.964   3.814   2.228  1.5117  0.3967  0.4237
   33MOL   C138 5322   3.024   3.952   1.926  0.1076 -0.4745 -0.0280
   33MOL   C139 5323   3.070   3.868   1.816  0.2188 -0.0013 -0.9008
   33MOL   N140 5324   3.212   3.900   1.796  0.3435 -0.7344 -0.1859
   33MOL   H141 5325   2.917   3.974   1.931  0.6378  2.0636  0.9089
   33MOL   H142 5326   3.071   4.049   1.912  1.0733 -0.2533  4.1360
   33MOL   H143 5327   3.013   3.907   1.732 -1.5505  3.5977  1.8605
   33MOL   H144 5328   3.274   3.869   1.869 -1.5563 -0.2114  1.6983
   33MOL   H145 5329   3.221   4.001   1.800  0.3850 -0.7818  1.0753
   33MOL   C146 5330   3.050   3.714   1.833 -0.0710  0.4632 -0.5707
   33MOL   C147 5331   2.913   3.664   1.789 -1.1073 -0.3429 -0.0080
   33MOL   N148 5332   2.821   3.698   1.896 -0.1464  0.5632 -0.2740
   33MOL   H149 5333   3.124   3.671   1.765 -2.3903 -1.6062 -1.8614
   33MOL   H150 5334   3.082   3.674   1.929  2.0164  1.5786 -0.7801
   33MOL   H151 5335   2.915   3.555   1.793  1.3441 -0.3365  0.2066
   33MOL   H152 5336   2.869   3.780   1.930  0.8541 -0.9657  2.1236
   33MOL   H153 5337   2.738   3.737   1.854 -1.8616 -0.8507  1.7402
   33MOL   C154 5338   2.856   3.693   1.649 -0.0618  0.3831  0.0457
   33MOL   C155 5339   2.947   3.644   1.530 -0.4255 -0.9314 -0.1664
   33MOL   N156 5340   2.891   3.660   1.402  0.3972 -0.5716  0.2547
   33MOL   H157 5341   2.768   3.628   1.648  1.0296 -1.1451  1.5148
   33MOL   H158 5342   2.820   3.794   1.632 -1.8354 -0.6292 -2.7345
   33MOL   H159 5343   2.977   3.540   1.542  4.3474  0.3924  0.3788
   33MOL   H160 5344   2.792   3.642   1.405  0.6652 -2.1394  0.3402
   33MOL   H161 5345   2.930   3.584   1.348 -2.4157 -0.5681 -1.8901
   33MOL   H162 5346   3.041   3.700   1.529 -1.0653  0.1592  0.2636
   34MOL     C1 5347   6.089   3.906   7.017  0.9506 -0.2711  0.4119
   34MOL     C2 5348   6.032   3.794   6.937  1.0626  0.6273 -0.3820
   34MOL     N3 5349   6.013   3.687   7.029 -0.1508 -0.5340 -0.6314
   34MOL     H4 5350   6.085   3.996   6.957  4.3443 -0.9521 -0.9336
   34MOL     H5 5351   6.193   3.890   7.044  2.1284  0.3813 -3.5365
   34MOL     H6 5352   6.096   3.757   6.857  0.7192 -1.0646  0.1044
   34MOL     H7 5353   5.968   3.613   6.976 -0.6788  0.4261 -1.5500
   34MOL     H8 5354   6.102   3.649   7.059  0.7493  1.6847 -0.4043
   34MOL     H9 5355   6.037   3.913   7.113  2.0101 -3.0881  1.2570
   34MOL    C10 5356   5.883   3.818   6.881  0.2117  0.3372 -0.1802
   34MOL    C11 5357   5.862   3.930   6.778  0.0255 -0.1949 -0.0849
   34MOL    N12 5358   5.933   3.896   6.652  0.2711 -0.0993  0.0393
   34MOL    H13 5359   5.833   3.727   6.848  0.9114 -0.7891  1.8316
   34MOL    H14 5360   5.820   3.848   6.966  0.4023 -1.1179  0.4842
   34MOL    H15 5361   5.919   4.019   6.806  1.7339 -1.0791 -0.6512
   34MOL    H16 5362   5.934   3.975   6.590 -1.2245  0.0049  0.1399
   34MOL    H17 5363   6.033   3.886   6.667  0.2503  0.4931  0.5638
   34MOL    C18 5364   5.710   3.946   6.746  0.1651 -0.1584 -0.2291
   34MOL    C19 5365   5.648   4.055   6.838 -0.3814  0.2717  0.2281
   34MOL    N20 5366   5.702   4.186   6.814 -0.2759 -0.3166 -0.0266
   34MOL    H21 5367   5.692   3.977   6.644 -0.1088 -0.9894 -0.4339
   34MOL    H22 5368   5.664   3.847   6.753  1.4448 -0.7463  0.1504
   34MOL    H23 5369   5.668   4.021   6.940  0.4366  1.7567  0.5739
   34MOL    H24 5370   5.799   4.172   6.838 -0.1374  0.5225 -0.0572
   34MOL    H25 5371   5.667   4.254   6.880  1.3040 -0.3785  0.9118
   34MOL    C26 5372   5.497   4.054   6.814  0.0371  0.4845  0.2938
   34MOL    C27 5373   5.416   4.097   6.937 -0.8195 -0.0842  0.5797
   34MOL    N28 5374   5.276   4.122   6.894  0.3098  0.1398 -0.2066
   34MOL    H29 5375   5.476   4.129   6.738  1.4687  1.7056  1.0554
   34MOL    H30 5376   5.462   3.961   6.771 -0.3017  0.9657 -0.4754
   34MOL    H31 5377   5.453   4.194   6.969 -1.7629  0.3535  0.3646
   34MOL    H32 5378   5.231   4.032   6.886  0.1909  0.0340  1.5524
   34MOL    H33 5379   5.226   4.168   6.970  0.5993  1.1164 -0.5973
   34MOL    C34 5380   5.425   3.990   7.045 -0.1430 -0.1305 -0.3893
   34MOL    C35 5381   5.421   4.044   7.186 -0.4253  0.2632 -0.0040
   34MOL    N36 5382   5.346   3.951   7.274  0.5554 -0.0582 -0.0946
   34MOL    H37 5383   5.336   3.931   7.026 -0.2772  0.5891 -2.0981
   34MOL    H38 5384   5.506   3.920   7.023  0.7592  0.4920  0.8700
   34MOL    H39 5385   5.363   4.136   7.190  0.4713  0.7901  1.4212
   34MOL    H40 5386   5.354   3.958   0.099 -0.2792  1.3997 -0.1106
   34MOL    H41 5387   5.381   3.859   7.253 -2.0728 -0.9390 -0.8980
   34MOL    C42 5388   5.566   4.047   7.235  0.3879  0.0143  0.9668
   34MOL    C43 5389   5.584   4.124   0.088 -0.3101  0.0280 -0.2864
   34MOL    N44 5390   5.708   4.073   0.153 -0.0075  0.3046 -0.1804
   34MOL    H45 5391   5.601   3.943   7.230 -0.3324 -0.1850 -0.2042
   34MOL    H46 5392   5.611   4.103   7.153 -3.1031 -0.3279 -1.3049
   34MOL    H47 5393   5.506   4.096   0.158 -0.7179  0.4542 -0.5735
   34MOL    H48 5394   5.788   4.080   0.091 -0.3590  1.3796 -0.5206
   34MOL    H49 5395   5.700   3.974   0.171  0.8586  0.4379  1.0094
   34MOL    C50 5396   5.603   4.277   0.058 -0.2792  0.4242  0.4696
   34MOL    C51 5397   5.562   4.371   0.174  0.0120 -0.1228 -0.0058
   34MOL    N52 5398   5.655   4.486   0.168  0.1131  0.5741 -0.0336
   34MOL    H53 5399   5.707   4.291   0.027 -0.2498  0.5714  0.6331
   34MOL    H54 5400   5.550   4.304   7.242 -0.2009 -0.1979  0.2398
   34MOL    H55 5401   5.579   4.339   0.277  0.4773  0.5211  0.1211
   34MOL    H56 5402   5.605   4.572   0.181  1.7199  1.6493 -0.8926
   34MOL    H57 5403   5.725   4.488   0.241  0.9099 -0.8435 -0.7300
   34MOL    C58 5404   5.421   4.435   0.158  0.2867  0.0816 -0.3943
   34MOL    C59 5405   5.300   4.349   0.186  0.1654  0.6160  1.0557
   34MOL    N60 5406   5.269   4.341   0.331  0.1120 -0.4023  0.6273
   34MOL    H61 5407   5.408   4.525   0.218 -1.0571 -0.4021  0.0564
   34MOL    H62 5408   5.413   4.469   0.055 -1.9148 -1.8987 -0.9235
   34MOL    H63 5409   5.327   4.248   0.157 -0.3407  0.6190  0.5600
   34MOL    H64 5410   5.210   4.260   0.345 -2.0395  1.1263  0.7417
   34MOL    H65 5411   5.349   4.308   0.383 -0.4374  0.8048  2.2514
   34MOL    C66 5412   5.166   4.374   0.118  0.2465 -0.4331  0.9550
   34MOL    C67 5413   5.154   4.319   7.248  0.1032 -0.1462  0.1490
   34MOL    N68 5414   5.116   4.178   7.249 -0.6100 -0.3074 -0.4219
   34MOL    H69 5415   5.093   4.318   0.177 -1.5102 -0.5187 -1.2440
   34MOL    H70 5416   5.146   4.481   0.126  1.5074  0.1522 -2.8199
   34MOL    H71 5417   5.253   4.342   7.208 -0.5784  1.7380 -0.4878
   34MOL    H72 5418   5.194   4.120   0.001  0.3361  2.0418  2.0374
   34MOL    H73 5419   5.043   4.149   0.036 -1.3778  3.1850  0.4422
   34MOL    C74 5420   5.044   4.393   7.169  0.2991 -0.7489 -0.4650
   34MOL    C75 5421   5.097   4.441   7.030 -0.2945 -0.2003 -0.2122
   34MOL    N76 5422   4.991   4.480   6.938  1.2319 -0.0728  0.5937
   34MOL    H77 5423   4.952   4.336   7.158  0.7355 -1.3686 -0.9271
   34MOL    H78 5424   5.008   4.484   7.216 -1.4543 -1.6586 -0.0216
   34MOL    H79 5425   5.154   4.362   6.981  1.8897  0.7987  0.6727
   34MOL    H80 5426   4.935   4.554   6.977  1.0562 -0.0110  0.2275
   34MOL    H81 5427   5.049   4.522   6.866  1.3460 -1.1640  0.0184
   34MOL    C82 5428   5.192   4.560   7.064  0.4581 -0.0471  0.4353
   34MOL    C83 5429   5.285   4.601   6.941 -0.6103 -0.0760  0.2184
   34MOL    N84 5430   5.346   4.733   6.962 -0.9933 -0.0313 -0.6520
   34MOL    H85 5431   5.125   4.642   7.092  1.1341  1.0867 -1.2523
   34MOL    H86 5432   5.254   4.543   7.152  0.5845 -0.8450  0.1920
   34MOL    H87 5433   5.220   4.612   6.854  0.3930  1.9853 -0.2939
   34MOL    H88 5434   5.416   4.754   6.892 -0.7723  0.5710 -0.2533
   34MOL    H89 5435   5.382   4.732   7.057  0.0878  1.7836 -1.0217
   34MOL    C90 5436   5.394   4.494   6.903 -0.5962 -0.4261  0.4941
   34MOL    C91 5437   5.441   4.514   6.760  0.3537  0.7731  0.4486
   34MOL    N92 5438   5.581   4.485   6.742  0.0006  0.0622 -0.0874
   34MOL    H93 5439   5.478   4.488   6.972  0.2418 -1.8851 -0.6253
   34MOL    H94 5440   5.351   4.395   6.916  0.4686 -0.9306  0.2322
   34MOL    H95 5441   5.432   4.620   6.737 -1.2106  1.0484  2.1914
   34MOL    H96 5442   5.585   4.384   6.746 -0.8161 -0.0113 -0.9666
   34MOL    H97 5443   5.612   4.507   6.649 -0.7255  0.4132 -0.2449
   34MOL    C98 5444   5.360   4.426   6.663 -0.4982 -0.0277 -0.7754
   34MOL    C99 5445   5.228   4.489   6.603 -0.4581  0.6841 -0.3156
   34MOL   N100 5446   5.269   4.604   6.528  0.0833 -0.2088 -0.6737
   34MOL   H101 5447   5.424   4.412   6.576  2.4482 -0.7714  1.3987
   34MOL   H102 5448   5.340   4.331   6.711 -0.8883  0.8208  0.7866
   34MOL   H103 5449   5.167   4.526   6.685  0.2268  0.1411  0.4460
   34MOL   H104 5450   5.190   4.659   6.497 -1.1150 -0.7625  1.2962
   34MOL   H105 5451   5.334   4.666   6.575 -0.4256 -0.1790 -0.0073
   34MOL   C106 5452   5.143   4.400   6.511  0.3707 -0.1809 -0.7516
   34MOL   C107 5453   5.067   4.292   6.597  0.0408 -0.0838  0.4292
   34MOL   N108 5454   4.953   4.366   6.653 -0.7723  0.1885 -0.0328
   34MOL   H109 5455   5.074   4.449   6.442  0.0171  0.7539  0.2651
   34MOL   H110 5456   5.215   4.360   6.439  1.1131  0.0638 -0.1545
   34MOL   H111 5457   5.131   4.247   6.673  1.2012 -0.5742 -0.8112
   34MOL   H112 5458   4.981   4.417   6.735 -2.6934 -0.3447  0.9770
   34MOL   H113 5459   4.895   4.292   6.689  1.7096 -1.8717 -0.1500
   34MOL   C114 5460   5.014   4.179   6.510  0.0635  0.1943 -0.1435
   34MOL   C115 5461   5.123   4.080   6.480 -0.5384 -0.3622  0.3438
   34MOL   N116 5462   5.179   4.021   6.597 -0.1160 -0.5030 -0.3337
   34MOL   H117 5463   4.943   4.118   6.566  0.9015 -2.0499 -1.4856
   34MOL   H118 5464   4.970   4.219   6.419  1.1668  1.4971 -0.1303
   34MOL   H119 5465   5.216   4.126   6.445 -0.5578  0.2135  1.0514
   34MOL   H120 5466   5.266   3.971   6.584  0.8540  0.8540  0.7825
   34MOL   H121 5467   5.202   4.079   6.676  0.1949 -0.7038 -0.2743
   34MOL   C122 5468   5.088   3.964   6.384  0.6966  0.7532 -0.6390
   34MOL   C123 5469   5.178   3.960   6.256 -0.7843 -0.2056  0.0464
   34MOL   N124 5470   5.163   3.839   6.180  0.3668 -1.2520 -0.2471
   34MOL   H125 5471   5.100   3.868   6.434  1.1280  1.9274  1.6172
   34MOL   H126 5472   4.984   3.975   6.351 -0.1406 -1.2428  1.2171
   34MOL   H127 5473   5.283   3.960   6.287 -0.4925 -0.7699 -0.9317
   34MOL   H128 5474   5.206   3.767   6.237  1.3908 -1.4551 -1.2451
   34MOL   H129 5475   5.226   3.840   6.101  0.9596 -2.0263  0.2053
   34MOL   C130 5476   5.146   4.083   6.177 -0.3982 -0.2819 -0.7058
   34MOL   C131 5477   5.175   4.072   6.027 -0.1962  0.5603 -0.1651
   34MOL   N132 5478   5.088   4.161   5.955 -0.0907 -0.9615  0.2280
   34MOL   H133 5479   5.050   4.126   6.205  0.3864  1.6361 -0.8496
   34MOL   H134 5480   5.201   4.165   6.223  1.1029 -1.4774 -0.3261
   34MOL   H135 5481   5.145   3.973   5.993  0.3692  0.3896 -0.1878
   34MOL   H136 5482   5.115   4.253   5.987  1.2924 -1.9488  1.9931
   34MOL   H137 5483   4.996   4.159   5.995  0.6401  0.4476  2.0373
   34MOL   C138 5484   5.319   4.085   5.994 -0.1098 -1.1229  0.3531
   34MOL   C139 5485   5.360   4.021   5.860  0.5829  0.0071  0.0525
   34MOL   N140 5486   5.342   4.127   5.761  0.1146  0.3012  0.2552
   34MOL   H141 5487   5.362   4.185   6.004 -1.7160 -0.1881 -1.6942
   34MOL   H142 5488   5.368   4.018   6.065  0.0673 -0.9365  0.4096
   34MOL   H143 5489   5.280   3.960   5.818 -1.2542  2.8935 -0.8094
   34MOL   H144 5490   5.311   4.073   5.683  0.9641  0.1713 -0.0024
   34MOL   H145 5491   5.256   4.170   5.792 -0.0857  0.2822 -0.2726
   34MOL   C146 5492   5.501   3.961   5.851 -0.3503  0.0909 -0.0951
   34MOL   C147 5493   5.510   3.816   5.808 -0.2255 -0.4215  0.0503
   34MOL   N148 5494   5.658   3.792   5.798 -0.0195 -0.4185  0.3501
   34MOL   H149 5495   5.561   4.025   5.786  0.0095 -0.0797  0.0641
   34MOL   H150 5496   5.559   3.969   5.943 -0.2980 -1.4054  0.0138
   34MOL   H151 5497   5.469   3.808   5.708 -0.4603  0.2986  0.0837
   34MOL   H152 5498   5.689   3.870   5.743  2.1802 -2.5957 -1.6060
   34MOL   H153 5499   5.693   3.809   5.891 -2.0162 -0.1958  1.0907
   34MOL   C154 5500   5.434   3.728   5.910  0.4285 -0.1517  0.0379
   34MOL   C155 5501   5.436   3.577   5.879 -0.2895 -0.5321  0.0139
   34MOL   N156 5502   5.333   3.511   5.961 -0.5135  0.1778 -0.3667
   34MOL   H157 5503   5.482   3.746   6.007 -0.9627 -0.3340  0.7695
   34MOL   H158 5504   5.329   3.754   5.926 -0.2334 -1.3986 -2.1262
   34MOL   H159 5505   5.533   3.529   5.889 -1.2780 -2.2190  1.7303
   34MOL   H160 5506   5.243   3.551   5.938 -0.1934  0.8023 -0.5480
   34MOL   H161 5507   5.318   3.414   5.940 -1.4781  0.0969  0.6802
   34MOL   H162 5508   5.406   3.566   5.774 -2.4281 -0.2378  0.5699
   35MOL     C1 5509   6.498   1.372   4.316 -0.2656  0.6964  0.1324
   35MOL     C2 5510   6.518   1.523   4.359 -0.4773  0.4550  0.0463
   35MOL     N3 5511   6.538   1.595   4.234  0.0657  0.2993 -0.3477
   35MOL     H4 5512   6.580   1.337   4.253  0.5073  0.0251  1.4953
   35MOL     H5 5513   6.412   1.368   4.249  1.1334 -0.8868 -1.6360
   35MOL     H6 5514   6.598   1.560   4.422  0.2064  1.7517 -1.5726
   35MOL     H7 5515   6.519   1.693   4.243 -1.5672 -0.0029 -0.4066
   35MOL     H8 5516   6.637   1.592   4.215 -0.1372  1.3264 -1.6214
   35MOL     H9 5517   6.488   1.299   4.397 -3.4111  0.2228 -0.5971
   35MOL    C10 5518   6.396   1.594   4.420  0.0774 -0.5980 -0.0075
   35MOL    C11 5519   6.388   1.552   4.564 -0.4668 -0.2102 -0.5691
   35MOL    N12 5520   6.480   1.629   4.646 -0.0876 -0.1011  0.3017
   35MOL    H13 5521   6.402   1.702   4.407  0.0967 -0.6467 -0.4110
   35MOL    H14 5522   6.302   1.557   4.377 -0.8022  0.5297  0.9256
   35MOL    H15 5523   6.413   1.448   4.582  0.2026  0.2106  0.9975
   35MOL    H16 5524   6.577   1.605   4.632  1.0674  3.3956  1.8308
   35MOL    H17 5525   6.458   1.598   4.740  0.1126 -2.5957 -0.4359
   35MOL    C18 5526   6.243   1.568   4.624 -0.0363  0.3494  0.2817
   35MOL    C19 5527   6.145   1.456   4.588 -0.7542  0.4935  1.0123
   35MOL    N20 5528   6.182   1.333   4.661  0.0268 -0.2570 -0.2739
   35MOL    H21 5529   6.242   1.580   4.732  2.1182  0.2828  0.3226
   35MOL    H22 5530   6.202   1.657   4.576 -2.5856 -1.4983 -1.0850
   35MOL    H23 5531   6.156   1.435   4.481  0.6761 -0.1041  1.2671
   35MOL    H24 5532   6.110   1.299   4.723  1.6788 -2.0507  0.7391
   35MOL    H25 5533   6.196   1.261   4.591  0.5742 -0.8171  0.4020
   35MOL    C26 5534   5.994   1.485   4.630 -0.4031  0.2251  0.3322
   35MOL    C27 5535   5.905   1.583   4.561  0.6829 -0.3098  0.2814
   35MOL    N28 5536   5.884   1.542   4.424  0.4125  0.6816  0.5026
   35MOL    H29 5537   5.945   1.388   4.625  0.7204 -0.2617 -1.7086
   35MOL    H30 5538   5.997   1.505   4.737 -2.0991 -0.5956  0.5619
   35MOL    H31 5539   5.950   1.682   4.557  2.4046 -0.9889  1.9777
   35MOL    H32 5540   5.800   1.585   4.388  0.9235  2.1324  1.0197
   35MOL    H33 5541   5.948   1.584   4.358 -0.7497  1.9907  0.1878
   35MOL    C34 5542   5.761   1.586   4.625 -0.2193 -0.3524 -0.2915
   35MOL    C35 5543   5.726   1.722   4.699  0.5083  0.2483  0.6862
   35MOL    N36 5544   5.586   1.721   4.741 -0.3313 -0.3906 -0.4386
   35MOL    H37 5545   5.685   1.572   4.548 -0.1378 -2.3828 -0.0241
   35MOL    H38 5546   5.757   1.506   4.699 -0.4180  0.6016  0.7510
   35MOL    H39 5547   5.737   1.802   4.626 -0.7445  0.3249  0.5770
   35MOL    H40 5548   5.550   1.628   4.751 -2.5298  0.3320 -1.4241
   35MOL    H41 5549   5.535   1.750   4.659  0.5166 -0.8281 -1.1317
   35MOL    C42 5550   5.801   1.757   4.821  0.6903 -0.8382  0.6180
   35MOL    C43 5551   5.788   1.906   4.863 -0.2056 -0.4063  0.8605
   35MOL    N44 5552   5.828   1.910   5.003 -0.1284  0.7444  0.1757
   35MOL    H45 5553   5.767   1.690   4.900 -1.4877  0.9028  1.1987
   35MOL    H46 5554   5.908   1.740   4.808  0.6960 -0.5763  0.3288
   35MOL    H47 5555   5.683   1.934   4.857 -0.0732  0.4137  2.0412
   35MOL    H48 5556   5.875   1.821   5.012 -3.5140 -1.4708 -2.6487
   35MOL    H49 5557   5.746   1.891   5.059  1.1707 -2.6140  1.0337
   35MOL    C50 5558   5.880   2.010   4.782  0.1889  0.0543  0.0360
   35MOL    C51 5559   5.806   2.124   4.717  0.1672  0.4622  0.0721
   35MOL    N52 5560   5.907   2.200   4.648 -0.3290 -0.3514 -0.6628
   35MOL    H53 5561   5.962   2.045   4.844  0.2698 -1.4124  0.7864
   35MOL    H54 5562   5.932   1.947   4.710 -0.5230 -0.4992 -0.0085
   35MOL    H55 5563   5.750   2.179   4.792  0.3832  0.5071  0.2007
   35MOL    H56 5564   5.948   2.128   4.591  0.9650 -1.1893  1.2563
   35MOL    H57 5565   5.987   2.214   4.708 -0.7435 -2.4590  0.4404
   35MOL    C58 5566   5.705   2.089   4.608 -0.1490  0.1835  0.3792
   35MOL    C59 5567   5.612   2.208   4.588  0.6134  0.2497  0.3606
   35MOL    N60 5568   5.572   2.197   4.448 -0.4198 -0.1168 -0.6660
   35MOL    H61 5569   5.756   2.058   4.517 -1.8884  0.1462 -0.6025
   35MOL    H62 5570   5.646   2.002   4.637  0.1410  0.4453  1.8313
   35MOL    H63 5571   5.657   2.307   4.597 -0.2789  0.8898 -1.8753
   35MOL    H64 5572   5.527   2.282   4.417  2.4076  1.1698 -1.4170
   35MOL    H65 5573   5.649   2.182   4.384 -0.3113 -3.3030  0.1002
   35MOL    C66 5574   5.490   2.197   4.675 -0.4408  0.1959  0.2441
   35MOL    C67 5575   5.446   2.350   4.715 -0.0445  0.3287  0.6681
   35MOL    N68 5576   5.304   2.336   4.749 -0.0348 -0.1307 -0.1660
   35MOL    H69 5577   5.410   2.139   4.631 -0.2757  0.0189  0.1778
   35MOL    H70 5578   5.508   2.139   4.765  1.3684 -2.7100 -1.9161
   35MOL    H71 5579   5.451   2.414   4.626  0.6159  0.1242  0.5600
   35MOL    H72 5580   5.262   2.423   4.780  0.8356  1.4125 -3.2098
   35MOL    H73 5581   5.239   2.302   4.679  0.9692 -2.4837 -0.0012
   35MOL    C74 5582   5.523   2.406   4.838 -0.4001 -0.4978  0.2727
   35MOL    C75 5583   5.475   2.549   4.866 -0.6721 -0.5995  0.2160
   35MOL    N76 5584   5.527   2.581   4.991 -0.6442  0.6857 -0.0963
   35MOL    H77 5585   5.514   2.338   4.923 -1.5086  0.2096  0.7312
   35MOL    H78 5586   5.626   2.397   4.804 -1.4137 -1.2889 -2.7480
   35MOL    H79 5587   5.368   2.567   4.879 -0.5204 -0.4151  1.2301
   35MOL    H80 5588   5.619   2.610   4.961 -0.6847  0.7606 -0.1451
   35MOL    H81 5589   5.483   2.661   5.034  1.4042  1.4756  0.6017
   35MOL    C82 5590   5.529   2.648   4.763 -0.2091  0.4838  0.6039
   35MOL    C83 5591   5.519   2.802   4.789  0.9364 -0.0162  0.2030
   35MOL    N84 5592   5.613   2.871   4.706 -0.2391 -0.2046  0.5458
   35MOL    H85 5593   5.636   2.628   4.762  0.0004  1.5990 -0.3695
   35MOL    H86 5594   5.501   2.626   4.660 -1.1209 -0.1372  0.9680
   35MOL    H87 5595   5.543   2.829   4.891  0.9629 -0.7533  0.3934
   35MOL    H88 5596   5.701   2.821   4.709 -0.6957 -1.0178  0.4010
   35MOL    H89 5597   5.594   2.877   4.607 -1.8671 -2.1315  0.7233
   35MOL    C90 5598   5.377   2.858   4.749 -0.5787 -0.3089 -0.1777
   35MOL    C91 5599   5.330   2.976   4.833 -0.0794  0.2367  0.0412
   35MOL    N92 5600   5.227   3.051   4.762 -0.3871  0.2736 -0.5249
   35MOL    H93 5601   5.378   2.879   4.642  1.2557 -1.0632 -0.3284
   35MOL    H94 5602   5.307   2.774   4.757  0.0818 -0.8814 -0.3784
   35MOL    H95 5603   5.407   3.053   4.840  0.0758  0.2334 -1.4626
   35MOL    H96 5604   5.135   3.012   4.777  0.0472  0.3946  2.7875
   35MOL    H97 5605   5.217   3.140   4.810 -2.2310  1.5496 -3.1507
   35MOL    C98 5606   5.280   2.935   4.973 -0.1315 -0.3631 -0.9466
   35MOL    C99 5607   5.318   3.040   5.076  0.6874  0.4563  0.1677
   35MOL   N100 5608   5.241   2.998   5.196 -0.2167  0.5155 -0.4911
   35MOL   H101 5609   5.171   2.926   4.969 -0.0470 -1.6590 -0.5735
   35MOL   H102 5610   5.317   2.838   5.006 -0.9115  0.4697  2.5576
   35MOL   H103 5611   5.272   3.135   5.048 -0.9113 -1.0366 -2.3553
   35MOL   H104 5612   5.262   3.063   5.270  1.4642 -0.2162 -0.2853
   35MOL   H105 5613   5.148   3.035   5.185 -0.5576  0.0998  0.8994
   35MOL   C106 5614   5.468   3.056   5.107  0.2710  0.3836  0.4866
   35MOL   C107 5615   5.502   3.178   5.195  0.0282  0.1663 -0.6970
   35MOL   N108 5616   5.639   3.164   5.244 -0.0412  0.1349 -0.6432
   35MOL   H109 5617   5.492   2.958   5.150 -1.1428  0.0924  0.6188
   35MOL   H110 5618   5.531   3.059   5.018 -0.8373  1.5786 -0.2690
   35MOL   H111 5619   5.431   3.179   5.278  1.9219 -0.0773  0.9487
   35MOL   H112 5620   5.647   3.075   5.291 -0.2247  0.3316 -0.2348
   35MOL   H113 5621   5.637   3.237   5.314  0.0975 -1.2309  0.8070
   35MOL   C114 5622   5.488   3.312   5.118  0.9424  0.2022 -0.6013
   35MOL   C115 5623   5.466   3.440   5.200  0.5611  0.0413  0.6797
   35MOL   N116 5624   5.329   3.447   5.250  0.2210  0.3258 -0.0063
   35MOL   H117 5625   5.564   3.327   5.041  1.6887  0.0734  0.0992
   35MOL   H118 5626   5.400   3.309   5.054  1.6975 -0.1894 -1.6461
   35MOL   H119 5627   5.477   3.526   5.134  4.4304 -2.3967 -2.0678
   35MOL   H120 5628   5.268   3.492   5.183 -0.2929  0.6715  0.6897
   35MOL   H121 5629   5.328   3.509   5.330 -3.4558 -0.3094  0.5676
   35MOL   C122 5630   5.571   3.462   5.311  0.1876 -0.0500 -1.3663
   35MOL   C123 5631   5.593   3.613   5.348  0.1608 -0.0004  0.2530
   35MOL   N124 5632   5.473   3.656   5.415 -0.6833 -0.3069 -0.3287
   35MOL   H125 5633   5.537   3.413   5.402 -0.3206  3.0251  0.1544
   35MOL   H126 5634   5.668   3.424   5.279  2.2916  3.2960  0.7103
   35MOL   H127 5635   5.610   3.674   5.259  0.0864  0.2183  0.3887
   35MOL   H128 5636   5.489   3.631   5.511 -1.4018 -1.8307 -0.6014
   35MOL   H129 5637   5.470   3.757   5.411 -3.1818 -0.3814 -1.2371
   35MOL   C130 5638   5.707   3.638   5.449 -0.0935 -0.5840 -0.0305
   35MOL   C131 5639   5.841   3.648   5.385 -0.1356 -0.0264 -1.0293
   35MOL   N132 5640   5.859   3.784   5.341  0.0078  0.2913 -0.3831
   35MOL   H133 5641   5.681   3.725   5.510  0.0904  1.0343 -2.2229
   35MOL   H134 5642   5.695   3.556   5.521  2.4028  0.1250  1.2495
   35MOL   H135 5643   5.845   3.580   5.300 -1.5572 -0.8274 -0.4729
   35MOL   H136 5644   5.959   3.792   5.331  0.1407 -0.2247  0.5196
   35MOL   H137 5645   5.824   3.796   5.247  0.6758  1.9152 -0.4362
   35MOL   C138 5646   5.957   3.610   5.476  0.5423  0.3205  0.4605
   35MOL   C139 5647   6.030   3.480   5.435 -0.3401 -0.3316 -0.4484
   35MOL   N140 5648   6.151   3.465   5.513 -0.1331 -0.0340 -0.1414
   35MOL   H141 5649   6.032   3.689   5.480  1.0979 -0.1372 -0.5838
   35MOL   H142 5650   5.914   3.584   5.572  1.1936 -5.5132 -0.6098
   35MOL   H143 5651   6.044   3.480   5.327 -0.3528  1.2762 -0.4616
   35MOL   H144 5652   6.133   3.460   5.612  2.2313 -1.1051  0.2599
   35MOL   H145 5653   6.211   3.386   5.493 -0.8700 -1.1422  1.9254
   35MOL   C146 5654   5.941   3.353   5.453 -0.6846 -0.6536  0.4768
   35MOL   C147 5655   5.995   3.225   5.381  0.1883  0.0778 -0.4500
   35MOL   N148 5656   5.889   3.118   5.392  0.0254 -0.2069  0.5824
   35MOL   H149 5657   5.933   3.326   5.558 -1.1710 -1.6577  0.1927
   35MOL   H150 5658   5.838   3.379   5.427 -0.2706  1.3157  0.7415
   35MOL   H151 5659   6.078   3.181   5.436 -1.4773 -1.8900  0.5946
   35MOL   H152 5660   5.847   3.115   5.484 -0.2887 -1.0739  0.4224
   35MOL   H153 5661   5.809   3.146   5.337  1.0257  0.0638 -0.7580
   35MOL   C154 5662   6.036   3.241   5.235  0.2163 -0.0520  0.4087
   35MOL   C155 5663   6.080   3.108   5.161  0.1205 -0.3867 -0.1104
   35MOL   N156 5664   6.095   3.145   5.021 -0.1075 -0.0467 -0.2880
   35MOL   H157 5665   5.946   3.275   5.185  0.9275 -1.0180 -1.6102
   35MOL   H158 5666   6.113   3.317   5.219  1.0132 -0.5392  1.8698
   35MOL   H159 5667   6.006   3.029   5.175 -0.5212  0.3776  0.8742
   35MOL   H160 5668   6.117   3.064   4.964  0.2524  0.5627 -1.0284
   35MOL   H161 5669   6.179   3.201   5.020 -0.3528  0.3260  0.2255
   35MOL   H162 5670   6.167   3.055   5.203 -0.0254 -1.0067 -0.5860
   36MOL     C1 5671   2.135   0.896   6.878 -0.6565  0.0361  0.5529
   36MOL     C2 5672   1.991   0.880   6.833 -0.2224 -0.0479 -0.0966
   36MOL     N3 5673   1.949   0.740   6.871  0.1373  0.2753 -0.3689
   36MOL     H4 5674   2.165   1.001   6.870  2.1237 -0.8915 -2.4140
   36MOL     H5 5675   2.211   0.835   6.829  0.0525  0.2300  1.3875
   36MOL     H6 5676   1.989   0.890   6.725  1.1175 -0.5787 -0.1780
   36MOL     H7 5677   2.012   0.675   6.826  1.4064  2.3042 -1.6357
   36MOL     H8 5678   1.864   0.723   6.819  0.7838 -4.4250 -0.0248
   36MOL     H9 5679   2.134   0.867   6.983 -0.4237 -3.6619 -0.4231
   36MOL    C10 5680   1.899   0.995   6.892  0.7822 -0.2245 -0.0000
   36MOL    C11 5681   1.923   1.143   6.844  0.9333 -0.1268 -0.7613
   36MOL    N12 5682   1.885   1.159   6.708  0.1382  0.1384 -0.4299
   36MOL    H13 5683   1.794   0.967   6.880  0.7726 -0.5445  0.8243
   36MOL    H14 5684   1.906   0.983   7.000  0.6409 -0.4968 -0.0214
   36MOL    H15 5685   2.031   1.158   6.848  0.9740 -0.6675  0.6011
   36MOL    H16 5686   1.866   1.065   6.675 -0.2595 -0.1432  0.5782
   36MOL    H17 5687   1.799   1.207   6.689 -0.2423 -0.0630  0.7433
   36MOL    C18 5688   1.840   1.231   6.925 -0.6288  0.0585  0.4417
   36MOL    C19 5689   1.892   1.378   6.936 -0.1304 -0.3182 -0.8541
   36MOL    N20 5690   1.785   1.460   6.980  0.0940 -0.0566  0.2386
   36MOL    H21 5691   1.742   1.237   6.880  0.6102  2.4612 -2.0713
   36MOL    H22 5692   1.835   1.189   7.026  2.8069 -1.1451  0.2027
   36MOL    H23 5693   1.903   1.412   6.833  0.7327 -0.8927 -0.9625
   36MOL    H24 5694   1.727   1.476   6.899  0.0000 -0.4613  0.2220
   36MOL    H25 5695   1.816   1.552   7.008 -0.7260  1.1023 -2.5340
   36MOL    C26 5696   2.015   1.391   7.032  0.1766 -0.0567  0.5892
   36MOL    C27 5697   2.114   1.509   7.002  0.5800 -0.4447  0.2522
   36MOL    N28 5698   2.167   1.565   7.123 -0.2946 -0.5947 -0.3484
   36MOL    H29 5699   1.985   1.396   7.136 -0.7347 -0.1673  0.3352
   36MOL    H30 5700   2.069   1.296   7.033 -1.7486 -1.2021 -0.7710
   36MOL    H31 5701   2.050   1.585   6.958  0.5207 -1.0673 -0.7451
   36MOL    H32 5702   2.222   1.648   7.106 -0.8489 -0.1240  0.1232
   36MOL    H33 5703   2.235   1.499   7.157  1.1297  0.0224 -1.9065
   36MOL    C34 5704   2.239   1.480   6.916 -0.4180  0.0613 -0.8055
   36MOL    C35 5705   2.200   1.430   6.777  0.4435  0.2065 -0.6737
   36MOL    N36 5706   2.135   1.539   6.709 -0.1675 -0.2681  0.2021
   36MOL    H37 5707   2.293   1.571   6.888  0.0118 -0.1880 -0.7930
   36MOL    H38 5708   2.309   1.412   6.965 -1.1764  0.7633  1.2726
   36MOL    H39 5709   2.123   1.355   6.796  0.4346  0.4044  0.1303
   36MOL    H40 5710   2.068   1.498   6.646  0.2556 -0.1912 -0.2997
   36MOL    H41 5711   2.080   1.595   6.774 -0.3929 -1.0397  0.6767
   36MOL    C42 5712   2.313   1.365   6.702  0.0905 -0.6579 -0.7188
   36MOL    C43 5713   2.333   1.221   6.749 -0.1244 -0.0796 -0.6932
   36MOL    N44 5714   2.269   1.130   6.657  0.1349 -0.2832 -0.3680
   36MOL    H45 5715   2.320   1.371   6.594 -0.4863 -1.7277 -0.8213
   36MOL    H46 5716   2.397   1.426   6.737  1.1724 -1.7772 -1.3116
   36MOL    H47 5717   2.290   1.206   6.848 -1.9468 -1.9955 -1.7404
   36MOL    H48 5718   2.170   1.141   6.669  0.2673  0.0959  0.4397
   36MOL    H49 5719   2.276   1.033   6.681 -0.6688 -0.8394 -2.2932
   36MOL    C50 5720   2.479   1.173   6.767  0.1335  0.0897  0.0168
   36MOL    C51 5721   2.579   1.262   6.842  0.2241  0.1015 -0.7306
   36MOL    N52 5722   2.675   1.170   6.900 -0.5065  0.0135  0.0906
   36MOL    H53 5723   2.463   1.075   6.813  0.4223 -0.8266 -1.7808
   36MOL    H54 5724   2.525   1.158   6.670  0.2196  4.3698 -0.6820
   36MOL    H55 5725   2.540   1.321   6.925  0.0015 -0.1136 -0.6814
   36MOL    H56 5726   2.762   1.218   6.920 -0.9607  0.7674  0.2863
   36MOL    H57 5727   2.646   1.133   6.989  1.6238 -1.9255  0.0392
   36MOL    C58 5728   2.664   1.363   6.749 -0.4429  0.1247 -0.4207
   36MOL    C59 5729   2.727   1.473   6.828  0.1686 -0.3649  0.2938
   36MOL    N60 5730   2.832   1.547   6.755 -0.1705 -0.3451  0.0148
   36MOL    H61 5731   2.737   1.304   6.695  2.0680  1.7270  1.1238
   36MOL    H62 5732   2.605   1.414   6.672 -0.4469 -1.7449 -1.6897
   36MOL    H63 5733   2.777   1.427   6.913  1.0965  1.6116  0.8247
   36MOL    H64 5734   2.803   1.528   6.660 -0.2001  2.0756 -0.4895
   36MOL    H65 5735   2.813   1.646   6.749 -0.0583 -0.4170 -1.8882
   36MOL    C66 5736   2.628   1.577   6.886  0.5744 -0.3749 -0.5824
   36MOL    C67 5737   2.679   1.707   6.953  0.1632 -0.0909 -0.4678
   36MOL    N68 5738   2.604   1.816   6.892 -0.8559 -0.1724  0.0034
   36MOL    H69 5739   2.551   1.603   6.813  0.6057 -2.5801 -1.4329
   36MOL    H70 5740   2.558   1.524   6.950 -1.1022  0.5133 -1.6142
   36MOL    H71 5741   2.787   1.712   6.939  0.3917 -1.0662  0.7831
   36MOL    H72 5742   2.573   1.880   6.962  1.1318 -0.0166  0.7746
   36MOL    H73 5743   2.525   1.770   6.849 -1.7919  1.6771 -0.3015
   36MOL    C74 5744   2.664   1.712   7.105 -0.1449 -0.0192 -0.1141
   36MOL    C75 5745   2.764   1.620   7.188  1.2134 -0.3309  0.1166
   36MOL    N76 5746   2.799   1.690   0.042 -0.2485 -0.4639 -0.2699
   36MOL    H77 5747   2.668   1.814   7.142 -0.9129 -0.7607  2.1536
   36MOL    H78 5748   2.558   1.690   7.121 -0.2765 -1.1035 -2.3430
   36MOL    H79 5749   2.858   1.612   7.133  1.8077 -1.9262  1.2991
   36MOL    H80 5750   2.809   1.787   0.015  2.4106 -0.9623 -1.1710
   36MOL    H81 5751   2.726   1.689   0.112 -0.0468  0.1244 -0.0538
   36MOL    C82 5752   2.706   1.485   7.230  0.6547  0.3360 -0.2419
   36MOL    C83 5753   2.791   1.394   0.033 -0.2418  0.9690 -0.1830
   36MOL    N84 5754   2.715   1.269   0.059  0.2102  0.0373 -0.3042
   36MOL    H85 5755   2.613   1.509   0.006  0.6938 -0.4445  0.2024
   36MOL    H86 5756   2.671   1.432   7.142 -0.9320  1.3286 -0.2382
   36MOL    H87 5757   2.820   1.444   0.125  1.8414  0.7732 -0.7205
   36MOL    H88 5758   2.651   1.286   0.135 -0.7999  2.3137 -1.6115
   36MOL    H89 5759   2.782   1.206   0.100 -0.0455 -0.7253 -1.0336
   36MOL    C90 5760   2.915   1.353   7.230 -0.5543 -0.5869  0.5954
   36MOL    C91 5761   3.027   1.272   0.030  0.5381 -0.4232 -0.4273
   36MOL    N92 5762   3.099   1.197   7.205  0.1580 -0.0303  0.2245
   36MOL    H93 5763   2.888   1.305   7.136 -1.0338 -0.0667  0.4648
   36MOL    H94 5764   2.965   1.443   7.194 -0.6374 -0.4448  0.8325
   36MOL    H95 5765   2.976   1.198   0.092 -0.4192  0.3099 -0.3420
   36MOL    H96 5766   3.102   1.253   7.121  0.7788 -1.1171 -0.4914
   36MOL    H97 5767   3.051   1.113   7.175  1.6163 -0.4156 -1.1025
   36MOL    C98 5768   3.127   1.368   0.111 -0.5975 -0.5362 -0.5469
   36MOL    C99 5769   3.246   1.293   0.172  0.2908  0.1530 -0.1259
   36MOL   N100 5770   3.366   1.380   0.191 -0.2092 -0.0678 -0.3545
   36MOL   H101 5771   3.168   1.443   0.044 -0.8850  0.9856  0.9238
   36MOL   H102 5772   3.073   1.432   0.182  0.0927  0.4012 -0.8622
   36MOL   H103 5773   3.268   1.205   0.111 -1.3769 -0.6492  0.3838
   36MOL   H104 5774   3.433   1.315   0.231  1.0704  0.4120 -1.6742
   36MOL   H105 5775   3.348   1.448   0.264  0.5810  0.1578 -0.3638
   36MOL   C106 5776   3.223   1.259   0.318  0.9082  0.2788  0.5773
   36MOL   C107 5777   3.104   1.156   0.351  0.1171  0.4996  0.3684
   36MOL   N108 5778   3.127   1.019   0.314 -0.2029  0.0840 -0.0024
   36MOL   H109 5779   3.310   1.216   0.367  0.6197  0.3059  1.1174
   36MOL   H110 5780   3.194   1.356   0.360 -0.2386  0.8641 -1.4918
   36MOL   H111 5781   3.015   1.181   0.292 -0.4832  0.1073  1.1087
   36MOL   H112 5782   3.042   0.974   0.284  0.8331 -1.8127 -0.1985
   36MOL   H113 5783   3.181   1.020   0.229 -1.8003  0.7572 -1.0266
   36MOL   C114 5784   3.044   1.157   0.496  0.3680 -0.0151  0.5567
   36MOL   C115 5785   2.899   1.107   0.508 -0.0737 -0.3199  0.3946
   36MOL   N116 5786   2.867   1.107   0.650  0.2911  0.1294  0.3477
   36MOL   H117 5787   3.113   1.102   0.560  0.0277  0.2902  1.1858
   36MOL   H118 5788   3.047   1.260   0.531  0.8986  0.7602 -1.6602
   36MOL   H119 5789   2.888   1.002   0.479  1.7194 -0.6322  0.7836
   36MOL   H120 5790   2.781   1.060   0.670  0.0681 -0.0208 -0.9307
   36MOL   H121 5791   2.937   1.055   0.701 -1.3206 -2.9296 -0.4309
   36MOL   C122 5792   2.794   1.198   0.441 -0.4892  0.4871 -0.2522
   36MOL   C123 5793   2.650   1.145   0.422 -0.0736  0.5246 -0.7659
   36MOL   N124 5794   2.570   1.247   0.364 -0.3809  0.3294 -0.3629
   36MOL   H125 5795   2.779   1.283   0.508  0.5210  0.4832 -0.0179
   36MOL   H126 5796   2.829   1.239   0.346 -1.0577 -0.7222 -0.9911
   36MOL   H127 5797   2.602   1.129   0.518 -3.8144  1.4703 -2.4012
   36MOL   H128 5798   2.543   1.308   0.440 -0.7937 -0.7267  0.3628
   36MOL   H129 5799   2.482   1.205   0.338  2.3927 -6.1671 -0.1717
   36MOL   C130 5800   2.632   1.022   0.332  0.2174  0.8516 -0.1474
   36MOL   C131 5801   2.524   0.932   0.392 -0.3385  0.4467  0.1835
   36MOL   N132 5802   2.444   0.885   0.283  0.1806  0.1498 -0.0144
   36MOL   H133 5803   2.619   1.045   0.226 -0.9617 -0.3233 -0.2585
   36MOL   H134 5804   2.726   0.968   0.344 -0.9114 -1.0378  0.2970
   36MOL   H135 5805   2.455   0.993   0.451  0.3748  0.4024  1.0710
   36MOL   H136 5806   2.374   0.815   0.304  0.7307 -0.6649 -0.8467
   36MOL   H137 5807   2.486   0.846   0.200 -1.3325  0.5617 -1.0088
   36MOL   C138 5808   2.566   0.814   0.488 -0.2782 -0.4506  0.5210
   36MOL   C139 5809   2.470   0.797   0.610 -0.2798  0.1522  0.4858
   36MOL   N140 5810   2.486   0.664   0.651  0.0532 -0.1714 -0.2776
   36MOL   H141 5811   2.572   0.723   0.428 -0.3719 -0.0653 -0.0795
   36MOL   H142 5812   2.670   0.809   0.519  1.0087  0.8005 -3.3148
   36MOL   H143 5813   2.366   0.805   0.577 -0.5103  1.1144  1.3979
   36MOL   H144 5814   2.453   0.605   0.577  0.5254 -0.8716  0.0554
   36MOL   H145 5815   2.430   0.648   0.734  2.1515  4.9103  2.3671
   36MOL   C146 5816   2.496   0.894   0.730 -0.0045 -0.0734  0.1153
   36MOL   C147 5817   2.364   0.928   0.810 -0.2073  0.5431 -0.2707
   36MOL   N148 5818   2.410   0.995   0.925 -0.0272 -0.5467 -0.6525
   36MOL   H149 5819   2.573   0.851   0.794 -0.9960 -0.5239  1.0123
   36MOL   H150 5820   2.531   0.988   0.687  1.2929 -1.1470 -1.2316
   36MOL   H151 5821   2.317   0.835   0.842  2.5382 -0.6839  0.3584
   36MOL   H152 5822   2.469   0.934   0.979  0.0294  0.7214  0.7502
   36MOL   H153 5823   2.475   1.070   0.906 -0.5963  0.3717  0.9194
   36MOL   C154 5824   2.258   1.012   0.739  0.2373 -0.2641 -0.2582
   36MOL   C155 5825   2.193   0.956   0.612 -0.1148  0.8698 -0.3848
   36MOL   N156 5826   2.081   1.042   0.585  0.5691  0.7732 -0.4974
   36MOL   H157 5827   2.173   1.033   0.803 -0.2858 -0.3921 -0.9042
   36MOL   H158 5828   2.301   1.110   0.716  1.2544 -1.2098 -2.5804
   36MOL   H159 5829   2.150   0.856   0.617 -0.7150  1.0498 -1.7529
   36MOL   H160 5830   2.067   1.004   0.492 -0.3149  1.9525 -0.8483
   36MOL   H161 5831   2.013   1.010   0.651  0.9565 -1.4307 -1.1220
   36MOL   H162 5832   2.261   0.951   0.527  0.9362 -1.1268  0.5266
   37MOL     C1 5833   6.797   0.783   2.238  0.1316  0.2297  0.5235
   37MOL     C2 5834   6.917   0.772   2.149  0.1136  0.5423  0.9650
   37MOL     N3 5835   7.015   0.693   2.221  0.5123  0.7161 -1.3943
   37MOL     H4 5836   6.771   0.689   2.287 -0.3943 -0.6903 -1.4732
   37MOL     H5 5837   6.708   0.809   2.181 -0.8739 -2.0092  1.0102
   37MOL     H6 5838   6.961   0.871   2.138  1.2309  0.0412  0.8244
   37MOL     H7 5839   7.053   0.726   2.309 -1.4461 -0.5491 -0.0328
   37MOL     H8 5840   7.097   0.682   2.164  1.6350 -0.0052  0.3120
   37MOL     H9 5841   6.804   0.854   2.320 -3.0490  1.7284 -0.4623
   37MOL    C10 5842   6.886   0.723   2.005  0.2256  0.1013  0.3713
   37MOL    C11 5843   6.959   0.792   1.891  0.0302  0.5202 -0.6957
   37MOL    N12 5844   6.960   0.711   1.771 -0.3608 -0.0135  0.3557
   37MOL    H13 5845   6.932   0.625   1.988 -3.1377 -1.2694 -1.2506
   37MOL    H14 5846   6.783   0.709   1.973  0.1669  2.8691 -0.7945
   37MOL    H15 5847   7.058   0.821   1.926  0.4992 -0.7154 -0.9851
   37MOL    H16 5848   7.027   0.749   1.706  0.4063 -2.7725 -0.4947
   37MOL    H17 5849   7.008   0.627   1.800 -0.6326 -0.6101 -0.8777
   37MOL    C18 5850   6.901   0.933   1.861 -0.3782  0.0956  0.2052
   37MOL    C19 5851   7.002   1.034   1.806 -1.0224 -0.5409  0.0139
   37MOL    N20 5852   6.931   1.148   1.755  0.1881  0.5035 -0.3889
   37MOL    H21 5853   6.811   0.912   1.802 -1.4995  0.8162  1.6143
   37MOL    H22 5854   6.875   0.974   1.959  0.1428  0.9681 -0.0220
   37MOL    H23 5855   7.066   0.986   1.732  2.6261 -0.8362  3.2400
   37MOL    H24 5856   6.996   1.226   1.754  1.7062 -0.6794  1.8020
   37MOL    H25 5857   6.890   1.129   1.665 -0.7856 -0.1639  0.1862
   37MOL    C26 5858   7.102   1.096   1.908  1.0399  0.1518  0.7569
   37MOL    C27 5859   7.225   1.154   1.830  0.7908 -0.1219 -0.3081
   37MOL    N28 5860   7.222   1.300   1.819 -0.0318 -0.8474 -0.4303
   37MOL    H29 5861   7.054   1.173   1.968  1.1931  0.0827  0.9700
   37MOL    H30 5862   7.138   1.023   1.980  2.5433  1.3041  1.2066
   37MOL    H31 5863   7.225   1.118   1.727  0.0819  1.1770 -0.7741
   37MOL    H32 5864   0.015   1.341   1.758 -1.7687  0.8113 -1.3296
   37MOL    H33 5865   7.246   1.340   1.908 -2.6524  1.2777 -0.5958
   37MOL    C34 5866   0.084   1.105   1.896 -0.5758 -0.0209 -0.5268
   37MOL    C35 5867   0.098   0.952   1.864 -0.1892  0.1810 -0.3563
   37MOL    N36 5868   0.170   0.942   1.731  0.2388  0.7505 -0.3724
   37MOL    H37 5869   0.169   1.166   1.865 -1.3609  0.7944 -1.1104
   37MOL    H38 5870   0.083   1.104   2.005  0.7021 -0.7449 -0.5037
   37MOL    H39 5871   0.003   0.898   1.861  0.7673 -1.7370  1.8642
   37MOL    H40 5872   0.171   0.846   1.699  0.1255 -0.2073  2.3037
   37MOL    H41 5873   0.126   1.000   1.661  1.2731 -0.1510 -1.7879
   37MOL    C42 5874   0.165   0.874   1.977  0.4680  0.8249  0.2761
   37MOL    C43 5875   0.089   0.890   2.118 -0.2717 -0.2660  0.5025
   37MOL    N44 5876   0.039   0.769   2.150 -0.1063  0.1004 -0.0929
   37MOL    H45 5877   0.166   0.768   1.951 -2.8353  0.4911  1.3560
   37MOL    H46 5878   0.270   0.901   1.991  0.8932  0.5620 -2.2466
   37MOL    H47 5879   0.004   0.959   2.121  0.5889  0.7940  0.8455
   37MOL    H48 5880   7.268   0.766   2.240 -0.9367 -0.9325 -0.5541
   37MOL    H49 5881   0.106   0.694   2.161  0.8739  0.8897 -0.6248
   37MOL    C50 5882   0.191   0.925   2.230  0.4284 -0.0713 -0.0510
   37MOL    C51 5883   0.222   1.073   2.251 -0.4790 -0.1997 -0.1889
   37MOL    N52 5884   0.262   1.080   2.390 -0.1505 -0.4288 -0.4708
   37MOL    H53 5885   0.155   0.882   2.324  0.0560 -0.8849 -0.5645
   37MOL    H54 5886   0.276   0.861   2.207  0.1591  0.3666 -2.3475
   37MOL    H55 5887   0.137   1.141   2.245 -1.1346 -0.9978  0.0090
   37MOL    H56 5888   0.194   1.140   2.434 -2.2050 -2.3881 -0.8867
   37MOL    H57 5889   0.274   0.992   2.439  1.4081  0.1690  0.2582
   37MOL    C58 5890   0.337   1.129   2.164 -0.7827 -0.4299  0.1160
   37MOL    C59 5891   0.408   1.266   2.211 -0.1029 -1.0188 -0.0267
   37MOL    N60 5892   0.552   1.255   2.189 -0.0116 -0.4627 -0.7387
   37MOL    H61 5893   0.419   1.058   2.151  2.0157  2.6977 -0.2061
   37MOL    H62 5894   0.310   1.140   2.059  0.2167  0.2486 -0.0852
   37MOL    H63 5895   0.395   1.282   2.318  0.8715  0.6662 -0.1446
   37MOL    H64 5896   0.597   1.316   2.256 -1.8593 -0.6376  0.7003
   37MOL    H65 5897   0.574   1.299   2.100  0.0200  1.1089  0.0304
   37MOL    C66 5898   0.362   1.399   2.136 -0.1097  0.0402 -0.5627
   37MOL    C67 5899   0.245   1.477   2.203 -0.3899 -0.5505 -0.6776
   37MOL    N68 5900   0.300   1.544   2.317  0.1482 -0.3389 -0.4447
   37MOL    H69 5901   0.444   1.466   2.113 -0.9293  0.2055 -3.1917
   37MOL    H70 5902   0.338   1.365   2.035  3.3092  0.1309 -1.4637
   37MOL    H71 5903   0.173   1.403   2.240 -1.5645  0.9337  0.0265
   37MOL    H72 5904   0.221   1.585   2.365  0.1990 -1.4191  0.5775
   37MOL    H73 5905   0.328   1.468   2.377 -0.0447 -0.2876 -0.2891
   37MOL    C74 5906   0.185   1.584   2.109 -0.6087 -0.2872  0.0266
   37MOL    C75 5907   0.078   1.530   2.010  0.2793  0.0280  0.6223
   37MOL    N76 5908   7.222   1.504   2.074  0.6304  0.2020 -1.3281
   37MOL    H77 5909   0.142   1.664   2.169  0.8004  0.7647 -0.3324
   37MOL    H78 5910   0.262   1.625   2.044  0.8007 -2.2861  0.3907
   37MOL    H79 5911   0.111   1.432   1.975  3.3226  1.4474 -0.5895
   37MOL    H80 5912   7.169   1.586   2.099  1.2852  0.3288 -0.3151
   37MOL    H81 5913   7.248   1.464   2.163  2.4956  0.5634 -1.6820
   37MOL    C82 5914   0.047   1.622   1.885 -0.7790  0.1536 -0.3147
   37MOL    C83 5915   0.158   1.627   1.778 -0.3109  0.7108  0.2379
   37MOL    N84 5916   0.180   1.489   1.724 -0.2236 -0.1626  0.3055
   37MOL    H85 5917   7.227   1.597   1.841 -0.6396  0.6567 -0.9138
   37MOL    H86 5918   0.039   1.719   1.934  0.7562 -0.2580  0.8342
   37MOL    H87 5919   0.248   1.671   1.821 -0.8730  0.9250  1.2144
   37MOL    H88 5920   0.215   1.494   1.630 -0.0545 -1.1278  0.3127
   37MOL    H89 5921   0.249   1.445   1.783 -0.0369  1.0942  1.0572
   37MOL    C90 5922   0.131   1.721   1.663  0.1009 -0.6895 -0.1132
   37MOL    C91 5923   0.198   1.864   1.668  0.3498  0.0404  0.1241
   37MOL    N92 5924   0.171   1.927   1.537 -0.1628  0.4259 -0.1428
   37MOL    H93 5925   0.162   1.672   1.571 -0.1453 -1.2001  0.0790
   37MOL    H94 5926   0.027   1.748   1.647  1.1726  1.7000 -3.7752
   37MOL    H95 5927   0.306   1.856   1.676  0.2868  0.0460  0.9457
   37MOL    H96 5928   0.193   2.025   1.550  1.5475  0.1214 -0.5752
   37MOL    H97 5929   0.238   1.899   1.467 -1.6782  0.1707 -1.4925
   37MOL    C98 5930   0.148   1.957   1.782  0.0187  0.6046  0.2103
   37MOL    C99 5931   0.225   2.089   1.800 -0.0925  0.6376  0.1606
   37MOL   N100 5932   0.171   2.193   1.727  0.1062 -0.6741 -0.0381
   37MOL   H101 5933   0.043   1.986   1.790 -0.1836 -0.1615  0.3833
   37MOL   H102 5934   0.165   1.892   1.868  1.1206  0.1643 -0.3388
   37MOL   H103 5935   0.323   2.066   1.759 -1.6769 -0.9959 -2.9495
   37MOL   H104 5936   0.105   2.239   1.788 -0.7100  0.4240 -1.6974
   37MOL   H105 5937   0.238   2.267   1.715 -3.2463  2.5493  0.2217
   37MOL   C106 5938   0.253   2.126   1.947 -0.0891  0.4181  0.3934
   37MOL   C107 5939   0.390   2.081   2.010 -0.4374 -0.6173  0.2765
   37MOL   N108 5940   0.418   2.158   2.128  0.4230 -0.5613  0.3514
   37MOL   H109 5941   0.248   2.235   1.958 -0.9198  0.6990 -2.2190
   37MOL   H110 5942   0.174   2.080   2.006 -2.0272 -0.7863 -2.9717
   37MOL   H111 5943   0.459   2.115   1.933 -1.2707 -0.2380 -0.3149
   37MOL   H112 5944   0.450   2.252   2.112 -0.5364 -0.5863 -1.8386
   37MOL   H113 5945   0.335   2.159   2.185  1.0202  1.8368  1.2659
   37MOL   C114 5946   0.405   1.935   2.035 -0.1284 -0.2764 -0.1124
   37MOL   C115 5947   0.546   1.891   2.066 -1.5066  0.2091  0.2488
   37MOL   N116 5948   0.558   1.757   2.104 -0.2678 -0.1684  0.0257
   37MOL   H117 5949   0.336   1.919   2.118  0.8553 -1.7299  0.4397
   37MOL   H118 5950   0.369   1.884   1.945 -0.2514 -0.1658 -0.1264
   37MOL   H119 5951   0.576   1.958   2.146  2.7489  0.0706 -1.1214
   37MOL   H120 5952   0.652   1.742   2.137 -0.5636 -1.0464  0.4837
   37MOL   H121 5953   0.505   1.735   2.187 -0.9317 -1.6719 -0.7711
   37MOL   C122 5954   0.641   1.891   1.944 -0.4036 -0.2319  0.0313
   37MOL   C123 5955   0.777   1.960   1.957  0.1500 -0.1077  0.3259
   37MOL   N124 5956   0.850   1.936   1.834  0.2946  0.6092 -0.2639
   37MOL   H125 5957   0.658   1.795   1.895 -0.7895 -0.5047  0.4390
   37MOL   H126 5958   0.583   1.933   1.862 -1.9630 -2.1399  0.1297
   37MOL   H127 5959   0.834   1.915   2.039 -0.7014  0.3191  1.1634
   37MOL   H128 5960   0.892   1.846   1.852  0.4915  0.8744  0.6030
   37MOL   H129 5961   0.769   1.922   1.775 -0.1262  1.0806  0.2049
   37MOL   C130 5962   0.774   2.113   1.979  0.0905 -0.2124  0.1797
   37MOL   C131 5963   0.914   2.171   2.014 -0.1225  0.4784  1.0584
   37MOL   N132 5964   0.902   2.318   2.016  0.0483  0.3627  0.3323
   37MOL   H133 5965   0.727   2.161   1.893  0.1921 -2.1224 -0.9747
   37MOL   H134 5966   0.709   2.142   2.062  0.0099 -1.5034  0.5770
   37MOL   H135 5967   0.987   2.153   1.935 -0.5618 -2.1340  1.1921
   37MOL   H136 5968   0.989   2.364   1.991 -0.4076  0.7602 -0.5509
   37MOL   H137 5969   0.859   2.336   1.926 -0.0973  1.3428  0.5999
   37MOL   C138 5970   0.965   2.125   2.153  0.9333  0.0762 -0.3544
   37MOL   C139 5971   1.101   2.175   2.207 -0.0970 -0.4723 -0.2886
   37MOL   N140 5972   1.095   2.172   2.354  0.2379 -0.5777 -0.2960
   37MOL   H141 5973   0.890   2.155   2.227  1.6595  1.6233 -0.2295
   37MOL   H142 5974   0.970   2.016   2.157 -3.8124 -0.2030  1.0195
   37MOL   H143 5975   1.124   2.278   2.180 -2.0071 -0.3207 -1.4242
   37MOL   H144 5976   1.065   2.077   2.375 -0.6224 -0.4277 -0.8135
   37MOL   H145 5977   1.010   2.217   2.385  1.7935  2.6029 -0.4903
   37MOL   C146 5978   1.220   2.098   2.150  0.3352 -0.5511  0.0716
   37MOL   C147 5979   1.343   2.189   2.142 -0.2274 -0.1885  0.4422
   37MOL   N148 5980   1.453   2.088   2.137  0.4546 -0.1349 -0.2353
   37MOL   H149 5981   1.229   2.010   2.215  1.6609  0.0942  0.7614
   37MOL   H150 5982   1.186   2.057   2.055 -0.9421 -1.9476  1.0906
   37MOL   H151 5983   1.350   2.253   2.230  1.0668 -0.6588  0.6887
   37MOL   H152 5984   1.540   2.140   2.134 -0.2932  1.1821  0.2518
   37MOL   H153 5985   1.453   2.059   2.234 -0.2843  1.5188  0.2862
   37MOL   C154 5986   1.364   2.270   2.012  0.6545 -0.1104 -0.8359
   37MOL   C155 5987   1.316   2.414   2.036 -0.1300 -0.3796 -0.0540
   37MOL   N156 5988   1.328   2.485   1.911 -0.7634  0.3595  0.1197
   37MOL   H157 5989   1.464   2.266   1.968 -0.3201 -0.7568 -3.0705
   37MOL   H158 5990   1.298   2.222   1.939 -0.7965 -1.6221  1.4005
   37MOL   H159 5991   1.369   2.466   2.116 -0.8267 -1.5913  1.2153
   37MOL   H160 5992   1.412   2.542   1.916 -0.6711  0.2660 -0.3181
   37MOL   H161 5993   1.255   2.554   1.911 -0.8716  0.2526 -0.7493
   37MOL   H162 5994   1.210   2.413   2.059  0.1012  2.8193  1.3765
   38MOL     C1 5995   2.092   3.027   2.720  0.0703 -0.3337 -0.4319
   38MOL     C2 5996   2.064   2.910   2.817  0.3257  0.0245 -0.3827
   38MOL     N3 5997   2.107   2.952   2.948 -0.6922 -0.9124 -0.2886
   38MOL     H4 5998   2.056   3.124   2.753 -0.2717 -0.4385 -0.4999
   38MOL     H5 5999   2.035   3.001   2.630  0.6810  1.1210 -1.2591
   38MOL     H6 6000   2.123   2.821   2.796 -0.8184 -0.7279 -0.4701
   38MOL     H7 6001   2.203   2.980   2.960 -0.8099 -0.3243 -0.7169
   38MOL     H8 6002   2.067   2.901   3.026 -2.0602  0.3454 -0.1335
   38MOL     H9 6003   2.198   3.050   2.705  0.2296  0.2411  1.4830
   38MOL    C10 6004   1.920   2.862   2.832  0.0835  0.5769 -0.1400
   38MOL    C11 6005   1.863   2.803   2.704  0.3530 -0.5320  0.0314
   38MOL    N12 6006   1.957   2.703   2.649 -0.0032 -0.4680  0.7835
   38MOL    H13 6007   1.908   2.787   2.910 -0.5897  0.5576 -0.2607
   38MOL    H14 6008   1.859   2.945   2.868 -2.0756 -1.4971  1.0996
   38MOL    H15 6009   1.858   2.883   2.631  1.6437  0.4164  0.9495
   38MOL    H16 6010   1.999   2.656   2.728  1.5784 -0.7285 -0.1872
   38MOL    H17 6011   1.917   2.625   2.599 -1.4300  0.9632 -0.3243
   38MOL    C18 6012   1.724   2.749   2.731 -0.0973  0.0333 -0.5615
   38MOL    C19 6013   1.615   2.850   2.760 -0.0076  0.1477 -0.1629
   38MOL    N20 6014   1.579   2.904   2.630  0.2515 -0.5895 -0.1618
   38MOL    H21 6015   1.691   2.687   2.647  1.1883 -2.1333  0.4808
   38MOL    H22 6016   1.734   2.681   2.816 -1.4721  0.8280  0.2468
   38MOL    H23 6017   1.644   2.931   2.827  0.0024  0.6847 -0.8090
   38MOL    H24 6018   1.597   2.830   2.564 -1.9419 -0.8214 -0.5639
   38MOL    H25 6019   1.629   2.986   2.602  1.7322 -0.8099  1.7125
   38MOL    C26 6020   1.482   2.797   2.826 -0.0673 -0.6679 -0.5284
   38MOL    C27 6021   1.512   2.736   2.968  0.8292 -1.1788  0.3798
   38MOL    N28 6022   1.526   2.850   3.055 -0.8621  0.2223 -0.4107
   38MOL    H29 6023   1.409   2.876   2.840  0.3552 -0.4493  0.5480
   38MOL    H30 6024   1.453   2.721   2.754 -0.9194  1.2062 -2.2001
   38MOL    H31 6025   1.608   2.684   2.968  1.8811  0.6934 -1.9420
   38MOL    H32 6026   1.431   2.883   3.068 -2.1140 -3.3493  0.1547
   38MOL    H33 6027   1.549   2.930   2.997 -0.6298  0.9157  0.6249
   38MOL    C34 6028   1.398   2.650   3.025 -0.1450 -0.3373  0.4432
   38MOL    C35 6029   1.389   2.514   2.946  0.2576  0.5431  0.1768
   38MOL    N36 6030   1.366   2.407   3.041  0.0448 -0.0584 -0.6414
   38MOL    H37 6031   1.427   2.632   3.129  1.9156 -1.5799 -0.3059
   38MOL    H38 6032   1.304   2.704   3.032 -0.4678 -0.5251 -2.0199
   38MOL    H39 6033   1.483   2.499   2.892 -0.0185 -0.2774 -0.0798
   38MOL    H40 6034   1.449   2.403   3.098 -0.1923 -0.6931 -0.3352
   38MOL    H41 6035   1.370   2.321   2.988  1.8016 -1.7952  2.1291
   38MOL    C42 6036   1.277   2.505   2.843 -0.4730 -1.1802  0.1393
   38MOL    C43 6037   1.289   2.411   2.723  0.9582  0.0562  0.1421
   38MOL    N44 6038   1.166   2.440   2.644 -0.2330 -0.7257  0.2320
   38MOL    H45 6039   1.189   2.481   2.901  0.6897 -2.2256  1.4984
   38MOL    H46 6040   1.262   2.609   2.814  2.4386 -0.3251  1.4490
   38MOL    H47 6041   1.294   2.307   2.757  1.4059 -0.9505 -2.8007
   38MOL    H48 6042   1.160   2.403   2.550  0.4153  0.6319 -0.3543
   38MOL    H49 6043   1.084   2.413   2.696 -0.5821 -2.3868 -1.1244
   38MOL    C50 6044   1.414   2.428   2.639 -0.1823 -0.1966  0.2008
   38MOL    C51 6045   1.441   2.327   2.519  0.1774 -0.0432  0.3016
   38MOL    N52 6046   1.520   2.399   2.416  0.2337 -0.1973 -0.4477
   38MOL    H53 6047   1.408   2.531   2.606 -1.5967 -0.0819  0.7508
   38MOL    H54 6048   1.505   2.429   2.698  1.1003 -0.1403 -1.7492
   38MOL    H55 6049   1.346   2.299   2.473 -0.7484 -0.8907  2.6471
   38MOL    H56 6050   1.519   2.342   2.333 -0.5957 -1.2269  0.2661
   38MOL    H57 6051   1.484   2.491   2.395 -1.2835 -0.0499  2.5517
   38MOL    C58 6052   1.528   2.203   2.550  0.4454  0.0678 -0.0097
   38MOL    C59 6053   1.440   2.087   2.602 -0.2826  0.2009  0.4099
   38MOL    N60 6054   1.365   2.033   2.486 -0.2969  0.6170 -0.1962
   38MOL    H61 6055   1.570   2.173   2.454 -1.7362 -0.0914 -0.9519
   38MOL    H62 6056   1.607   2.217   2.624  0.1640 -0.1335  0.3288
   38MOL    H63 6057   1.371   2.122   2.678 -1.6642  0.8124 -1.0992
   38MOL    H64 6058   1.286   1.981   2.522 -0.0562  1.9273  2.3441
   38MOL    H65 6059   1.325   2.112   2.437 -0.1627  1.5644  1.2029
   38MOL    C66 6060   1.537   1.980   2.657  0.3387  1.1325  0.2626
   38MOL    C67 6061   1.515   1.938   2.803  1.4884 -0.4873  0.6655
   38MOL    N68 6062   1.555   1.798   2.808 -0.3030 -0.4016  0.3271
   38MOL    H69 6063   1.498   1.893   2.604  1.6367 -0.3046  1.6467
   38MOL    H70 6064   1.641   1.991   2.626  0.6508  1.0356  1.2650
   38MOL    H71 6065   1.410   1.956   2.829  1.4645  2.8352 -1.4359
   38MOL    H72 6066   1.645   1.783   2.766  0.3173 -0.6896  1.7263
   38MOL    H73 6067   1.558   1.755   2.899  0.6910 -1.1309 -0.0469
   38MOL    C74 6068   1.597   2.029   2.895 -0.3703  0.2572 -0.1633
   38MOL    C75 6069   1.572   2.008   3.045 -0.3297  0.0097 -0.0800
   38MOL    N76 6070   1.683   2.069   3.117  0.7535 -0.0576 -0.5023
   38MOL    H77 6071   1.702   2.009   2.874 -0.3615  1.6898 -1.5422
   38MOL    H78 6072   1.593   2.134   2.867  0.7315  0.2014 -0.5677
   38MOL    H79 6073   1.590   1.903   3.066  1.2510  0.4335  0.8111
   38MOL    H80 6074   1.770   2.025   3.090  1.1607 -0.0589  0.7900
   38MOL    H81 6075   1.676   2.028   3.209 -3.0636 -1.1214 -1.1457
   38MOL    C82 6076   1.432   2.055   3.102  0.3076  0.3661 -0.1498
   38MOL    C83 6077   1.364   1.957   3.197  0.1628 -0.1185 -0.4812
   38MOL    N84 6078   1.240   2.024   3.238  0.0664  0.4719 -0.1743
   38MOL    H85 6079   1.438   2.146   3.161  2.1084 -1.3077  2.3637
   38MOL    H86 6080   1.363   2.069   3.018 -0.0582 -0.4618  0.0078
   38MOL    H87 6081   1.422   1.935   3.286 -1.8135 -0.6511  0.6998
   38MOL    H88 6082   1.185   1.972   3.305 -1.2915  1.6063 -0.3595
   38MOL    H89 6083   1.265   2.113   3.278  0.4537 -1.2062  3.4588
   38MOL    C90 6084   1.322   1.834   3.115 -0.6392  0.5135 -0.0286
   38MOL    C91 6085   1.335   1.704   3.193  0.2583 -0.1348  0.0266
   38MOL    N92 6086   1.271   1.601   3.113  0.3671  0.2395 -0.0925
   38MOL    H93 6087   1.219   1.845   3.080 -1.0117 -1.4861  0.3845
   38MOL    H94 6088   1.379   1.828   3.022  0.9292  2.4928  0.7566
   38MOL    H95 6089   1.285   1.708   3.289 -1.9390 -0.6350 -1.0596
   38MOL    H96 6090   1.328   1.582   3.031  0.8145 -0.5703  0.4033
   38MOL    H97 6091   1.253   1.520   3.170  0.2257  0.4915  0.2232
   38MOL    C98 6092   1.486   1.656   3.222 -0.7893 -0.5273 -0.2258
   38MOL    C99 6093   1.506   1.550   3.330 -0.6022  0.1229 -0.2952
   38MOL   N100 6094   1.648   1.518   3.323 -0.5604 -0.1593  0.3346
   38MOL   H101 6095   1.533   1.624   3.129 -1.3338 -2.2850  0.0918
   38MOL   H102 6096   1.552   1.738   3.249 -2.5005  0.2760  1.6376
   38MOL   H103 6097   1.453   1.464   3.288  0.0205  0.0742 -1.0102
   38MOL   H104 6098   1.662   1.521   3.223 -1.2774 -0.8082  0.2137
   38MOL   H105 6099   1.663   1.420   3.342 -0.7999 -0.4822 -1.0703
   38MOL   C106 6100   1.479   1.578   3.480  0.7410  0.1526  0.2473
   38MOL   C107 6101   1.337   1.569   3.529 -0.4671 -0.4737  0.6007
   38MOL   N108 6102   1.296   1.434   3.545  0.5263  0.1155  0.2863
   38MOL   H109 6103   1.534   1.519   3.554 -2.6890  0.8202  3.4808
   38MOL   H110 6104   1.520   1.678   3.498 -1.0068  0.7045  1.2593
   38MOL   H111 6105   1.268   1.614   3.457  0.6142  0.8831  0.3846
   38MOL   H112 6106   1.296   1.415   3.644 -2.9958 -0.3597  0.2611
   38MOL   H113 6107   1.366   1.369   3.512  0.9254 -0.2229  1.7503
   38MOL   C114 6108   1.313   1.649   3.663  0.9098  0.3099 -0.2767
   38MOL   C115 6109   1.169   1.703   3.683  0.2507 -0.5378 -1.0397
   38MOL   N116 6110   1.146   1.727   3.824  0.1779  0.0558  0.1886
   38MOL   H117 6111   1.340   1.584   3.746 -2.9530  0.1377  0.9640
   38MOL   H118 6112   1.373   1.739   3.654  1.3863 -0.0692 -0.9403
   38MOL   H119 6113   1.093   1.630   3.657 -1.2616 -0.5299  2.9649
   38MOL   H120 6114   1.049   1.749   3.835  0.9071  3.1211  0.8961
   38MOL   H121 6115   1.169   1.643   3.876  0.0834 -1.5904 -2.2899
   38MOL   C122 6116   1.152   1.834   3.605 -0.1611  0.3583  0.0433
   38MOL   C123 6117   1.002   1.855   3.573  0.2889 -0.3790 -0.1335
   38MOL   N124 6118   0.965   1.998   3.564  1.4287  0.0380  0.3436
   38MOL   H125 6119   1.195   1.916   3.662  2.0551 -1.0784  0.4979
   38MOL   H126 6120   1.208   1.819   3.513 -2.7195 -1.6188 -1.2606
   38MOL   H127 6121   0.940   1.826   3.658 -0.7492  1.5300 -0.1920
   38MOL   H128 6122   0.865   2.008   3.576  1.0616 -0.7597 -1.8565
   38MOL   H129 6123   0.988   2.051   3.481  1.3716  0.5289  0.6395
   38MOL   C130 6124   0.951   1.779   3.455  0.0545 -0.3378 -0.1451
   38MOL   C131 6125   0.793   1.776   3.435  0.3236 -0.1600 -0.8942
   38MOL   N132 6126   0.771   1.690   3.325 -0.5188  0.2114  0.5026
   38MOL   H133 6127   0.993   1.823   3.364 -1.2989 -1.0839 -1.1533
   38MOL   H134 6128   0.986   1.676   3.458 -2.7141 -1.2733  3.5691
   38MOL   H135 6129   0.764   1.875   3.399  0.6249  0.5363  0.7244
   38MOL   H136 6130   0.675   1.666   3.305 -1.1571  1.9497  1.3752
   38MOL   H137 6131   0.817   1.713   3.238  2.2367  0.2784  1.9106
   38MOL   C138 6132   0.710   1.711   3.546 -0.0282  0.4221 -0.0247
   38MOL   C139 6133   0.675   1.802   3.660  0.0415  1.0383 -0.5258
   38MOL   N140 6134   0.548   1.861   3.623 -0.4681  1.2162 -0.1149
   38MOL   H141 6135   0.617   1.675   3.503 -0.1376  1.4118 -0.6318
   38MOL   H142 6136   0.767   1.626   3.583 -1.1749 -0.2027  0.3277
   38MOL   H143 6137   0.750   1.879   3.681  2.2263 -1.1429 -0.0774
   38MOL   H144 6138   0.551   1.907   3.534 -2.1469  0.8226 -0.3934
   38MOL   H145 6139   0.537   1.937   3.689 -0.7136  3.8004 -3.0098
   38MOL   C146 6140   0.656   1.716   3.796 -0.2173 -0.0398 -0.3148
   38MOL   C147 6141   0.776   1.652   3.866  0.6850  0.6182 -0.0225
   38MOL   N148 6142   0.821   1.733   3.976  0.8701 -0.1384 -0.3192
   38MOL   H149 6143   0.608   1.772   3.877  1.0609  1.3745 -0.5247
   38MOL   H150 6144   0.593   1.633   3.765  1.3799 -1.8378  1.1136
   38MOL   H151 6145   0.861   1.661   3.798  0.4080 -3.2586 -0.9685
   38MOL   H152 6146   0.896   1.688   4.027  0.9229  0.2410 -0.0577
   38MOL   H153 6147   0.849   1.821   3.934  0.0416 -0.4211 -1.5075
   38MOL   C154 6148   0.748   1.509   3.907 -1.0484  0.0474 -0.0914
   38MOL   C155 6149   0.771   1.398   3.801 -0.2562 -0.1795  0.4675
   38MOL   N156 6150   0.778   1.269   3.867  0.0394 -0.8151 -0.1408
   38MOL   H157 6151   0.823   1.479   3.979  0.1327  2.5105 -0.2531
   38MOL   H158 6152   0.655   1.496   3.963  1.1212 -2.3888  3.1670
   38MOL   H159 6153   0.862   1.417   3.743  0.3466 -2.0822  0.7430
   38MOL   H160 6154   0.770   1.201   3.793 -0.6054 -0.5129 -0.3553
   38MOL   H161 6155   0.689   1.256   3.913  0.9145 -1.1084  1.5134
   38MOL   H162 6156   0.699   1.397   3.719 -0.1678  0.2007  0.3831
   39MOL     C1 6157   7.266   4.643   1.678 -0.4774  0.3403  0.6534
   39MOL     C2 6158   7.117   4.652   1.655  0.4860 -0.1897 -0.1638
   39MOL     N3 6159   7.084   4.596   1.523  0.2489  0.6159  0.5205
   39MOL     H4 6160   0.031   4.698   1.764  1.2238  1.8716 -1.0730
   39MOL     H5 6161   0.044   4.687   1.594 -0.4012 -0.6036  0.1967
   39MOL     H6 6162   7.081   4.754   1.650  0.4716 -0.2411 -1.1986
   39MOL     H7 6163   7.167   4.567   1.474  0.6496 -0.2435  1.6951
   39MOL     H8 6164   7.033   4.510   1.523  0.9658  0.1858  0.7773
   39MOL     H9 6165   0.033   4.543   1.687 -1.4963 -0.2396 -0.8432
   39MOL    C10 6166   7.036   4.582   1.758  1.1288  1.0063  0.8967
   39MOL    C11 6167   7.012   4.664   1.887  0.1563 -0.0026 -0.2977
   39MOL    N12 6168   6.901   4.753   1.883  0.4811 -0.0188  0.7839
   39MOL    H13 6169   6.939   4.565   1.711  0.7947  1.7230  1.3108
   39MOL    H14 6170   7.077   4.485   1.787 -0.6761  0.3891  1.4593
   39MOL    H15 6171   7.088   4.740   1.904 -0.5459  0.6649 -0.0866
   39MOL    H16 6172   6.926   4.809   1.964 -0.4216  0.3247  0.8278
   39MOL    H17 6173   6.913   4.811   1.801 -1.9641  0.7097  0.9103
   39MOL    C18 6174   6.987   4.572   2.008  0.5775 -0.3594 -0.1137
   39MOL    C19 6175   7.124   4.505   2.060  0.1921 -0.1962  0.3823
   39MOL    N20 6176   7.204   4.610   2.118 -0.0490  0.2121  0.1428
   39MOL    H21 6177   6.945   4.630   2.090  1.2863  0.1422 -0.1003
   39MOL    H22 6178   6.913   4.498   1.977  3.4141 -2.1116 -3.0765
   39MOL    H23 6179   7.185   4.479   1.974 -1.1052 -0.8899 -0.3349
   39MOL    H24 6180   7.203   4.689   2.056 -0.8298 -1.5908 -2.2145
   39MOL    H25 6181   0.019   4.570   2.095  0.1676  1.4760 -1.2821
   39MOL    C26 6182   7.097   4.396   2.164 -0.5418  0.5756 -0.4620
   39MOL    C27 6183   7.026   4.259   2.115  0.0863  1.3536 -0.5181
   39MOL    N28 6184   7.137   4.180   2.052 -0.4013 -0.1635  0.1961
   39MOL    H29 6185   7.194   4.361   2.197 -1.1522 -2.0316 -1.2373
   39MOL    H30 6186   7.049   4.434   2.254 -2.2829 -0.5219 -0.8855
   39MOL    H31 6187   6.946   4.273   2.043 -1.0077  0.0637  0.4303
   39MOL    H32 6188   7.174   4.211   1.963  0.1055  0.6592  0.6974
   39MOL    H33 6189   7.220   4.178   2.109  0.8804  1.8433 -1.5402
   39MOL    C34 6190   6.969   4.179   2.233 -0.2827  0.5775 -0.1504
   39MOL    C35 6191   6.815   4.191   2.256 -0.2906  0.2170  0.2251
   39MOL    N36 6192   6.767   4.113   2.365 -0.1657  0.5533 -0.3427
   39MOL    H37 6193   6.998   4.073   2.234  0.3073  0.7341  1.7709
   39MOL    H38 6194   7.025   4.208   2.322 -0.1812  2.2550 -0.7465
   39MOL    H39 6195   6.774   4.139   2.169  0.6629 -0.4147  0.1473
   39MOL    H40 6196   6.670   4.114   2.391 -0.9349  1.2087 -3.1406
   39MOL    H41 6197   6.809   4.150   2.450 -2.7781  0.8670  0.8494
   39MOL    C42 6198   6.766   4.331   2.291 -0.2990  0.0277 -0.1773
   39MOL    C43 6199   6.607   4.342   2.283  0.5027 -0.1743 -0.7691
   39MOL    N44 6200   6.552   4.474   2.326  0.2685  0.1409  0.4515
   39MOL    H45 6201   6.789   4.365   2.391 -1.5215 -1.2868  0.5682
   39MOL    H46 6202   6.811   4.411   2.231  0.3854 -0.6494 -0.5778
   39MOL    H47 6203   6.565   4.269   2.351 -3.5357  2.1394 -0.6800
   39MOL    H48 6204   6.560   4.467   2.426  0.7526  1.3979  0.5072
   39MOL    H49 6205   6.455   4.483   2.299  1.0001  0.1915 -2.3227
   39MOL    C50 6206   6.548   4.314   2.139 -0.6519 -0.3298  0.4779
   39MOL    C51 6207   6.397   4.312   2.118  0.0796 -0.5301  0.3652
   39MOL    N52 6208   6.340   4.451   2.138 -0.0732  0.0440 -1.1764
   39MOL    H53 6209   6.597   4.388   2.076 -0.8866 -0.7017 -0.1519
   39MOL    H54 6210   6.585   4.216   2.109 -2.9394 -1.1665  0.2882
   39MOL    H55 6211   6.357   4.247   2.196 -0.6972  1.7528  1.9342
   39MOL    H56 6212   6.408   4.515   2.101  0.1525  0.1859 -0.5179
   39MOL    H57 6213   6.262   4.461   2.075  0.5378 -0.2592 -1.9899
   39MOL    C58 6214   6.359   4.256   1.983  0.4131  0.3198  0.8144
   39MOL    C59 6215   6.356   4.097   1.991 -0.1683 -0.2289  0.5825
   39MOL    N60 6216   6.228   4.057   2.050 -0.0424 -0.5877  0.0770
   39MOL    H61 6217   6.257   4.292   1.967  0.0424 -0.6809  0.9165
   39MOL    H62 6218   6.408   4.307   1.900 -2.5769  0.6130 -0.8818
   39MOL    H63 6219   6.428   4.064   2.067 -0.2653  1.8110  1.5878
   39MOL    H64 6220   6.200   4.108   2.132  0.7455  0.9301 -0.5813
   39MOL    H65 6221   6.234   3.960   2.077  2.5667  0.6655  4.4760
   39MOL    C66 6222   6.380   4.036   1.857  0.9822  0.1768  0.2433
   39MOL    C67 6223   6.530   4.038   1.818 -0.4904  0.0538  0.6033
   39MOL    N68 6224   6.586   3.913   1.872 -0.7217  0.4063  0.1505
   39MOL    H69 6225   6.336   3.936   1.854 -0.6309  0.8516  0.6469
   39MOL    H70 6226   6.330   4.089   1.775  1.2943  0.0410 -0.0374
   39MOL    H71 6227   6.581   4.107   1.885  2.2289  1.2601 -2.6068
   39MOL    H72 6228   6.683   3.912   1.846 -1.0977  1.3359 -1.3765
   39MOL    H73 6229   6.583   3.910   1.973  0.4827  1.5530  0.2403
   39MOL    C74 6230   6.569   4.066   1.672 -0.2815  0.3049  0.1108
   39MOL    C75 6231   6.579   4.210   1.626  0.1440  0.1633 -0.5118
   39MOL    N76 6232   6.706   4.269   1.666  0.3343 -0.3927 -0.1032
   39MOL    H77 6233   6.665   4.022   1.644  0.9847  3.1722 -0.2562
   39MOL    H78 6234   6.489   4.027   1.609 -1.1747  0.4539  1.1303
   39MOL    H79 6235   6.495   4.274   1.655  0.5165 -0.5666  2.3715
   39MOL    H80 6236   6.714   4.246   1.764  0.8507 -3.9261 -0.9225
   39MOL    H81 6237   6.695   4.368   1.684 -1.7050 -0.8951  1.6579
   39MOL    C82 6238   6.579   4.219   1.472 -0.2234  0.2564  0.2328
   39MOL    C83 6239   6.452   4.283   1.408 -0.3589  0.0005 -0.4675
   39MOL    N84 6240   6.479   4.310   1.265 -0.4292  0.0096  0.0732
   39MOL    H85 6241   6.670   4.265   1.433 -1.6891  0.0789 -3.5340
   39MOL    H86 6242   6.590   4.115   1.443  1.7026 -0.4345  3.2026
   39MOL    H87 6243   6.423   4.381   1.447  2.9743  1.1338 -0.6672
   39MOL    H88 6244   6.517   4.244   1.198 -0.1574  0.1992  0.0418
   39MOL    H89 6245   6.535   4.393   1.255  0.9504 -0.8647  0.3513
   39MOL    C90 6246   6.323   4.196   1.431  0.5222 -0.0899  0.1207
   39MOL    C91 6247   6.189   4.264   1.372 -0.8724  0.3809 -0.5022
   39MOL    N92 6248   6.190   4.224   1.238  0.4961  0.1256  0.3937
   39MOL    H93 6249   6.340   4.097   1.389 -2.6451 -0.5381 -0.2547
   39MOL    H94 6250   6.307   4.173   1.536  0.0842  0.9636  0.2936
   39MOL    H95 6251   6.208   4.372   1.375 -0.7060  0.3142  1.3323
   39MOL    H96 6252   6.287   4.235   1.214  0.1928 -0.7400 -1.3401
   39MOL    H97 6253   6.184   4.123   1.237 -1.9918  0.2454 -1.3974
   39MOL    C98 6254   6.064   4.229   1.447 -0.0124 -0.0377 -0.4637
   39MOL    C99 6255   6.035   4.311   1.570 -0.0749  0.7330 -0.1366
   39MOL   N100 6256   5.991   4.448   1.548 -0.7141  0.3939 -0.0250
   39MOL   H101 6257   5.974   4.237   1.385  0.4408  0.7742 -1.0235
   39MOL   H102 6258   6.061   4.122   1.470  0.7484 -0.1056 -0.6721
   39MOL   H103 6259   6.129   4.319   1.625  0.6821 -1.5690 -1.0711
   39MOL   H104 6260   5.914   4.452   1.483 -0.9882 -0.0496  0.2698
   39MOL   H105 6261   5.965   4.493   1.635  0.4995 -1.0800  1.1140
   39MOL   C106 6262   5.925   4.238   1.654 -0.4306 -0.5956 -0.6949
   39MOL   C107 6263   5.978   4.143   1.769  0.2667 -0.5121  0.7571
   39MOL   N108 6264   6.031   4.225   1.880 -0.4402 -0.1587 -0.1062
   39MOL   H109 6265   5.858   4.307   1.705  0.1820  0.3185 -1.1137
   39MOL   H110 6266   5.852   4.189   1.590 -1.1987  0.7695 -0.8675
   39MOL   H111 6267   6.054   4.083   1.719 -1.3094 -1.0287 -1.1035
   39MOL   H112 6268   6.092   4.299   1.849 -1.1911  0.7171  0.4508
   39MOL   H113 6269   6.089   4.163   1.934  0.2704  0.3415 -0.2952
   39MOL   C114 6270   5.862   4.057   1.820  0.0634 -0.0720 -0.3137
   39MOL   C115 6271   5.914   3.924   1.889 -0.1516 -0.5414  0.3083
   39MOL   N116 6272   5.802   3.857   1.947  0.0691 -0.5682 -0.3526
   39MOL   H117 6273   5.804   4.116   1.892 -1.3512  0.1970 -1.6545
   39MOL   H118 6274   5.799   4.031   1.736  0.3124 -0.1613 -0.4726
   39MOL   H119 6275   5.983   3.939   1.973 -0.1589 -3.3731  0.8715
   39MOL   H120 6276   5.779   3.910   2.030 -0.5792 -3.5706  1.4438
   39MOL   H121 6277   5.724   3.868   1.884 -0.0883  0.7323  0.0594
   39MOL   C122 6278   5.978   3.817   1.795 -0.1712  0.7906 -0.1741
   39MOL   C123 6279   6.058   3.703   1.874  0.5711 -0.2573 -0.2170
   39MOL   N124 6280   5.960   3.607   1.924  0.3401 -0.4400 -0.1353
   39MOL   H125 6281   5.904   3.767   1.733 -1.5046  0.6475  1.4900
   39MOL   H126 6282   6.051   3.877   1.739 -1.5221  3.3317  0.6908
   39MOL   H127 6283   6.113   3.761   1.947  0.7074 -0.6566  0.0007
   39MOL   H128 6284   5.884   3.670   1.948  0.1534 -0.9414  0.6118
   39MOL   H129 6285   6.003   3.587   2.013  1.2750 -4.1453 -1.3564
   39MOL   C130 6286   6.162   3.622   1.789 -0.8563  0.1895 -0.5214
   39MOL   C131 6287   6.279   3.691   1.723 -0.0363  0.7520  0.4978
   39MOL   N132 6288   6.391   3.687   1.822 -1.0396  0.4171 -0.7312
   39MOL   H133 6289   6.201   3.542   1.853 -0.4503 -0.2326 -1.2886
   39MOL   H134 6290   6.103   3.566   1.717 -1.1385 -1.7065  1.1419
   39MOL   H135 6291   6.249   3.791   1.693  0.6808  1.7516  2.9781
   39MOL   H136 6292   6.459   3.762   1.820  1.0127 -1.3956 -0.1515
   39MOL   H137 6293   6.348   3.700   1.913 -0.6903  0.9937 -0.6463
   39MOL   C138 6294   6.318   3.623   1.586 -0.0644  0.1150  0.1271
   39MOL   C139 6295   6.229   3.643   1.466  0.2714 -0.0726  0.3666
   39MOL   N140 6296   6.230   3.784   1.438 -0.5468  0.4718  0.5925
   39MOL   H141 6297   6.421   3.649   1.563  0.3183 -0.9598  0.5566
   39MOL   H142 6298   6.323   3.514   1.595  0.9918  0.2533  1.3609
   39MOL   H143 6299   6.126   3.612   1.482  0.4865 -0.5323  0.8636
   39MOL   H144 6300   6.152   3.799   1.377 -0.1690  0.9148  0.2110
   39MOL   H145 6301   6.209   3.824   1.528 -0.5210 -0.9165  1.2235
   39MOL   C146 6302   6.287   3.587   1.334  0.4572 -0.0164 -0.5221
   39MOL   C147 6303   6.259   3.441   1.295  0.5972 -0.7980 -0.4066
   39MOL   N148 6304   6.130   3.434   1.223 -0.0541 -0.2071  0.3883
   39MOL   H149 6305   6.257   3.645   1.247  2.6260  1.3649 -0.3955
   39MOL   H150 6306   6.396   3.595   1.336  0.4639 -0.3538  0.6696
   39MOL   H151 6307   6.240   3.389   1.389 -1.0414  0.8106  0.1937
   39MOL   H152 6308   6.098   3.338   1.214  0.9843 -0.4080 -1.7232
   39MOL   H153 6309   6.053   3.482   1.266 -0.6856  0.9264 -1.9375
   39MOL   C154 6310   6.364   3.377   1.206 -0.1098  0.6227 -0.7606
   39MOL   C155 6311   6.482   3.307   1.275  0.1954 -0.7353  0.8395
   39MOL   N156 6312   6.567   3.261   1.175  0.5475  0.2103  0.4452
   39MOL   H157 6313   6.317   3.304   1.140 -0.2113 -1.0246  1.0732
   39MOL   H158 6314   6.407   3.460   1.151  0.3452  1.8505  1.3882
   39MOL   H159 6315   6.457   3.227   1.344  2.1784 -0.6973  1.6511
   39MOL   H160 6316   6.505   3.221   1.106  1.2247 -3.1588  1.6817
   39MOL   H161 6317   6.603   3.336   1.119 -0.4917  0.9525  0.7476
   39MOL   H162 6318   6.536   3.373   1.344  2.4554  0.7748 -2.2599
   40MOL     C1 6319   0.742   6.873   0.274  0.3294  0.7141  0.0704
   40MOL     C2 6320   0.754   6.961   0.398 -0.5855  0.7185  0.2298
   40MOL     N3 6321   0.680   6.910   0.512  0.1573  0.2018 -0.0402
   40MOL     H4 6322   0.783   6.926   0.188  2.4520  1.0417  1.2533
   40MOL     H5 6323   0.636   6.865   0.246 -0.6020  1.2361  3.2805
   40MOL     H6 6324   0.719   7.061   0.370  0.5258  0.7782 -1.0198
   40MOL     H7 6325   0.704   6.962   0.596  2.5697  0.9783 -1.1653
   40MOL     H8 6326   0.704   6.814   0.534 -1.9418  0.2763  2.9436
   40MOL     H9 6327   0.777   6.769   0.279  0.7224  0.6144 -3.3514
   40MOL    C10 6328   0.909   6.974   0.445  0.7975 -0.5806  0.0216
   40MOL    C11 6329   0.985   7.087   0.365 -0.0887 -0.2254  0.1015
   40MOL    N12 6330   0.966   7.215   0.430 -0.2973  0.3552 -0.7935
   40MOL    H13 6331   0.926   6.989   0.552  1.2846  2.1016 -0.3890
   40MOL    H14 6332   0.959   6.879   0.427  0.7550 -0.7162  0.6192
   40MOL    H15 6333   0.958   7.095   0.260  1.9360 -0.1209 -0.4254
   40MOL    H16 6334   0.867   7.229   0.443 -0.0816  0.4266  0.7817
   40MOL    H17 6335   1.003   0.011   0.370 -0.3502  0.6196 -0.5108
   40MOL    C18 6336   1.136   7.058   0.352 -0.7656 -0.2125  0.2859
   40MOL    C19 6337   1.176   6.965   0.239 -0.1160  0.2390 -0.2238
   40MOL    N20 6338   1.165   7.037   0.111 -0.7159  0.2204  0.6073
   40MOL    H21 6339   1.195   7.149   0.345 -1.2305  0.2084  1.5821
   40MOL    H22 6340   1.158   7.000   0.442 -1.3227 -2.3474 -0.9225
   40MOL    H23 6341   1.099   6.889   0.232  0.3399 -0.1893 -0.6131
   40MOL    H24 6342   1.228   7.115   0.108 -0.4308  0.0124  1.2028
   40MOL    H25 6343   1.191   6.979   0.032 -2.0819 -4.0917  3.1910
   40MOL    C26 6344   1.310   6.892   0.249  0.6978 -0.2162 -0.7014
   40MOL    C27 6345   1.314   6.804   0.373 -0.5919  0.2555  0.2789
   40MOL    N28 6346   1.238   6.678   0.357  0.0296 -0.3967 -0.4107
   40MOL    H29 6347   1.321   6.832   0.159 -0.9542 -0.6599 -0.6272
   40MOL    H30 6348   1.398   6.953   0.270  0.1855 -0.1469  1.4240
   40MOL    H31 6349   1.257   6.838   0.459 -1.1869  1.8355 -0.7264
   40MOL    H32 6350   1.303   6.607   0.324  0.7801  0.5616 -1.0287
   40MOL    H33 6351   1.214   6.644   0.449 -1.3214  1.2685 -0.1115
   40MOL    C34 6352   1.458   6.770   0.420  0.3491  0.3765  0.0157
   40MOL    C35 6353   1.493   6.865   0.537  0.3260 -0.2142 -0.8266
   40MOL    N36 6354   1.450   6.796   0.660  0.2434 -0.0781 -0.8349
   40MOL    H37 6355   1.467   6.668   0.457 -0.5488  0.1685 -0.3250
   40MOL    H38 6356   1.539   6.771   0.346  1.1237  0.4641  0.8598
   40MOL    H39 6357   1.437   6.958   0.522  1.5595  0.6320 -0.2720
   40MOL    H40 6358   1.351   6.800   0.681  0.6952  0.9246  1.3244
   40MOL    H41 6359   1.503   6.828   0.739 -2.1401  1.7148  0.1204
   40MOL    C42 6360   1.651   6.888   0.535 -0.6000  0.7211 -0.0780
   40MOL    C43 6361   1.692   7.018   0.460 -0.1595  0.4022  0.5513
   40MOL    N44 6362   1.804   7.068   0.535  0.3938 -0.3853 -0.6965
   40MOL    H45 6363   1.673   6.901   0.641  1.5487  2.3488 -0.6833
   40MOL    H46 6364   1.701   6.794   0.513 -0.6445  0.1914  1.9553
   40MOL    H47 6365   1.618   7.097   0.479 -1.6869 -0.8796  0.0900
   40MOL    H48 6366   1.873   6.995   0.543 -0.1929 -0.6839  1.8424
   40MOL    H49 6367   1.767   7.080   0.628 -1.4095 -1.9195 -1.2041
   40MOL    C50 6368   1.729   6.986   0.311 -0.6084  0.1800  0.4172
   40MOL    C51 6369   1.732   7.117   0.238 -0.5236  0.5936 -0.0220
   40MOL    N52 6370   1.826   7.107   0.130 -0.2415  0.1409 -0.0313
   40MOL    H53 6371   1.824   6.933   0.308 -0.4793  0.4816 -1.2097
   40MOL    H54 6372   1.653   6.924   0.264 -0.4427  0.0819  0.2808
   40MOL    H55 6373   1.763   7.204   0.295  1.8755 -1.3113  1.6625
   40MOL    H56 6374   1.911   7.061   0.159  0.0120  1.7134  1.7813
   40MOL    H57 6375   1.792   7.036   0.066 -1.0130  0.3609  0.1340
   40MOL    C58 6376   1.586   7.143   0.186 -0.2666 -0.0084  0.5940
   40MOL    C59 6377   1.571   0.016   0.133 -0.0293 -0.3943  0.7457
   40MOL    N60 6378   1.438   0.023   0.069 -0.1455 -0.2247 -0.4074
   40MOL    H61 6379   1.554   7.070   0.111 -0.8063  0.4792  0.3479
   40MOL    H62 6380   1.507   7.127   0.260  0.3599 -0.8312  1.0983
   40MOL    H63 6381   1.640   0.045   0.054 -1.0183 -0.5364 -0.1689
   40MOL    H64 6382   1.442   7.242   7.262  1.1535 -0.8995  0.1027
   40MOL    H65 6383   1.418   0.114   0.031  1.0385  0.2826  0.1646
   40MOL    C66 6384   1.595   0.122   0.243  0.1550  0.1087  0.5150
   40MOL    C67 6385   1.730   0.192   0.221 -0.0539  1.1091  0.3336
   40MOL    N68 6386   1.712   0.287   0.119 -0.0178 -0.0244  0.2960
   40MOL    H69 6387   1.524   0.204   0.248 -1.1502 -1.0601  1.2733
   40MOL    H70 6388   1.594   0.057   0.331  2.3042  1.2596  1.4138
   40MOL    H71 6389   1.797   0.114   0.183 -2.5839 -1.1410  0.3724
   40MOL    H72 6390   1.788   0.341   0.080  0.4418  0.7139  2.1488
   40MOL    H73 6391   1.688   0.234   0.037 -0.3345 -0.2305  0.5201
   40MOL    C74 6392   1.795   0.256   0.343  0.0238 -0.5266  0.3385
   40MOL    C75 6393   1.820   0.168   0.471  0.2170 -0.1661  0.6481
   40MOL    N76 6394   1.929   0.076   0.432 -0.2066  0.4323  0.2498
   40MOL    H77 6395   1.883   0.309   0.307  0.0899 -1.4144 -0.8397
   40MOL    H78 6396   1.730   0.332   0.388  0.5592 -0.8132  1.6128
   40MOL    H79 6397   1.728   0.112   0.489  0.1614 -0.2226  0.2091
   40MOL    H80 6398   1.884   0.013   0.367 -2.4691  2.1754  0.0296
   40MOL    H81 6399   1.958   0.019   0.510 -0.0961  1.4658  0.9716
   40MOL    C82 6400   1.867   0.230   0.604 -0.6842  0.3664  0.5462
   40MOL    C83 6401   1.772   0.344   0.665 -0.7048  0.4559  0.5427
   40MOL    N84 6402   1.772   0.350   0.816 -0.3233  0.1019  0.8921
   40MOL    H85 6403   1.893   0.150   0.673  4.6080  1.4711  0.0312
   40MOL    H86 6404   1.969   0.262   0.580 -0.2859 -0.3810  1.2052
   40MOL    H87 6405   1.671   0.306   0.650 -0.7337  1.6791 -2.8053
   40MOL    H88 6406   1.831   0.275   0.850 -0.8430 -1.6296 -1.8609
   40MOL    H89 6407   1.837   0.426   0.834  1.2486 -1.3681  1.6401
   40MOL    C90 6408   1.794   0.482   0.603  0.4859  0.1178 -0.1283
   40MOL    C91 6409   1.932   0.517   0.538 -0.4319  0.0016 -0.4770
   40MOL    N92 6410   1.897   0.625   0.445 -0.1433 -0.1914  0.5058
   40MOL    H93 6411   1.709   0.482   0.535  0.2455  0.3135  0.1696
   40MOL    H94 6412   1.771   0.566   0.668 -1.2297  0.4251 -1.1114
   40MOL    H95 6413   1.962   0.436   0.472  0.0742  0.0364 -0.2943
   40MOL    H96 6414   1.846   0.690   0.503  0.5219 -1.1835  2.2163
   40MOL    H97 6415   1.825   0.585   0.386  0.0953  0.3690 -0.1791
   40MOL    C98 6416   2.049   0.568   0.634  0.3413  0.4969 -0.0531
   40MOL    C99 6417   2.116   0.463   0.722 -0.1351  0.8950 -0.4274
   40MOL   N100 6418   2.213   0.399   0.634 -0.6048 -0.7117 -0.0026
   40MOL   H101 6419   2.123   0.633   0.588  0.4757  1.3892  1.3772
   40MOL   H102 6420   1.999   0.632   0.708 -0.9544 -0.2313 -0.2735
   40MOL   H103 6421   2.049   0.380   0.744  1.9239  0.0086  2.8449
   40MOL   H104 6422   2.283   0.461   0.596 -1.2697  0.2973  0.3957
   40MOL   H105 6423   2.175   0.355   0.551 -0.1121  0.8651 -1.1008
   40MOL   C106 6424   2.190   0.513   0.840 -0.3378 -0.5025 -0.1240
   40MOL   C107 6425   2.095   0.548   0.955 -0.6427  0.0404  1.1571
   40MOL   N108 6426   2.045   0.422   1.007 -0.1284  0.0549  0.5182
   40MOL   H109 6427   2.263   0.439   0.875 -0.1853 -1.2618 -1.9763
   40MOL   H110 6428   2.245   0.601   0.807 -0.9195  0.4379  1.3880
   40MOL   H111 6429   2.013   0.607   0.914 -1.3503 -2.4299 -1.0870
   40MOL   H112 6430   1.980   0.443   1.082 -1.3781  0.0423 -0.5518
   40MOL   H113 6431   2.120   0.370   1.051 -0.2081 -0.7462 -0.2930
   40MOL   C114 6432   2.180   0.636   1.055 -0.1157 -0.1721  0.0877
   40MOL   C115 6433   2.106   0.657   1.198 -0.0036  0.0865 -0.0025
   40MOL   N116 6434   2.202   0.644   1.301  0.2288  0.7316 -0.3690
   40MOL   H117 6435   2.270   0.575   1.065 -0.4350 -0.9484 -1.6304
   40MOL   H118 6436   2.197   0.735   1.014  2.5346 -1.1154 -1.2066
   40MOL   H119 6437   2.033   0.578   1.219 -0.1010 -0.5943 -2.6765
   40MOL   H120 6438   2.157   0.625   1.389  0.0598 -0.1170 -0.6293
   40MOL   H121 6439   2.228   0.548   1.283  2.5544  0.3950  4.0994
   40MOL   C122 6440   2.047   0.798   1.212 -0.4078  0.1085 -0.2970
   40MOL   C123 6441   1.927   0.801   1.311  0.3059  0.4919 -0.1788
   40MOL   N124 6442   1.833   0.687   1.292 -0.6490  0.5935  0.1050
   40MOL   H125 6443   2.133   0.858   1.241  0.3782 -0.4508 -1.4281
   40MOL   H126 6444   2.011   0.830   1.114 -2.0738  1.4979  0.7484
   40MOL   H127 6445   1.874   0.885   1.268 -0.7136 -1.1750 -2.2580
   40MOL   H128 6446   1.872   0.611   1.345 -4.0222 -0.6351  0.9885
   40MOL   H129 6447   1.747   0.703   1.344 -0.4673 -0.5780  0.7816
   40MOL   C130 6448   1.967   0.813   1.459  0.3227  0.9981 -0.4432
   40MOL   C131 6449   2.039   0.942   1.496 -0.4505 -0.0958 -0.7219
   40MOL   N132 6450   1.956   1.064   1.470 -0.0926  0.0142 -0.1209
   40MOL   H133 6451   1.880   0.801   1.523  1.2664 -1.7765  0.3897
   40MOL   H134 6452   2.025   0.726   1.490 -0.5174  0.0471 -1.4850
   40MOL   H135 6453   2.129   0.957   1.435  2.2386  0.9810  3.2987
   40MOL   H136 6454   1.996   1.148   1.510 -0.7358  0.3668 -0.2128
   40MOL   H137 6455   1.862   1.054   1.505  0.5398 -0.5885  1.4244
   40MOL   C138 6456   2.084   0.942   1.643  0.0099  0.1137 -0.0081
   40MOL   C139 6457   2.213   1.032   1.662  0.2157  0.2236 -0.2064
   40MOL   N140 6458   2.200   1.115   1.781 -0.5813 -0.2790  0.5432
   40MOL   H141 6459   2.007   0.979   1.711 -0.5354 -1.1150  0.0663
   40MOL   H142 6460   2.107   0.842   1.683  1.2896  0.2908 -0.2808
   40MOL   H143 6461   2.214   1.109   1.585 -2.2596  0.5774  0.0712
   40MOL   H144 6462   2.288   1.163   1.798 -0.6762  0.2574 -0.4121
   40MOL   H145 6463   2.195   1.066   1.869  0.4497 -1.0840  0.1653
   40MOL   C146 6464   2.348   0.963   1.670  0.0500  0.0072 -0.4210
   40MOL   C147 6465   2.393   0.903   1.537 -0.2140 -0.4667  0.4378
   40MOL   N148 6466   2.439   1.018   1.458 -0.0140 -0.3414 -0.3046
   40MOL   H149 6467   2.433   1.020   1.707 -0.5991  1.1785 -0.7152
   40MOL   H150 6468   2.334   0.891   1.751  2.2188 -1.9341 -1.7005
   40MOL   H151 6469   2.310   0.855   1.487  0.2494  0.5476 -1.3563
   40MOL   H152 6470   2.364   1.081   1.435  0.3757 -0.5044 -2.1149
   40MOL   H153 6471   2.478   0.976   1.374 -0.2554  1.0130 -1.0995
   40MOL   C154 6472   2.505   0.799   1.560  0.5768  0.1836  0.4882
   40MOL   C155 6473   2.454   0.666   1.609  0.5573  0.3782  0.0213
   40MOL   N156 6474   2.571   0.583   1.635 -0.1832 -0.6684  0.4401
   40MOL   H157 6475   2.555   0.777   1.466 -1.1296 -2.9829  0.2612
   40MOL   H158 6476   2.580   0.839   1.629  1.7794 -0.1075 -0.6449
   40MOL   H159 6477   2.381   0.613   1.547 -0.1071  1.7348 -0.3836
   40MOL   H160 6478   2.561   0.501   1.692  0.4982 -0.8035  0.3739
   40MOL   H161 6479   2.635   0.643   1.686 -1.6376 -0.4993  2.1167
   40MOL   H162 6480   2.400   0.679   1.703  1.6736  0.2074  0.6884
   41MOL     C1 6481   4.137   4.447   6.445 -0.0829  0.9392  0.2393
   41MOL     C2 6482   4.047   4.325   6.484 -0.0245  0.6068 -0.2859
   41MOL     N3 6483   3.944   4.317   6.377 -0.4636 -0.2371  0.1736
   41MOL     H4 6484   4.078   4.536   6.422 -1.3927 -0.2113 -0.8887
   41MOL     H5 6485   4.197   4.413   6.361 -0.8458 -0.3815  0.2245
   41MOL     H6 6486   3.994   4.342   6.578  1.5005  0.1007  0.6681
   41MOL     H7 6487   3.959   4.229   6.330 -1.7252  1.3590 -3.3308
   41MOL     H8 6488   3.973   4.378   6.302  0.5418  0.9276  1.4878
   41MOL     H9 6489   4.210   4.466   6.525  0.5986 -0.8373  0.0687
   41MOL    C10 6490   4.136   4.190   6.492  0.7079  0.2673 -0.4024
   41MOL    C11 6491   4.065   4.066   6.565 -0.3666  1.0133 -0.3731
   41MOL    N12 6492   4.154   3.959   6.543 -0.1742  0.7555  0.0413
   41MOL    H13 6493   4.164   4.168   6.389 -0.8982 -2.8523 -0.2474
   41MOL    H14 6494   4.229   4.213   6.545 -2.1561  0.9824  4.6462
   41MOL    H15 6495   3.980   4.043   6.501  0.4522  1.4882 -1.6576
   41MOL    H16 6496   4.134   3.929   6.449 -1.6363 -0.7459  0.7883
   41MOL    H17 6497   4.136   3.873   6.594 -0.6042 -1.3846 -3.5212
   41MOL    C18 6498   4.025   4.082   6.717  0.1738 -0.2005 -0.3403
   41MOL    C19 6499   3.900   3.996   6.760 -0.4287 -0.4986 -0.0856
   41MOL    N20 6500   3.892   3.986   6.908 -0.3637 -0.7609  0.1780
   41MOL    H21 6501   4.107   4.050   6.781  0.4534 -0.7081 -0.9433
   41MOL    H22 6502   4.013   4.184   6.753 -1.1218  0.3475 -2.2197
   41MOL    H23 6503   3.906   3.892   6.728  3.6088  0.2379 -2.0008
   41MOL    H24 6504   3.803   3.941   6.924 -1.3053  0.6122 -1.1162
   41MOL    H25 6505   3.958   3.914   6.934 -2.6476 -2.3029  1.9131
   41MOL    C26 6506   3.768   4.042   6.692 -0.2651 -0.2523  0.4278
   41MOL    C27 6507   3.641   3.968   6.748  0.0496 -0.3354 -0.4615
   41MOL    N28 6508   3.525   4.012   6.674 -0.3764  0.5328 -0.4960
   41MOL    H29 6509   3.767   4.151   6.688  1.1039 -0.2367  0.2743
   41MOL    H30 6510   3.787   4.017   6.587 -1.2198  0.8325 -0.0083
   41MOL    H31 6511   3.634   4.004   6.850 -0.5876  1.1686 -1.0208
   41MOL    H32 6512   3.511   4.111   6.692  2.0378  0.6454  0.9707
   41MOL    H33 6513   3.549   4.006   6.576 -1.5364 -0.2654 -0.7424
   41MOL    C34 6514   3.645   3.814   6.747  0.5837 -0.1827  0.2911
   41MOL    C35 6515   3.533   3.760   6.844  0.4635  0.0041 -0.9142
   41MOL    N36 6516   3.505   3.620   6.821 -0.6093  0.2998 -0.4454
   41MOL    H37 6517   3.628   3.761   6.653  0.9972 -0.9774  0.6561
   41MOL    H38 6518   3.747   3.788   6.777  1.1411  0.8393 -0.7058
   41MOL    H39 6519   3.436   3.803   6.819  0.0454  0.9218  2.0859
   41MOL    H40 6520   3.482   3.594   6.726 -0.5741 -2.1784  0.1756
   41MOL    H41 6521   3.436   3.578   6.881  0.6532 -2.8442 -1.0816
   41MOL    C42 6522   3.570   3.786   6.991 -0.2525 -0.1306 -0.5158
   41MOL    C43 6523   3.463   3.863   7.076 -0.0617  0.7704  0.4783
   41MOL    N44 6524   3.497   3.853   7.215 -0.7520  0.9567 -0.2676
   41MOL    H45 6525   3.601   3.693   7.038  4.3530  1.7234  0.3226
   41MOL    H46 6526   3.668   3.830   7.005  0.5764 -2.8591  2.7210
   41MOL    H47 6527   3.376   3.798   7.068 -0.4807  1.4498 -0.6524
   41MOL    H48 6528   3.545   3.765   7.222  1.0868  2.0185  1.0538
   41MOL    H49 6529   3.576   3.915   7.227  2.3951 -3.3118  2.7036
   41MOL    C50 6530   3.426   4.008   7.036  0.7812  0.9028 -0.1943
   41MOL    C51 6531   3.273   4.042   7.067  0.1247  0.2283  0.0020
   41MOL    N52 6532   3.277   4.183   7.088  0.0949  0.0091 -0.0333
   41MOL    H53 6533   3.491   4.074   7.093  0.8566  0.5094  0.1803
   41MOL    H54 6534   3.440   4.027   6.930 -1.6074  2.3896 -0.2916
   41MOL    H55 6535   3.236   3.984   7.152 -1.4370  1.6322  0.2943
   41MOL    H56 6536   3.197   4.222   7.039  0.3359  2.0742  1.1430
   41MOL    H57 6537   3.349   4.229   7.034  0.9804 -0.1596  0.9851
   41MOL    C58 6538   3.167   4.010   6.956 -0.3972 -0.5493 -0.0574
   41MOL    C59 6539   3.018   3.998   7.012  0.0929  0.0132  1.0995
   41MOL    N60 6540   2.934   4.105   6.946  0.0905  0.6484 -0.3066
   41MOL    H61 6541   3.189   4.075   6.872 -1.4079 -2.1321 -1.5790
   41MOL    H62 6542   3.195   3.910   6.923 -1.8999 -0.1805 -2.5590
   41MOL    H63 6543   3.007   4.005   7.120  2.2658  0.6734  1.3024
   41MOL    H64 6544   2.893   4.078   6.858  1.5280 -1.5387 -0.3472
   41MOL    H65 6545   2.992   4.186   6.927  0.8495  0.7646  2.4017
   41MOL    C66 6546   2.950   3.859   6.983 -0.6239 -0.0841  0.2773
   41MOL    C67 6547   3.020   3.743   7.058 -0.1553  0.1304  0.3188
   41MOL    N68 6548   2.911   3.669   7.123 -0.2564 -0.5555  0.2335
   41MOL    H69 6549   2.849   3.867   7.023  0.3387  2.4838  2.3766
   41MOL    H70 6550   2.929   3.839   6.878 -0.5439 -2.1849  0.6479
   41MOL    H71 6551   3.087   3.796   7.126  2.1563 -1.0464 -0.9602
   41MOL    H72 6552   2.846   3.733   7.167 -0.1125  0.1204 -0.5208
   41MOL    H73 6553   2.964   3.614   7.189  0.4728 -1.5879 -1.1722
   41MOL    C74 6554   3.109   3.654   6.966 -0.4965  0.0347  0.3589
   41MOL    C75 6555   3.175   3.532   7.036  0.3815  0.2022  0.5905
   41MOL    N76 6556   3.236   3.444   6.937 -0.2447 -0.6645 -0.4582
   41MOL    H77 6557   3.054   3.624   6.877  0.1645  0.3033 -0.1447
   41MOL    H78 6558   3.198   3.702   6.926 -0.9766  1.8593  1.4400
   41MOL    H79 6559   3.097   3.461   7.064  1.7613 -2.2240 -1.4911
   41MOL    H80 6560   3.171   3.410   6.868 -1.3387  1.6865 -0.6404
   41MOL    H81 6561   3.267   3.359   6.982  0.7482 -0.1347 -0.1084
   41MOL    C82 6562   3.268   3.561   7.151  0.5465 -0.0044 -0.4727
   41MOL    C83 6563   3.218   3.495   0.009 -0.3186 -0.8997 -0.6057
   41MOL    N84 6564   3.284   3.368   0.010  0.6800  0.0454 -0.0452
   41MOL    H85 6565   3.371   3.538   7.124  0.8753  1.4365 -0.4710
   41MOL    H86 6566   3.265   3.669   7.162 -1.9409 -0.2295  1.8364
   41MOL    H87 6567   3.110   3.494   0.023 -0.2519  0.4201  0.0699
   41MOL    H88 6568   3.238   3.306   0.076 -0.4680 -0.9396 -1.7401
   41MOL    H89 6569   3.289   3.328   7.193 -0.5433  0.8578 -0.4738
   41MOL    C90 6570   3.269   3.574   0.133  0.0199 -0.1231  0.6547
   41MOL    C91 6571   3.241   3.520   0.275  0.2004  0.5454  0.0015
   41MOL    N92 6572   3.338   3.580   0.370  0.1197 -0.2950  0.1604
   41MOL    H93 6573   3.376   3.592   0.123  0.1354 -1.2873 -0.2154
   41MOL    H94 6574   3.239   3.679   0.129  0.4998 -0.0612 -1.6282
   41MOL    H95 6575   3.260   3.413   0.290  1.1711  0.5654 -1.0329
   41MOL    H96 6576   3.315   3.545   0.462  0.0768 -1.0980 -0.1531
   41MOL    H97 6577   3.428   3.536   0.357  0.6001  0.9785 -0.8633
   41MOL    C98 6578   3.105   3.559   0.328 -0.2224  0.3901 -0.2230
   41MOL    C99 6579   3.055   3.469   0.446  0.7220 -0.5304  0.2471
   41MOL   N100 6580   3.118   3.498   0.573 -0.1064  0.2440  0.8420
   41MOL   H101 6581   3.099   3.666   0.346  1.4322  0.5215 -0.3961
   41MOL   H102 6582   3.040   3.529   0.245 -1.6780  0.9580  0.6817
   41MOL   H103 6583   3.079   3.368   0.414  1.8097  0.2564 -1.4942
   41MOL   H104 6584   3.107   3.595   0.599  0.6490  0.4478  0.4110
   41MOL   H105 6585   3.063   3.465   0.651 -1.1904 -0.3382 -0.1415
   41MOL   C106 6586   2.904   3.473   0.459 -0.0189 -0.2482  0.7329
   41MOL   C107 6587   2.836   3.342   0.514 -0.1357 -0.5957 -0.3334
   41MOL   N108 6588   2.707   3.385   0.559  0.1078  0.1142  0.1775
   41MOL   H109 6589   2.871   3.552   0.527  0.5108 -1.2066  2.1337
   41MOL   H110 6590   2.862   3.500   0.362  0.0168  0.8355  1.0129
   41MOL   H111 6591   2.894   3.298   0.594 -1.2427 -1.6196 -0.0792
   41MOL   H112 6592   2.705   3.462   0.624  0.2679 -0.9742  1.5072
   41MOL   H113 6593   2.661   3.423   0.477 -0.1507  1.6935  1.0313
   41MOL   C114 6594   2.808   3.232   0.408 -0.7243  0.8379  0.5458
   41MOL   C115 6595   2.934   3.176   0.325  0.9593 -0.5924  0.0464
   41MOL   N116 6596   3.037   3.110   0.415 -0.1107 -0.2070  0.4985
   41MOL   H117 6597   2.761   3.148   0.460 -0.0867 -0.4502 -0.9178
   41MOL   H118 6598   2.732   3.268   0.339  1.0913 -0.7589 -2.3931
   41MOL   H119 6599   2.979   3.259   0.272  0.6418  0.3729  1.2697
   41MOL   H120 6600   3.055   3.161   0.500 -2.0712 -0.3132  1.0069
   41MOL   H121 6601   2.992   3.029   0.455  1.3380 -2.0988 -1.5430
   41MOL   C122 6602   2.890   3.076   0.215 -0.4005  0.0455 -0.2149
   41MOL   C123 6603   2.804   3.137   0.096 -0.2140 -0.0165 -0.2196
   41MOL   N124 6604   2.854   3.060   7.260 -1.1871  0.5276  0.0078
   41MOL   H125 6605   2.988   3.049   0.173 -0.9781 -0.9172 -0.9712
   41MOL   H126 6606   2.846   2.989   0.263  0.3997 -0.0360  0.3725
   41MOL   H127 6607   2.832   3.243   0.095  1.0837 -0.3401  0.7114
   41MOL   H128 6608   2.952   3.044   0.000 -0.8458 -1.4162 -3.4812
   41MOL   H129 6609   2.806   2.971   7.266 -0.2163 -0.0161 -0.1618
   41MOL   C130 6610   2.649   3.121   0.104  0.5958  0.3358 -0.5390
   41MOL   C131 6611   2.564   3.207   0.005  0.5810 -0.4918  0.9776
   41MOL   N132 6612   2.425   3.143   0.009 -0.4206  0.1777  0.2562
   41MOL   H133 6613   2.618   3.018   0.085  0.5848 -0.2321  2.3072
   41MOL   H134 6614   2.613   3.137   0.206 -1.4982 -1.7590 -0.9123
   41MOL   H135 6615   2.601   3.203   7.178  0.3046  1.4126  0.7875
   41MOL   H136 6616   2.352   3.212   7.273 -2.1145 -1.4584  0.9225
   41MOL   H137 6617   2.418   3.092   7.198 -1.8694 -1.1616  1.1517
   41MOL   C138 6618   2.565   3.351   0.046 -0.3436  0.0833 -0.0356
   41MOL   C139 6619   2.510   3.442   7.213 -0.6757  0.2936 -0.1809
   41MOL   N140 6620   2.454   3.564   7.270 -0.5047  0.0388 -0.4940
   41MOL   H141 6621   2.500   3.360   0.134 -0.4288  0.2127 -0.1111
   41MOL   H142 6622   2.662   3.377   0.087  0.0322 -0.9078 -0.2870
   41MOL   H143 6623   2.433   3.393   7.152 -0.7490  1.0207 -0.6786
   41MOL   H144 6624   2.372   3.536   0.046  0.1248 -0.4054  0.2746
   41MOL   H145 6625   2.433   3.642   7.210 -1.9370 -0.9557 -1.3326
   41MOL   C146 6626   2.613   3.493   7.113  0.4226  0.1840 -0.3210
   41MOL   C147 6627   2.558   3.541   6.978  0.1135  0.1051  0.0861
   41MOL   N148 6628   2.483   3.659   6.998  0.2449 -0.4809 -0.0835
   41MOL   H149 6629   2.685   3.548   7.174 -0.6422 -0.3170  1.4389
   41MOL   H150 6630   2.666   3.400   7.096  1.5808  0.5107  1.3864
   41MOL   H151 6631   2.478   3.474   6.949  0.1424  0.3054 -0.4564
   41MOL   H152 6632   2.460   3.689   6.905  0.3969  0.1817  0.0869
   41MOL   H153 6633   2.389   3.634   7.026 -0.2440 -0.4124 -1.6517
   41MOL   C154 6634   2.670   3.537   6.880 -0.0938 -0.4796 -0.1329
   41MOL   C155 6635   2.685   3.389   6.813  0.2269 -0.0989 -0.6740
   41MOL   N156 6636   2.787   3.387   6.709 -0.0763 -0.2100 -0.6997
   41MOL   H157 6637   2.658   3.617   6.807 -3.3494 -0.0159  0.8039
   41MOL   H158 6638   2.756   3.576   6.933  0.4125 -1.6918 -0.0465
   41MOL   H159 6639   2.591   3.345   6.780 -0.9677  1.5915  0.4101
   41MOL   H160 6640   2.875   3.426   6.740 -0.7361 -0.6704  1.8340
   41MOL   H161 6641   2.809   3.296   6.671  2.9795 -0.3351  1.2332
   41MOL   H162 6642   2.709   3.314   6.888 -1.2560 -1.0723 -1.1540
   42MOL     C1 6643   2.972   1.096   1.010 -0.3111 -0.1358  0.1998
   42MOL     C2 6644   3.089   1.010   0.968 -0.2915  0.4672  0.3869
   42MOL     N3 6645   3.052   0.954   0.834  0.2143  0.7576  0.3383
   42MOL     H4 6646   2.955   1.177   0.939 -0.0562  0.2991  0.6326
   42MOL     H5 6647   2.996   1.141   1.107 -0.9475 -2.1392  1.3347
   42MOL     H6 6648   3.111   0.927   1.034  0.8200  0.9067  0.5799
   42MOL     H7 6649   3.124   0.899   0.789 -1.5448 -1.3633  0.0446
   42MOL     H8 6650   2.977   0.887   0.844 -1.9806  3.2659  1.0599
   42MOL     H9 6651   2.878   1.040   1.012 -0.5613  0.3019  0.9020
   42MOL    C10 6652   3.224   1.091   0.928  1.2792 -0.2806 -0.1378
   42MOL    C11 6653   3.354   1.018   0.910  0.3309 -0.6915 -1.2047
   42MOL    N12 6654   3.445   1.121   0.866  0.1775 -0.0926 -0.1900
   42MOL    H13 6655   3.202   1.159   0.845 -4.5591 -1.1625  0.4727
   42MOL    H14 6656   3.233   1.155   1.016 -0.2050  1.2091 -1.0345
   42MOL    H15 6657   3.329   0.946   0.833  1.7034  0.4407 -2.7428
   42MOL    H16 6658   3.522   1.072   0.824 -0.3899 -1.3564  0.2186
   42MOL    H17 6659   3.408   1.164   0.782  0.9794 -0.3947 -0.6937
   42MOL    C18 6660   3.404   0.950   1.047 -0.3595  0.6808  0.6971
   42MOL    C19 6661   3.442   0.805   1.025  0.5704 -0.2742 -0.0817
   42MOL    N20 6662   3.499   0.749   1.144  0.1271  0.2821  0.2609
   42MOL    H21 6663   3.475   1.016   1.097  0.2932  2.5051 -2.4259
   42MOL    H22 6664   3.325   0.946   1.122  0.1004 -0.3203  1.1349
   42MOL    H23 6665   3.524   0.807   0.954  0.1026  1.0613 -0.6067
   42MOL    H24 6666   3.427   0.754   1.215  0.3158  1.4513  0.3855
   42MOL    H25 6667   3.526   0.652   1.140 -0.9359 -0.0763  1.6346
   42MOL    C26 6668   3.320   0.715   0.976 -0.1683  0.4730 -0.2901
   42MOL    C27 6669   3.360   0.574   0.913  0.3590 -1.0415  0.2745
   42MOL    N28 6670   3.231   0.520   0.877  0.2034 -0.0805  0.6757
   42MOL    H29 6671   3.244   0.705   1.053 -0.4415  2.6728 -0.2246
   42MOL    H30 6672   3.264   0.774   0.904  0.2902  1.6289  0.2756
   42MOL    H31 6673   3.415   0.516   0.988 -1.5774 -0.7936  1.9255
   42MOL    H32 6674   3.242   0.429   0.834 -5.3890 -1.1978  1.2615
   42MOL    H33 6675   3.191   0.490   0.965  0.0208 -0.7185  0.3803
   42MOL    C34 6676   3.452   0.588   0.779 -0.1387 -0.1196 -0.4042
   42MOL    C35 6677   3.497   0.452   0.712 -0.1768 -1.0138 -0.9683
   42MOL    N36 6678   3.516   0.479   0.571 -0.6216 -0.1446 -0.3002
   42MOL    H37 6679   3.391   0.643   0.707  0.3832  1.1873  0.1376
   42MOL    H38 6680   3.534   0.658   0.793 -1.6956  1.6095  0.4589
   42MOL    H39 6681   3.416   0.382   0.732 -2.4661  1.8095 -0.0870
   42MOL    H40 6682   3.603   0.526   0.551 -0.2592  0.2409  2.0395
   42MOL    H41 6683   3.437   0.529   0.531  0.2966  0.6799 -1.0904
   42MOL    C42 6684   3.618   0.386   0.783 -0.0236 -0.1752 -0.4218
   42MOL    C43 6685   3.588   0.303   0.904  0.4250 -0.0517 -0.1139
   42MOL    N44 6686   3.572   0.161   0.868  0.2402 -0.0205  0.7491
   42MOL    H45 6687   3.681   0.333   0.711 -1.0813 -1.9129 -0.0801
   42MOL    H46 6688   3.691   0.465   0.804  3.0805 -2.2343 -2.9268
   42MOL    H47 6689   3.497   0.335   0.955 -0.1009 -1.2402 -0.2897
   42MOL    H48 6690   3.626   0.144   0.784 -1.0681  1.3354 -0.4029
   42MOL    H49 6691   3.627   0.116   0.940  3.0940  1.5710 -0.3727
   42MOL    C50 6692   3.688   0.330   1.015 -0.3662 -0.1931  0.5820
   42MOL    C51 6693   3.682   0.466   1.087  0.3919  0.9668 -0.0609
   42MOL    N52 6694   3.575   0.439   1.192 -0.4211  0.6883 -0.5942
   42MOL    H53 6695   3.694   0.251   1.090 -0.2904  0.0506  0.8308
   42MOL    H54 6696   3.785   0.317   0.967  0.9935 -1.1067  3.4850
   42MOL    H55 6697   3.653   0.539   1.011  0.6512  1.9946  0.8135
   42MOL    H56 6698   3.621   0.376   1.257 -0.5086 -0.4222 -1.5942
   42MOL    H57 6699   3.501   0.384   1.151 -1.4180  0.3069  1.6514
   42MOL    C58 6700   3.810   0.521   1.149 -0.2129  0.9164  0.0773
   42MOL    C59 6701   3.901   0.592   1.037  0.6032 -0.8196 -0.4221
   42MOL    N60 6702   4.003   0.651   1.108 -0.0117 -1.1320 -0.4423
   42MOL    H61 6703   3.786   0.602   1.218 -0.2427  1.0431 -0.0817
   42MOL    H62 6704   3.861   0.453   1.216 -2.7676  0.2053  1.3611
   42MOL    H63 6705   3.839   0.671   0.996 -0.1288 -0.5889  1.1098
   42MOL    H64 6706   3.953   0.726   1.154 -1.2309 -1.4668 -1.2050
   42MOL    H65 6707   4.055   0.701   1.038 -0.7353  0.5335  0.1708
   42MOL    C66 6708   3.966   0.502   0.933 -0.0383 -0.6754 -0.7275
   42MOL    C67 6709   4.079   0.563   0.839  0.4677  0.0771  0.2468
   42MOL    N68 6710   4.164   0.463   0.789 -0.3598  0.3132  0.4373
   42MOL    H69 6711   4.007   0.412   0.979 -0.9812  0.1052  1.6681
   42MOL    H70 6712   3.889   0.470   0.862 -1.3060 -0.0623  0.3518
   42MOL    H71 6713   4.146   0.629   0.895  0.1881  0.1934  0.4465
   42MOL    H72 6714   4.127   0.409   0.713  3.0685 -2.6007  0.6982
   42MOL    H73 6715   4.178   0.389   0.856 -2.3593 -1.5725 -1.1540
   42MOL    C74 6716   4.029   0.652   0.722  0.1857  0.1001 -0.1643
   42MOL    C75 6717   3.976   0.792   0.766  0.4852 -0.2381 -0.2416
   42MOL    N76 6718   4.050   0.896   0.699 -0.0275 -0.1062 -0.5383
   42MOL    H77 6719   4.113   0.659   0.652  2.0248 -0.5331  1.9256
   42MOL    H78 6720   3.953   0.603   0.661 -0.5851 -0.2005  1.0234
   42MOL    H79 6721   4.006   0.809   0.869 -3.4117  0.8090  0.8027
   42MOL    H80 6722   4.022   0.880   0.603 -1.4048 -0.3550 -0.0978
   42MOL    H81 6723   4.012   0.988   0.716 -1.9594 -0.5551 -2.1923
   42MOL    C82 6724   3.824   0.812   0.741  0.2100 -0.2705  1.1107
   42MOL    C83 6725   3.761   0.947   0.762 -0.5228 -0.4961 -0.0509
   42MOL    N84 6726   3.619   0.929   0.730 -0.1288 -0.1030 -0.9015
   42MOL    H85 6727   3.809   0.790   0.635  1.5450  3.1215  0.1770
   42MOL    H86 6728   3.768   0.745   0.806 -2.6578  0.8241 -0.1625
   42MOL    H87 6729   3.814   1.019   0.701 -0.4110 -1.3072 -0.9343
   42MOL    H88 6730   3.616   0.887   0.638 -0.5484 -1.0353 -0.4627
   42MOL    H89 6731   3.583   0.857   0.790 -0.9599 -1.2292 -2.7162
   42MOL    C90 6732   3.786   0.985   0.909  0.1578  0.4062 -0.6781
   42MOL    C91 6733   3.794   1.137   0.937 -0.5043  0.2737 -0.2876
   42MOL    N92 6734   3.779   1.153   1.083 -0.2773  0.1006  0.1352
   42MOL    H93 6735   3.694   0.951   0.956  0.3102  0.9702  0.0455
   42MOL    H94 6736   3.873   0.933   0.948  0.0040  0.2351 -0.5632
   42MOL    H95 6737   3.717   1.196   0.885 -1.5518  0.7957  1.7973
   42MOL    H96 6738   3.824   1.242   1.103  0.5573  0.2997 -2.4054
   42MOL    H97 6739   3.683   1.175   1.103  0.8380  2.0835  3.8768
   42MOL    C98 6740   3.934   1.192   0.902 -0.8715  1.0776  0.4144
   42MOL    C99 6741   3.927   1.330   0.827 -0.0322  0.5712 -0.6164
   42MOL   N100 6742   4.049   1.403   0.848 -0.3539  0.1584  0.8069
   42MOL   H101 6743   4.009   1.196   0.981  0.5611 -1.8220 -0.7277
   42MOL   H102 6744   3.980   1.122   0.832  0.6072  0.6041  1.8259
   42MOL   H103 6745   3.846   1.385   0.874  1.6623  2.9227 -0.3424
   42MOL   H104 6746   4.035   1.492   0.801 -1.2707  1.0185  2.6842
   42MOL   H105 6747   4.072   1.418   0.945  0.3625 -0.3908  0.7220
   42MOL   C106 6748   3.902   1.324   0.671 -0.1869 -0.2338  0.4492
   42MOL   C107 6749   3.808   1.422   0.614  0.1013  0.5814 -0.1612
   42MOL   N108 6750   3.842   1.445   0.477 -0.1236  0.2872  0.0630
   42MOL   H109 6751   3.997   1.328   0.618 -0.8767  1.7535 -0.7089
   42MOL   H110 6752   3.861   1.227   0.644 -1.7219 -0.3762  3.1658
   42MOL   H111 6753   3.827   1.517   0.663 -0.5517  0.8328 -0.3790
   42MOL   H112 6754   3.806   1.523   0.423 -1.7433 -0.0178  0.6630
   42MOL   H113 6755   3.942   1.448   0.465  0.3048 -2.4959  2.3627
   42MOL   C114 6756   3.663   1.376   0.625  0.1925 -1.0405  0.2684
   42MOL   C115 6757   3.555   1.471   0.558 -0.2829 -0.5505 -0.5048
   42MOL   N116 6758   3.440   1.388   0.553  0.5187 -0.3787 -0.2244
   42MOL   H117 6759   3.665   1.279   0.576  0.0846 -1.1304  0.4425
   42MOL   H118 6760   3.627   1.364   0.727  1.3096  1.0993  0.9542
   42MOL   H119 6761   3.586   1.492   0.456 -0.7455  3.1621  0.0368
   42MOL   H120 6762   3.383   1.400   0.636  1.7844 -1.6341  0.8349
   42MOL   H121 6763   3.373   1.432   0.491  1.3680  0.4205 -0.5845
   42MOL   C122 6764   3.533   1.600   0.643  0.4558  0.2059  0.1113
   42MOL   C123 6765   3.619   1.728   0.608  0.4434 -0.3079  0.5948
   42MOL   N124 6766   3.595   1.776   0.481  0.4039  0.1087  0.5760
   42MOL   H125 6767   3.428   1.623   0.627  0.6427  0.6751 -0.4725
   42MOL   H126 6768   3.535   1.580   0.750 -0.7742  0.6018  0.2190
   42MOL   H127 6769   3.725   1.704   0.604  0.8153  1.2755  0.9300
   42MOL   H128 6770   3.503   1.752   0.448  0.8314 -0.7514 -0.0214
   42MOL   H129 6771   3.661   1.732   0.419 -3.0431 -2.7226 -1.2721
   42MOL   C130 6772   3.588   1.844   0.709  0.8354 -0.2949 -0.5393
   42MOL   C131 6773   3.676   1.842   0.843 -0.3681  0.6566 -0.3012
   42MOL   N132 6774   3.797   1.908   0.813  0.8108 -0.1557 -0.8287
   42MOL   H133 6775   3.598   1.940   0.658 -0.5012  0.7078  1.0392
   42MOL   H134 6776   3.484   1.835   0.742  0.6395  1.2143 -0.7319
   42MOL   H135 6777   3.697   1.739   0.870  1.7289  0.5735 -2.0802
   42MOL   H136 6778   3.824   1.957   0.897 -1.1335  0.9182 -0.8206
   42MOL   H137 6779   3.770   1.990   0.760 -0.7867  1.0852  1.8205
   42MOL   C138 6780   3.609   1.925   0.953  0.0031  0.1013  0.7122
   42MOL   C139 6781   3.647   1.885   1.102  0.1052  0.4932  0.5343
   42MOL   N140 6782   3.589   1.982   1.191 -0.0400 -0.7720 -0.1280
   42MOL   H141 6783   3.631   2.031   0.956 -0.3078  0.1406  2.5186
   42MOL   H142 6784   3.501   1.917   0.947  0.1656 -1.0334 -1.3796
   42MOL   H143 6785   3.753   1.898   1.120  0.3414  0.5836 -0.8873
   42MOL   H144 6786   3.652   2.059   1.201 -0.1616 -0.0653 -3.9164
   42MOL   H145 6787   3.505   2.029   1.159  0.4157  1.1470  1.4169
   42MOL   C146 6788   3.599   1.743   1.154 -0.4171  0.0701 -0.5351
   42MOL   C147 6789   3.709   1.631   1.145 -0.3804  0.4549 -0.7906
   42MOL   N148 6790   3.823   1.669   1.227  0.0155 -0.5208 -0.0479
   42MOL   H149 6791   3.552   1.750   1.253 -1.9298 -0.3031 -1.2097
   42MOL   H150 6792   3.519   1.716   1.085  1.0571 -1.1452 -1.7901
   42MOL   H151 6793   3.734   1.632   1.039  0.6742 -1.9065 -0.5858
   42MOL   H152 6794   3.872   1.581   1.236  0.7749  0.0681  1.7814
   42MOL   H153 6795   3.786   1.669   1.321 -0.5094 -1.4828 -0.2463
   42MOL   C154 6796   3.656   1.492   1.193  0.2941 -0.9809  0.5983
   42MOL   C155 6797   3.568   1.428   1.093  0.2460 -0.0959  0.0504
   42MOL   N156 6798   3.515   1.312   1.165  0.2183  0.2863 -0.1355
   42MOL   H157 6799   3.741   1.425   1.208  0.0224 -1.1489  1.3791
   42MOL   H158 6800   3.602   1.501   1.287 -0.1517  1.4782  0.1415
   42MOL   H159 6801   3.620   1.395   1.003  0.6070  0.0434  0.2070
   42MOL   H160 6802   3.446   1.323   1.238 -2.5824 -0.7189 -2.4941
   42MOL   H161 6803   3.448   1.267   1.104  1.2395 -0.9157 -0.3883
   42MOL   H162 6804   3.490   1.497   1.062 -0.2181 -2.0837 -3.4655
   43MOL     C1 6805   4.838   6.043   4.161 -0.5301  0.0183  0.0374
   43MOL     C2 6806   4.923   6.151   4.232  0.3357 -0.3217  0.5016
   43MOL     N3 6807   5.054   6.100   4.223  0.0468 -0.6765  0.1013
   43MOL     H4 6808   4.875   6.019   4.061  0.6687 -0.8918  0.6838
   43MOL     H5 6809   4.731   6.061   4.171  0.2132  4.2448  1.5135
   43MOL     H6 6810   4.889   6.171   4.334  1.5035  3.0121  0.2904
   43MOL     H7 6811   5.103   6.160   4.289 -2.4643 -0.9138  2.2914
   43MOL     H8 6812   5.063   6.006   4.259  0.1486 -0.6018  0.2756
   43MOL     H9 6813   4.851   5.953   4.220  0.3329  0.6054  0.7691
   43MOL    C10 6814   4.917   6.286   4.156 -0.3936  0.3893  0.4025
   43MOL    C11 6815   4.784   6.373   4.176  0.0749 -0.6175  0.0291
   43MOL    N12 6816   4.824   6.509   4.162  0.0246  0.3268  0.1261
   43MOL    H13 6817   4.997   6.345   4.200  2.7927 -2.7249 -1.0020
   43MOL    H14 6818   4.947   6.278   4.052 -0.2005  0.0580  0.4826
   43MOL    H15 6819   4.744   6.352   4.275  1.6100 -0.0112  0.7919
   43MOL    H16 6820   4.752   6.556   4.110 -0.2528  0.4197  0.5875
   43MOL    H17 6821   4.902   6.506   4.097  0.8682 -2.9073  1.1505
   43MOL    C18 6822   4.671   6.340   4.078  0.0609  0.2383 -0.3298
   43MOL    C19 6823   4.527   6.353   4.131 -0.2997 -0.0900 -0.2910
   43MOL    N20 6824   4.443   6.357   4.006 -0.0946 -0.1827  0.0920
   43MOL    H21 6825   4.688   6.408   3.995  0.1089 -1.0834 -1.4230
   43MOL    H22 6826   4.691   6.248   4.023  1.0924  0.7175 -0.7732
   43MOL    H23 6827   4.512   6.441   4.194  0.7056  1.1810 -1.8036
   43MOL    H24 6828   4.350   6.380   4.037 -0.1740 -0.5876  0.1567
   43MOL    H25 6829   4.465   6.438   3.949  0.4453  0.1205  0.7175
   43MOL    C26 6830   4.485   6.234   4.216 -0.1413  1.0447  0.4051
   43MOL    C27 6831   4.347   6.250   4.284  0.2683  0.2162  0.1517
   43MOL    N28 6832   4.272   6.123   4.279 -0.1668  0.0801  0.2775
   43MOL    H29 6833   4.473   6.147   4.152 -0.1293  1.4176 -0.1079
   43MOL    H30 6834   4.559   6.191   4.283 -1.2997  0.2850  1.2099
   43MOL    H31 6835   4.285   6.321   4.229  1.6851  0.9154 -0.5846
   43MOL    H32 6836   4.174   6.148   4.291  0.6373  3.0501  1.1549
   43MOL    H33 6837   4.273   6.075   4.190  1.8544 -1.8659  1.3084
   43MOL    C34 6838   4.339   6.281   4.434  0.5534  0.0982  0.2325
   43MOL    C35 6839   4.410   6.407   4.486 -0.3953  0.1174 -0.1767
   43MOL    N36 6840   4.356   6.518   4.416  0.6083  0.0004 -0.5812
   43MOL    H37 6841   4.234   6.283   4.466  0.1845 -1.4082 -0.8313
   43MOL    H38 6842   4.388   6.195   4.480 -1.8304 -1.2381  0.3464
   43MOL    H39 6843   4.518   6.406   4.475 -0.0610  0.2132  2.5973
   43MOL    H40 6844   4.397   6.609   4.432 -1.0800  0.7584 -0.4623
   43MOL    H41 6845   4.261   6.523   4.449 -0.5665 -3.9928 -2.9642
   43MOL    C42 6846   4.381   6.430   4.641  0.3809 -0.2674  0.4574
   43MOL    C43 6847   4.409   6.303   4.730  0.6181  0.2314 -0.1191
   43MOL    N44 6848   4.470   6.357   4.851 -0.3138  0.0859  0.2180
   43MOL    H45 6849   4.460   6.502   4.662 -1.2088  1.7828 -0.3424
   43MOL    H46 6850   4.287   6.483   4.660  0.3833  0.0574 -0.3763
   43MOL    H47 6851   4.476   6.235   4.677 -0.0808 -1.4488  1.1110
   43MOL    H48 6852   4.566   6.383   4.830 -0.0239 -0.7910  0.4216
   43MOL    H49 6853   4.491   6.273   4.904 -0.1417  1.2422  2.0389
   43MOL    C50 6854   4.280   6.240   4.777 -0.4013  0.9478  0.1860
   43MOL    C51 6855   4.303   6.107   4.854  0.3177  0.0124 -0.0154
   43MOL    N52 6856   4.163   6.059   4.876  0.4738 -0.1800 -0.2101
   43MOL    H53 6857   4.224   6.321   4.826 -1.4041  1.2609 -1.4057
   43MOL    H54 6858   4.214   6.225   4.691 -0.0296  0.9521 -0.1021
   43MOL    H55 6859   4.339   6.139   4.952 -0.7028  0.3902  0.2449
   43MOL    H56 6860   4.101   6.126   4.918  0.6724 -1.1255  1.6271
   43MOL    H57 6861   4.126   6.053   4.783 -2.2486  0.5674  0.7918
   43MOL    C58 6862   4.391   6.000   4.787 -0.1663 -0.0402 -0.1578
   43MOL    C59 6863   4.534   5.984   4.839  0.0014 -0.5420 -0.6686
   43MOL    N60 6864   4.529   5.919   4.971  0.4041  0.3556 -0.0241
   43MOL    H61 6865   4.340   5.904   4.793  0.0252 -0.2015 -1.1549
   43MOL    H62 6866   4.387   6.030   4.683 -2.9394 -1.1003 -0.3824
   43MOL    H63 6867   4.580   6.082   4.848 -0.7956 -0.1985 -0.2756
   43MOL    H64 6868   4.473   5.981   5.027 -0.7697  0.0423 -0.8204
   43MOL    H65 6869   4.624   5.932   5.002  0.1866  0.6889  0.5043
   43MOL    C66 6870   4.627   5.893   4.745  0.6871 -0.6976  0.1419
   43MOL    C67 6871   4.698   5.962   4.627 -0.2546  0.1418  0.5082
   43MOL    N68 6872   4.813   6.044   4.671 -0.5762  0.1193  0.0370
   43MOL    H69 6873   4.713   5.855   4.800  1.3778  0.2128 -0.2978
   43MOL    H70 6874   4.565   5.811   4.710 -1.7833  2.3487 -3.0054
   43MOL    H71 6875   4.624   6.013   4.566 -1.2960 -0.5724  1.1460
   43MOL    H72 6876   4.886   6.002   4.726 -0.4174  0.8867  0.4271
   43MOL    H73 6877   4.863   6.097   4.600  0.8597 -0.3532  0.6669
   43MOL    C74 6878   4.743   5.846   4.535  0.0696  0.9189 -0.2061
   43MOL    C75 6879   4.636   5.758   4.456  0.4671 -0.0060  0.3834
   43MOL    N76 6880   4.554   5.843   4.365  0.1030 -0.2801 -0.0417
   43MOL    H77 6881   4.806   5.881   4.453  1.5313 -1.7859 -0.2892
   43MOL    H78 6882   4.805   5.775   4.589  1.0444  0.2171 -2.1879
   43MOL    H79 6883   4.562   5.709   4.520  0.3484  0.6798  0.7716
   43MOL    H80 6884   4.602   5.909   4.306 -0.9869  1.0984  0.5737
   43MOL    H81 6885   4.499   5.897   4.431 -0.4499  1.7033 -2.0602
   43MOL    C82 6886   4.705   5.646   4.376  0.1662 -0.7678  0.8212
   43MOL    C83 6887   4.610   5.544   4.318 -0.0734  0.0174  0.7006
   43MOL    N84 6888   4.681   5.485   4.206  0.0063  0.0493  1.1438
   43MOL    H85 6889   4.744   5.697   4.288  0.8008  0.1039  1.6009
   43MOL    H86 6890   4.788   5.597   4.428  0.9443  1.7532  2.0479
   43MOL    H87 6891   4.525   5.601   4.281  1.2342 -0.0735 -2.6176
   43MOL    H88 6892   4.763   5.536   4.177 -1.4410  1.7506  0.0210
   43MOL    H89 6893   4.628   5.471   4.122 -0.3620 -0.7685  1.5076
   43MOL    C90 6894   4.575   5.436   4.427  0.8278  0.3656  0.4372
   43MOL    C91 6895   4.451   5.344   4.380 -0.1896  0.3751  0.2808
   43MOL    N92 6896   4.449   5.224   4.462  0.1175  0.1033  0.7529
   43MOL    H93 6897   4.658   5.366   4.440  1.9158  1.6821  0.6202
   43MOL    H94 6898   4.563   5.488   4.522  0.3179  0.5948  0.2476
   43MOL    H95 6899   4.468   5.314   4.276 -0.9929 -1.2807  0.6207
   43MOL    H96 6900   4.370   5.166   4.440 -0.8027  0.4526  3.0706
   43MOL    H97 6901   4.522   5.158   4.438  0.1160  0.4181 -0.1427
   43MOL    C98 6902   4.317   5.420   4.398  0.3985  0.1102  0.3017
   43MOL    C99 6903   4.246   5.439   4.254  0.0531 -0.0652  0.3078
   43MOL   N100 6904   4.182   5.314   4.200 -0.8547 -0.0809  0.2834
   43MOL   H101 6905   4.255   5.372   4.474 -0.8098 -0.4572 -1.0188
   43MOL   H102 6906   4.335   5.518   4.440  0.6102  1.6260 -3.1685
   43MOL   H103 6907   4.315   5.471   4.177  0.7232  0.6557  1.1956
   43MOL   H104 6908   4.246   5.242   4.169 -1.0521 -0.8240  1.5698
   43MOL   H105 6909   4.118   5.328   4.123 -1.0462  0.4086  0.5323
   43MOL   C106 6910   4.133   5.549   4.266  0.7498 -0.1638 -0.5158
   43MOL   C107 6911   4.186   5.687   4.228  0.1945 -0.0352  1.1298
   43MOL   N108 6912   4.189   5.685   4.082 -0.2700  0.2566 -0.1481
   43MOL   H109 6913   4.045   5.529   4.205  0.5214 -0.1322 -0.2007
   43MOL   H110 6914   4.111   5.545   4.373 -3.5751  1.1888 -1.2619
   43MOL   H111 6915   4.287   5.701   4.265  0.5948 -1.7026  0.7261
   43MOL   H112 6916   4.099   5.682   4.035 -0.1295 -3.9932 -0.3628
   43MOL   H113 6917   4.250   5.760   4.052  0.5239 -0.1113  0.5459
   43MOL   C114 6918   4.114   5.816   4.283  0.7285  0.6446 -0.0637
   43MOL   C115 6919   4.119   5.843   4.436 -0.2272 -0.2094  0.1502
   43MOL   N116 6920   4.248   5.904   4.461  1.1777  0.5923  0.1219
   43MOL   H117 6921   4.138   5.908   4.229  0.5225  0.9658  0.3928
   43MOL   H118 6922   4.014   5.793   4.248 -0.1825  1.2080  2.0863
   43MOL   H119 6923   4.111   5.751   4.493 -0.6784  0.6380  1.4745
   43MOL   H120 6924   4.318   5.848   4.416 -0.4217  0.6632 -2.5417
   43MOL   H121 6925   4.248   5.987   4.404 -0.8444 -0.5331 -1.5810
   43MOL   C122 6926   4.009   5.951   4.472 -0.0236 -0.2908 -0.1107
   43MOL   C123 6927   4.012   6.023   4.608 -0.1521 -0.4130 -0.9291
   43MOL   N124 6928   3.944   6.146   4.591 -0.3551 -0.3085  0.4069
   43MOL   H125 6929   4.017   6.028   4.396 -3.7906 -0.4358 -0.7332
   43MOL   H126 6930   3.910   5.910   4.451  0.8737 -2.4277 -0.2383
   43MOL   H127 6931   4.116   6.034   4.638 -0.2862 -1.0289 -0.2177
   43MOL   H128 6932   3.972   6.182   4.501 -0.2562 -0.2233  0.4717
   43MOL   H129 6933   3.848   6.116   4.576 -0.1703 -0.1600 -1.1236
   43MOL   C130 6934   3.937   5.945   4.708  0.1070 -1.0073 -0.9158
   43MOL   C131 6935   3.982   5.794   4.722  0.2393  0.6557  0.5227
   43MOL   N132 6936   4.126   5.788   4.749 -0.1749  0.5363 -0.6016
   43MOL   H133 6937   3.949   6.008   4.795  1.9510  1.2876 -2.7669
   43MOL   H134 6938   3.831   5.944   4.682 -0.2320 -1.9086  0.4379
   43MOL   H135 6939   3.975   5.748   4.623  1.3961 -2.3244  1.7681
   43MOL   H136 6940   4.172   5.852   4.686 -2.4083  0.8462 -1.9756
   43MOL   H137 6941   4.139   5.832   4.839 -0.3764  1.1315 -0.8622
   43MOL   C138 6942   3.904   5.735   4.836 -0.1354 -0.0529 -0.5650
   43MOL   C139 6943   3.904   5.581   4.836  0.2439  0.4291  0.3476
   43MOL   N140 6944   3.861   5.531   4.968  0.0048  0.2637  0.0238
   43MOL   H141 6945   3.950   5.772   4.928 -3.3642  3.3583 -0.1969
   43MOL   H142 6946   3.805   5.780   4.837 -0.2184 -0.1747  2.3818
   43MOL   H143 6947   4.001   5.532   4.841 -0.2672 -0.4467  2.1001
   43MOL   H144 6948   3.849   5.431   4.977  1.2522 -0.0156 -1.3001
   43MOL   H145 6949   3.937   5.535   5.034  0.9483 -0.6080 -1.0019
   43MOL   C146 6950   3.823   5.511   4.722 -0.0205  0.3362 -0.6956
   43MOL   C147 6951   3.916   5.469   4.601  0.3946 -0.4308 -0.0972
   43MOL   N148 6952   3.991   5.352   4.637  0.7343 -0.4047 -0.0908
   43MOL   H149 6953   3.798   5.418   4.773  1.2311 -0.5866 -1.7409
   43MOL   H150 6954   3.736   5.573   4.702  0.7352  1.9068  0.6939
   43MOL   H151 6955   3.992   5.536   4.562 -0.7724  0.4597 -0.8930
   43MOL   H152 6956   4.063   5.338   4.568  0.0282 -0.9732 -0.7258
   43MOL   H153 6957   4.037   5.378   4.723 -0.3841  0.6168  0.2107
   43MOL   C154 6958   3.826   5.450   4.480  0.3417  0.3901 -0.4100
   43MOL   C155 6959   3.785   5.588   4.425 -0.1077  0.3607 -0.5398
   43MOL   N156 6960   3.709   5.579   4.302  0.8129  0.4677  0.5508
   43MOL   H157 6961   3.889   5.408   4.402  0.4960 -1.7396  0.8059
   43MOL   H158 6962   3.732   5.396   4.493 -0.1523  0.7499 -2.3788
   43MOL   H159 6963   3.865   5.661   4.420  0.0148  0.3193  0.6613
   43MOL   H160 6964   3.664   5.490   4.317 -2.8564  2.1731  0.3242
   43MOL   H161 6965   3.627   5.638   4.301 -0.0137 -0.6598  1.1142
   43MOL   H162 6966   3.710   5.632   4.491  0.8204 -1.8792  2.0891
   44MOL     C1 6967   5.215   4.935   0.867 -0.0409  0.1641  0.4640
   44MOL     C2 6968   5.181   4.796   0.828  0.1752  0.1753 -0.2725
   44MOL     N3 6969   5.239   4.702   0.923  0.1881 -0.5743  0.2981
   44MOL     H4 6970   5.319   4.963   0.852 -0.5689  1.1541 -1.4724
   44MOL     H5 6971   5.177   4.965   0.965  0.9578  1.7669  0.3687
   44MOL     H6 6972   5.227   4.777   0.732 -0.7853 -1.7674 -0.3585
   44MOL     H7 6973   5.205   4.721   1.016  0.6803 -0.0680  0.3837
   44MOL     H8 6974   5.209   4.610   0.894  0.5382 -0.8081  0.6664
   44MOL     H9 6975   5.164   5.007   0.803  0.0409  0.0301  0.2474
   44MOL    C10 6976   5.030   4.769   0.826  0.1483  0.1609  0.5411
   44MOL    C11 6977   4.995   4.660   0.715  1.0336  0.4129  0.7988
   44MOL    N12 6978   4.893   4.573   0.771  0.0100  0.2919 -0.2227
   44MOL    H13 6979   4.995   4.756   0.928  0.6722  1.6941  0.9324
   44MOL    H14 6980   4.984   4.860   0.788 -0.8372 -1.1607 -1.4872
   44MOL    H15 6981   5.086   4.604   0.693 -0.8540 -1.4304 -2.4259
   44MOL    H16 6982   4.904   4.484   0.725 -1.6522 -0.1270  0.1420
   44MOL    H17 6983   4.801   4.598   0.738 -0.4891  0.9832  1.6117
   44MOL    C18 6984   4.958   4.720   0.580  0.3288 -0.0145  0.1431
   44MOL    C19 6985   5.080   4.731   0.476 -0.2087 -0.0030 -0.2912
   44MOL    N20 6986   5.087   4.611   0.409 -0.2089  0.4739 -0.0975
   44MOL    H21 6987   4.879   4.661   0.533  0.8342 -3.6840  3.6224
   44MOL    H22 6988   4.922   4.823   0.587 -1.5333 -0.6025 -0.6707
   44MOL    H23 6989   5.167   4.748   0.540  0.2842 -1.9365 -0.4099
   44MOL    H24 6990   5.170   4.607   0.352  0.8935 -3.7854  1.6473
   44MOL    H25 6991   5.103   4.533   0.471 -0.8387 -0.0965 -0.6429
   44MOL    C26 6992   5.067   4.842   0.369 -0.5576 -0.2621 -0.6242
   44MOL    C27 6993   5.075   4.986   0.410  0.2422  0.8738  0.5003
   44MOL    N28 6994   5.157   5.052   0.312  0.0245 -0.1933  0.3840
   44MOL    H29 6995   5.142   4.822   0.292 -0.0142 -1.5340  0.2214
   44MOL    H30 6996   4.976   4.827   0.310 -2.6812 -0.4306  2.5843
   44MOL    H31 6997   5.108   4.976   0.514  0.4984 -0.4567  0.3054
   44MOL    H32 6998   5.110   5.039   0.223  1.2728  0.2737 -0.3504
   44MOL    H33 6999   5.247   5.008   0.300 -0.0203 -0.1600 -0.0958
   44MOL    C34 7000   4.935   5.052   0.406  0.3540 -0.2758  0.2888
   44MOL    C35 7001   4.927   5.188   0.486  0.0678 -0.4519  0.6241
   44MOL    N36 7002   4.806   5.255   0.439 -0.6734  0.9225 -0.0400
   44MOL    H37 7003   4.896   5.063   0.305 -2.8651 -1.4199  1.3182
   44MOL    H38 7004   4.848   4.992   0.436  0.4950 -0.0225  1.2279
   44MOL    H39 7005   5.007   5.257   0.460 -1.9471  0.8784 -2.1837
   44MOL    H40 7006   4.815   5.349   0.474 -2.3025  1.2318 -0.4246
   44MOL    H41 7007   4.743   5.217   0.509  0.5047  1.3197  1.2703
   44MOL    C42 7008   4.931   5.170   0.644  0.3160  0.2549  0.5064
   44MOL    C43 7009   4.968   5.295   0.730 -0.3819  0.9395  0.0792
   44MOL    N44 7010   4.864   5.387   0.729  0.1948  0.1584  0.4148
   44MOL    H45 7011   4.833   5.142   0.682  0.2499  0.1071  0.2342
   44MOL    H46 7012   5.002   5.090   0.663 -1.2139 -0.7374  2.1108
   44MOL    H47 7013   5.051   5.343   0.679 -0.4875  0.0457 -0.9575
   44MOL    H48 7014   4.883   5.424   0.821 -1.4743 -1.5843  1.5165
   44MOL    H49 7015   4.897   5.460   0.668  1.1181  1.7044  2.6782
   44MOL    C50 7016   4.990   5.255   0.882 -0.5475 -0.3045  0.1890
   44MOL    C51 7017   5.091   5.352   0.955 -0.5524 -1.0570 -1.0753
   44MOL    N52 7018   5.083   5.326   1.096 -0.2842 -0.6909 -0.2191
   44MOL    H53 7019   4.896   5.248   0.937 -0.0963 -3.6496  0.6638
   44MOL    H54 7020   5.025   5.155   0.906 -1.3658 -0.4748  0.7009
   44MOL    H55 7021   5.072   5.459   0.948 -0.2566 -0.9658 -0.4672
   44MOL    H56 7022   5.106   5.228   1.098  0.8473 -0.4624 -1.3026
   44MOL    H57 7023   5.163   5.366   1.143 -2.5357  0.8730  2.4711
   44MOL    C58 7024   5.233   5.308   0.916  0.3426  0.2090 -0.9253
   44MOL    C59 7025   5.338   5.420   0.918  0.1508 -0.5494  0.5191
   44MOL    N60 7026   5.468   5.359   0.941 -0.2444 -0.4406 -0.1145
   44MOL    H61 7027   5.266   5.227   0.981  0.4775  0.3335 -0.8366
   44MOL    H62 7028   5.230   5.267   0.815  0.5216  1.6601 -1.5376
   44MOL    H63 7029   5.309   5.485   1.001  0.6897 -2.3607  2.1560
   44MOL    H64 7030   5.503   5.326   0.852 -0.7622 -2.8320  0.5335
   44MOL    H65 7031   5.520   5.445   0.952 -1.0579 -0.2692  2.9460
   44MOL    C66 7032   5.338   5.506   0.786 -0.1359  1.0816 -0.1600
   44MOL    C67 7033   5.249   5.635   0.791 -0.8271 -0.1988  0.3950
   44MOL    N68 7034   5.298   5.731   0.887 -0.0485  0.2222 -0.5544
   44MOL    H69 7035   5.443   5.525   0.762  0.0996 -0.8413 -0.7124
   44MOL    H70 7036   5.304   5.445   0.703 -3.6238  0.7497  1.4337
   44MOL    H71 7037   5.148   5.600   0.812 -1.2878 -1.1885 -3.0894
   44MOL    H72 7038   5.290   5.678   0.972 -0.4532  1.9911  0.5326
   44MOL    H73 7039   5.225   5.799   0.903 -1.5008 -1.4707  0.2109
   44MOL    C74 7040   5.235   5.702   0.652 -0.2339 -0.3911  0.2087
   44MOL    C75 7041   5.150   5.616   0.556  0.5273  0.0803 -0.5590
   44MOL    N76 7042   5.009   5.631   0.595 -0.0395 -0.8933 -0.0712
   44MOL    H77 7043   5.186   5.799   0.658 -2.4177 -1.4461 -0.0799
   44MOL    H78 7044   5.334   5.729   0.615 -0.5064  0.1334 -0.1477
   44MOL    H79 7045   5.180   5.511   0.552  0.7092  0.0693  0.9209
   44MOL    H80 7046   4.994   5.730   0.602  3.8644 -0.1944 -0.5091
   44MOL    H81 7047   4.956   5.616   0.510 -1.4138  2.9952 -0.0105
   44MOL    C82 7048   5.156   5.647   0.403  0.5129 -0.0003 -0.0064
   44MOL    C83 7049   5.147   5.518   0.308 -0.3523  0.3427  0.1443
   44MOL    N84 7050   5.080   5.551   0.185 -0.0626  0.0960  0.2113
   44MOL    H85 7051   5.084   5.724   0.375 -1.1252 -1.5968 -0.2687
   44MOL    H86 7052   5.252   5.691   0.373  0.5407 -0.6596 -0.8910
   44MOL    H87 7053   5.090   5.438   0.355 -0.3201  0.5745  0.5791
   44MOL    H88 7054   5.018   5.628   0.204 -0.2498 -0.8740  3.7756
   44MOL    H89 7055   5.018   5.473   0.170  0.0855 -0.1905  1.1079
   44MOL    C90 7056   5.285   5.461   0.287  0.4417  0.0469  0.2464
   44MOL    C91 7057   5.363   5.400   0.404 -0.3179  0.2025  0.5546
   44MOL    N92 7058   5.283   5.288   0.458 -0.1473 -0.4128  0.0986
   44MOL    H93 7059   5.270   5.383   0.213 -2.8405  1.5396 -0.7884
   44MOL    H94 7060   5.347   5.532   0.231 -0.8991  0.7300 -0.3951
   44MOL    H95 7061   5.370   5.466   0.490 -0.1751 -0.6820  1.2310
   44MOL    H96 7062   5.243   5.215   0.401  2.0429 -0.4615 -1.4572
   44MOL    H97 7063   5.207   5.320   0.515 -0.9980  0.7732 -1.6729
   44MOL    C98 7064   5.502   5.348   0.364 -0.7600  0.2262 -0.5300
   44MOL    C99 7065   5.603   5.458   0.316 -0.9740 -0.0553 -0.1067
   44MOL   N100 7066   5.662   5.523   0.438  0.4953 -0.3756  0.3453
   44MOL   H101 7067   5.532   5.285   0.448  0.6677  1.5761 -0.0003
   44MOL   H102 7068   5.483   5.267   0.294 -1.7455  0.6505 -0.7510
   44MOL   H103 7069   5.552   5.533   0.257 -0.1529  1.7429  1.4012
   44MOL   H104 7070   5.718   5.602   0.408  0.8755 -0.5763  0.5277
   44MOL   H105 7071   5.586   5.551   0.498  0.1091 -2.7554  1.0333
   44MOL   C106 7072   5.721   5.403   0.227  0.1386  0.0037 -0.0603
   44MOL   C107 7073   5.677   5.311   0.107 -0.2541  1.2902  0.3816
   44MOL   N108 7074   5.615   5.396   0.003 -0.3608  0.1734 -0.3001
   44MOL   H109 7075   5.774   5.492   0.193  2.4243 -1.0371  0.7071
   44MOL   H110 7076   5.780   5.344   0.296 -0.5177 -0.1748  0.3462
   44MOL   H111 7077   5.604   5.235   0.132 -0.2956  0.2772 -2.5833
   44MOL   H112 7078   5.636   5.366   7.184 -2.6982  1.5737 -1.3014
   44MOL   H113 7079   5.517   5.374   0.006  0.3806 -3.6836 -1.3374
   44MOL   C114 7080   5.793   5.226   0.046  0.2345  0.2703  0.4421
   44MOL   C115 7081   5.808   5.086   0.106  0.2876 -0.4236  0.3000
   44MOL   N116 7082   5.912   5.023   0.026  0.6603  0.7323 -0.4046
   44MOL   H117 7083   5.786   5.215   7.213  1.7046 -2.1154  0.5510
   44MOL   H118 7084   5.890   5.275   0.050  1.0480 -1.3781  1.6569
   44MOL   H119 7085   5.721   5.027   0.080  0.6529 -1.8554  2.2327
   44MOL   H120 7086   5.914   4.924   0.043  0.7746  0.8846  0.5109
   44MOL   H121 7087   5.895   5.030   7.202 -1.3838 -2.6743 -0.3798
   44MOL   C122 7088   5.848   5.086   0.259 -0.4351 -0.1736  0.0960
   44MOL   C123 7089   5.885   4.939   0.301  0.1315  0.1600 -0.0677
   44MOL   N124 7090   5.901   4.939   0.449  0.0483 -0.2876  0.0709
   44MOL   H125 7091   5.936   5.146   0.282 -0.1783 -0.3615 -0.3943
   44MOL   H126 7092   5.768   5.124   0.322  0.2027  2.4013 -0.5997
   44MOL   H127 7093   5.978   4.901   0.259  0.6195  1.2872 -0.0163
   44MOL   H128 7094   5.832   4.989   0.505 -1.0288 -1.3258 -0.3082
   44MOL   H129 7095   5.895   4.840   0.468  0.7736 -0.5849 -1.2264
   44MOL   C130 7096   5.771   4.835   0.256 -0.3140  0.2535  0.3144
   44MOL   C131 7097   5.615   4.844   0.282 -0.1703  0.1629 -0.3327
   44MOL   N132 7098   5.533   4.756   0.197 -0.1363 -0.9572 -0.4370
   44MOL   H133 7099   5.779   4.823   0.148  1.7184  2.8760  0.1269
   44MOL   H134 7100   5.811   4.738   0.288  0.2953  1.1459  2.3142
   44MOL   H135 7101   5.580   4.942   0.251 -0.3253  0.7507  1.6451
   44MOL   H136 7102   5.546   4.778   0.099 -3.5313 -0.6105 -0.8819
   44MOL   H137 7103   5.441   4.792   0.217  1.6170  3.7104 -0.1707
   44MOL   C138 7104   5.582   4.832   0.430  0.6603  0.1474 -0.3730
   44MOL   C139 7105   5.546   4.973   0.501  0.0185 -0.5217  0.1216
   44MOL   N140 7106   5.410   5.014   0.486 -0.1885 -0.0924  0.3754
   44MOL   H141 7107   5.491   4.774   0.448 -0.6765  2.3281  0.1189
   44MOL   H142 7108   5.665   4.787   0.484  0.2335 -0.5728 -0.3108
   44MOL   H143 7109   5.601   5.057   0.458  1.8239 -1.3613  0.7385
   44MOL   H144 7110   5.405   5.112   0.509  0.6740  0.5820 -2.1771
   44MOL   H145 7111   5.350   4.975   0.557 -1.7143  0.6521 -0.5026
   44MOL   C146 7112   5.572   4.962   0.649  0.2047  0.4412 -0.2100
   44MOL   C147 7113   5.598   5.096   0.727 -0.0394 -0.8088  0.0044
   44MOL   N148 7114   5.587   5.064   0.868 -0.3953  0.2004  0.1360
   44MOL   H149 7115   5.488   4.910   0.695 -1.0532  1.3746 -1.4290
   44MOL   H150 7116   5.660   4.903   0.675  1.2066  1.7950 -0.5012
   44MOL   H151 7117   5.519   5.169   0.707  2.0951  1.2982 -0.9610
   44MOL   H152 7118   5.499   5.020   0.892  1.1591 -2.7780  0.5792
   44MOL   H153 7119   5.592   5.152   0.918  1.6128 -0.6412  1.5045
   44MOL   C154 7120   5.733   5.157   0.686 -0.2003  0.2784 -0.4669
   44MOL   C155 7121   5.758   5.291   0.750  0.0755  0.2827 -0.5355
   44MOL   N156 7122   5.676   5.401   0.696 -0.3592 -0.3736 -0.4666
   44MOL   H157 7123   5.817   5.094   0.716  0.0125  0.2924 -1.0245
   44MOL   H158 7124   5.759   5.177   0.582 -0.6198  0.7684 -0.4776
   44MOL   H159 7125   5.863   5.317   0.739 -0.3801  1.6585 -1.7084
   44MOL   H160 7126   5.667   5.391   0.596 -0.5568  0.1825 -0.5034
   44MOL   H161 7127   5.732   5.484   0.707 -0.9641 -0.1919  1.5296
   44MOL   H162 7128   5.748   5.295   0.859 -0.3920 -1.8097 -0.4844
   45MOL     C1 7129   6.102   3.849   6.094  0.3632  0.3200 -0.0623
   45MOL     C2 7130   5.970   3.802   6.035 -0.1183 -0.5045  1.1551
   45MOL     N3 7131   5.994   3.722   5.914 -0.4220  0.0222 -0.3654
   45MOL     H4 7132   6.095   3.879   6.199 -2.2006  0.7621 -0.3156
   45MOL     H5 7133   6.151   3.926   6.034 -0.4914 -0.2172 -1.4726
   45MOL     H6 7134   5.909   3.884   5.998  1.1247  0.1488  0.5049
   45MOL     H7 7135   5.909   3.729   5.860 -0.1588  1.5378 -0.5865
   45MOL     H8 7136   6.068   3.760   5.857  0.3305 -1.7864 -0.6437
   45MOL     H9 7137   6.179   3.772   6.096  0.1504  0.1280  1.0665
   45MOL    C10 7138   5.893   3.710   6.119  0.1125  0.1304 -1.1622
   45MOL    C11 7139   5.812   3.789   6.230 -0.1877 -0.8246 -0.7015
   45MOL    N12 7140   5.707   3.879   6.180  0.6858  0.3648  0.1076
   45MOL    H13 7141   5.817   3.657   6.062 -1.1245 -0.4620  0.9857
   45MOL    H14 7142   5.954   3.627   6.153 -0.9531  0.0235  0.5592
   45MOL    H15 7143   5.872   3.853   6.296 -2.3046 -0.0490  0.5275
   45MOL    H16 7144   5.649   3.924   6.249  1.8811  0.3809  1.1194
   45MOL    H17 7145   5.748   3.958   6.132 -0.4630  1.3333  0.7006
   45MOL    C18 7146   5.744   3.690   6.332 -0.6515  0.5524  0.6919
   45MOL    C19 7147   5.839   3.612   6.424  0.6266  0.5766  0.6777
   45MOL    N20 7148   5.819   3.651   6.559 -0.3285  0.0095 -0.2487
   45MOL    H21 7149   5.687   3.759   6.394  1.3833  2.8756  0.0363
   45MOL    H22 7150   5.671   3.624   6.285  0.0668 -0.2217  0.6348
   45MOL    H23 7151   5.936   3.648   6.392 -0.4652  0.5060 -2.9870
   45MOL    H24 7152   5.850   3.746   6.573  2.3379 -0.7867 -0.5323
   45MOL    H25 7153   5.897   3.604   6.602 -0.0813  0.2727 -0.4118
   45MOL    C26 7154   5.830   3.458   6.410 -0.3956 -0.0288  0.4758
   45MOL    C27 7155   5.854   3.392   6.271 -0.5089  0.1035  0.3729
   45MOL    N28 7156   5.989   3.382   6.230  0.2542  0.1394 -0.5043
   45MOL    H29 7157   5.903   3.411   6.476  1.5057  0.5199 -1.2108
   45MOL    H30 7158   5.731   3.430   6.447 -0.0431 -1.4542  0.3651
   45MOL    H31 7159   5.803   3.459   6.203  1.9304  2.4798  0.8325
   45MOL    H32 7160   6.003   3.372   6.130  0.6530 -1.4780 -0.2940
   45MOL    H33 7161   6.031   3.469   6.261  0.1792 -0.6884  2.0413
   45MOL    C34 7162   5.783   3.247   6.245 -0.1048  0.5379 -0.3382
   45MOL    C35 7163   5.624   3.247   6.251 -0.4908  0.2112 -0.2900
   45MOL    N36 7164   5.582   3.277   6.113  0.4158  0.3328 -0.1333
   45MOL    H37 7165   5.819   3.213   6.148 -1.7707 -0.8764 -0.4855
   45MOL    H38 7166   5.827   3.186   6.324 -1.1248  0.2500  0.0261
   45MOL    H39 7167   5.594   3.338   6.303  2.7320  1.5829 -0.6589
   45MOL    H40 7168   5.626   3.364   6.083  1.3137 -0.0532  0.0398
   45MOL    H41 7169   5.482   3.288   6.110  0.1661 -1.2578  1.7682
   45MOL    C42 7170   5.562   3.112   6.315 -0.7188 -0.5772  0.4779
   45MOL    C43 7171   5.408   3.090   6.303  0.2131 -0.2352  0.0896
   45MOL    N44 7172   5.380   2.969   6.376 -0.3839  0.3376  0.2650
   45MOL    H45 7173   5.611   3.022   6.276  0.3572 -0.1531  0.8416
   45MOL    H46 7174   5.589   3.112   6.420  1.2807  0.7293 -0.0024
   45MOL    H47 7175   5.374   3.086   6.199 -0.3153  2.5673  0.1322
   45MOL    H48 7176   5.280   2.970   6.393 -0.9276 -0.0025 -2.5823
   45MOL    H49 7177   5.393   2.900   6.303  1.1548  0.6115  0.2603
   45MOL    C50 7178   5.325   3.203   6.365 -0.5964  0.1240  0.1154
   45MOL    C51 7179   5.261   3.295   6.260  0.3479 -0.9835 -0.5899
   45MOL    N52 7180   5.139   3.229   6.212 -0.3934  0.1511 -0.2470
   45MOL    H53 7181   5.238   3.163   6.419  1.1692  0.6820  3.5239
   45MOL    H54 7182   5.379   3.260   6.440  2.1306 -1.1688 -0.8155
   45MOL    H55 7183   5.335   3.319   6.183 -0.7079 -1.0002 -1.6297
   45MOL    H56 7184   5.146   3.216   6.112  2.8421 -0.7022  0.0470
   45MOL    H57 7185   5.066   3.299   6.210 -1.1280 -0.6236 -1.2956
   45MOL    C58 7186   5.216   3.437   6.317  0.6053 -0.1595 -0.7138
   45MOL    C59 7187   5.328   3.536   6.357 -0.5384 -0.5530  0.1335
   45MOL    N60 7188   5.355   3.622   6.244 -0.0749  0.0156 -0.5757
   45MOL    H61 7189   5.143   3.478   6.247 -0.6628  0.1465  0.7474
   45MOL    H62 7190   5.151   3.418   6.403  1.1611  1.9103  0.1832
   45MOL    H63 7191   5.418   3.475   6.366 -0.5034 -0.5396 -0.1176
   45MOL    H64 7192   5.334   3.577   6.157  1.3893 -0.2951 -0.7764
   45MOL    H65 7193   5.452   3.650   6.234 -0.4370  2.4220  1.9094
   45MOL    C66 7194   5.295   3.611   6.484  0.1063 -0.2059 -0.0955
   45MOL    C67 7195   5.422   3.642   6.563 -0.2694  0.0437 -0.5285
   45MOL    N68 7196   5.452   3.780   6.549 -0.0713 -0.3172 -0.2810
   45MOL    H69 7197   5.230   3.695   6.458 -0.4428 -1.3043 -2.3701
   45MOL    H70 7198   5.235   3.558   6.558  2.2107  0.0054  1.8089
   45MOL    H71 7199   5.505   3.596   6.509  0.1339  1.5278 -1.2036
   45MOL    H72 7200   5.550   3.787   6.573  0.3727  1.6495 -2.5376
   45MOL    H73 7201   5.444   3.788   6.448 -3.5013  1.1271  0.0335
   45MOL    C74 7202   5.437   3.594   6.707  0.2012 -0.1000 -0.6441
   45MOL    C75 7203   5.469   3.448   6.713 -0.1603  0.2645  0.4440
   45MOL    N76 7204   5.609   3.432   6.736  0.1186  0.4263 -0.2823
   45MOL    H77 7205   5.515   3.654   6.753 -0.2065  0.3188 -0.5023
   45MOL    H78 7206   5.344   3.627   6.753  1.5476  0.6840  1.5732
   45MOL    H79 7207   5.452   3.400   6.616 -0.1355 -0.5456  0.8396
   45MOL    H80 7208   5.656   3.491   6.669 -0.4636  1.2853  0.0478
   45MOL    H81 7209   5.655   3.345   6.714  1.0577  0.9292 -0.3545
   45MOL    C82 7210   5.389   3.373   6.821  0.0431 -0.1355 -0.2476
   45MOL    C83 7211   5.236   3.380   6.799  0.3381  0.5394  0.1444
   45MOL    N84 7212   5.193   3.325   6.671  0.0947 -0.3989  0.3875
   45MOL    H85 7213   5.420   3.269   6.821 -4.0851 -1.4696  1.9584
   45MOL    H86 7214   5.416   3.417   6.917 -1.8492 -1.0629  0.7471
   45MOL    H87 7215   5.195   3.481   6.808  0.2010  0.5753 -0.8723
   45MOL    H88 7216   5.252   3.359   6.597 -0.7338 -0.4718 -0.3161
   45MOL    H89 7217   5.101   3.365   6.654 -0.1358 -0.4689  1.4599
   45MOL    C90 7218   5.160   3.295   6.904  0.1389 -0.3511 -0.2117
   45MOL    C91 7219   5.108   3.384   7.019 -0.4382  0.4741 -0.1581
   45MOL    N92 7220   5.011   3.315   7.099 -0.4487 -0.0522 -0.2844
   45MOL    H93 7221   5.072   3.245   6.864  0.0118 -1.0387  0.9057
   45MOL    H94 7222   5.222   3.210   6.930  0.4842 -0.1782 -0.4695
   45MOL    H95 7223   5.046   3.456   6.966 -1.1445 -0.5058 -0.6794
   45MOL    H96 7224   4.918   3.322   7.059 -0.8137 -1.1141  0.3498
   45MOL    H97 7225   4.998   3.353   7.192 -0.9064 -1.6746  0.3415
   45MOL    C98 7226   5.222   3.440   7.106  0.1879  0.4786 -0.1979
   45MOL    C99 7227   5.286   3.581   7.073 -0.1832  0.6566 -0.2934
   45MOL   N100 7228   5.186   3.685   7.089 -0.0602  0.1235 -0.1200
   45MOL   H101 7229   5.200   3.440   7.213 -0.3282 -2.2163 -0.2520
   45MOL   H102 7230   5.299   3.363   7.103  0.8221  1.0360  1.2491
   45MOL   H103 7231   5.330   3.583   6.973  0.1088 -0.9962 -0.2210
   45MOL   H104 7232   5.152   3.707   6.996  0.3049 -1.4832 -0.6387
   45MOL   H105 7233   5.225   3.771   7.126  1.0596 -0.6346  0.4965
   45MOL   C106 7234   5.399   3.620   7.165 -0.3611 -0.5846 -0.0596
   45MOL   C107 7235   5.535   3.543   7.133  0.7058  0.4467  0.4273
   45MOL   N108 7236   5.599   3.623   7.029 -0.4996 -0.1057 -0.1714
   45MOL   H109 7237   5.423   3.727   7.170  2.5365 -1.1260 -1.2406
   45MOL   H110 7238   5.362   3.594   7.264 -0.1244  0.2141  0.2479
   45MOL   H111 7239   5.515   3.444   7.090 -0.2802  0.8598 -0.0789
   45MOL   H112 7240   5.584   3.566   6.947  1.8136 -1.8862  0.5860
   45MOL   H113 7241   5.700   3.619   7.030 -0.4263  1.0991  2.2445
   45MOL   C114 7242   5.628   3.524   7.249  0.4774 -0.4288  0.4639
   45MOL   C115 7243   5.605   3.397   0.068  0.2177 -0.0596  0.2549
   45MOL   N116 7244   5.716   3.396   0.163  0.1216 -0.5974  0.9724
   45MOL   H117 7245   5.721   3.490   7.204  0.7082 -0.4727  0.9737
   45MOL   H118 7246   5.648   3.619   0.023  1.7555 -0.4960  0.0923
   45MOL   H119 7247   5.600   3.307   0.006 -1.1188  0.8172 -0.9579
   45MOL   H120 7248   5.789   3.344   0.116 -0.7076  0.4244 -1.5660
   45MOL   H121 7249   5.748   3.492   0.156 -0.9901 -0.4343 -4.3440
   45MOL   C122 7250   5.478   3.414   0.151  0.3724  0.9257 -0.2794
   45MOL   C123 7251   5.460   3.319   0.278  0.1818 -0.6521  0.1780
   45MOL   N124 7252   5.398   3.400   0.380  0.5292  0.3107  0.6092
   45MOL   H125 7253   5.483   3.519   0.181 -0.3683  0.9910 -0.3839
   45MOL   H126 7254   5.396   3.406   0.080  0.1096  0.1721  0.1058
   45MOL   H127 7255   5.560   3.290   0.309  2.4081  4.5695 -1.5221
   45MOL   H128 7256   5.464   3.470   0.411 -0.9196  0.9726  2.2540
   45MOL   H129 7257   5.318   3.453   0.349  2.1687  2.1373 -0.6537
   45MOL   C130 7258   5.362   3.209   0.253  0.5049  1.3751 -0.4324
   45MOL   C131 7259   5.412   3.112   0.143 -0.3775 -0.0767 -0.5957
   45MOL   N132 7260   5.546   3.071   0.164 -0.1672 -0.2115  0.4994
   45MOL   H133 7261   5.335   3.157   0.345  0.1375 -0.8500 -1.7828
   45MOL   H134 7262   5.269   3.253   0.216  0.5158  3.0731  1.4321
   45MOL   H135 7263   5.408   3.184   0.061 -0.7138 -0.8552 -1.2617
   45MOL   H136 7264   5.586   3.150   0.213 -2.0093  0.3512  1.1746
   45MOL   H137 7265   5.600   3.065   0.079  0.3953  2.6133  0.6149
   45MOL   C138 7266   5.330   2.990   0.106 -0.7073 -0.5118 -0.2682
   45MOL   C139 7267   5.175   3.002   0.092 -1.2076 -0.2347 -0.1690
   45MOL   N140 7268   5.141   3.060   7.234 -0.1867 -0.2584  0.4207
   45MOL   H141 7269   5.363   2.934   0.019  0.2377  0.4951 -0.5737
   45MOL   H142 7270   5.353   2.923   0.189  1.4047 -0.0233 -0.4129
   45MOL   H143 7271   5.136   3.062   0.174 -2.5117 -1.6979  0.2965
   45MOL   H144 7272   5.175   3.154   7.219  0.8695 -0.6299  0.3731
   45MOL   H145 7273   5.042   3.059   7.214 -0.4812  4.0535  1.3845
   45MOL   C146 7274   5.105   2.859   0.103 -0.7124  0.3864  0.7441
   45MOL   C147 7275   4.953   2.872   0.133  0.9580  0.3229  0.2187
   45MOL   N148 7276   4.884   2.796   0.033  0.0831 -0.1103 -0.4898
   45MOL   H149 7277   5.131   2.803   0.012 -0.6901  2.8720 -0.8112
   45MOL   H150 7278   5.159   2.798   0.176  0.0426  3.3930  2.7604
   45MOL   H151 7279   4.938   2.980   0.125  0.3955  0.1985 -0.4805
   45MOL   H152 7280   4.877   2.858   7.229 -1.3777 -1.7526 -1.6722
   45MOL   H153 7281   4.791   2.767   0.061  1.1518 -2.9201  0.2666
   45MOL   C154 7282   4.923   2.822   0.270 -0.0760 -0.3510  0.1301
   45MOL   C155 7283   4.967   2.930   0.382  0.4512 -0.2592 -0.4354
   45MOL   N156 7284   4.903   2.900   0.504 -0.2427  0.1083  0.0890
   45MOL   H157 7285   4.817   2.811   0.293  0.1171  1.2421  1.8954
   45MOL   H158 7286   4.971   2.725   0.283  2.9232  0.8431 -1.6087
   45MOL   H159 7287   4.953   3.036   0.366 -0.2488 -0.6290 -2.4904
   45MOL   H160 7288   4.969   2.938   0.570 -1.2617  1.4027  0.3904
   45MOL   H161 7289   4.889   2.800   0.512 -1.6479  0.1048 -1.9829
   45MOL   H162 7290   5.071   2.914   0.413  0.4672 -0.1392 -0.4304
   46MOL     C1 7291   5.033   7.010   0.514  0.7222  0.3334 -0.5065
   46MOL     C2 7292   4.968   6.874   0.498 -0.7859  0.6563 -0.2799
   46MOL     N3 7293   5.043   6.793   0.415 -0.2917 -0.2475  0.2401
   46MOL     H4 7294   5.138   7.005   0.542  0.5097 -2.0004 -0.0140
   46MOL     H5 7295   4.974   7.071   0.582  0.8280 -0.2852  0.1389
   46MOL     H6 7296   4.869   6.877   0.452 -0.3062 -1.8484 -1.5827
   46MOL     H7 7297   5.132   6.766   0.454 -0.4968 -0.3483  0.6390
   46MOL     H8 7298   4.997   6.704   0.410  0.4165 -0.6027 -0.0355
   46MOL     H9 7299   5.039   7.064   0.419  1.0734  0.3811 -0.4586
   46MOL    C10 7300   4.948   6.811   0.636 -0.4518  0.3112  0.5671
   46MOL    C11 7301   4.830   6.706   0.650  0.6167  0.6694  0.6540
   46MOL    N12 7302   4.881   6.593   0.721  0.5963 -0.6985  0.1332
   46MOL    H13 7303   5.047   6.777   0.666  0.4317  0.8498 -1.5975
   46MOL    H14 7304   4.923   6.894   0.703  0.5965 -0.4120  1.8848
   46MOL    H15 7305   4.841   6.659   0.552  1.4089  0.9000  0.6264
   46MOL    H16 7306   4.944   6.619   0.795  1.6770 -1.9687 -0.3371
   46MOL    H17 7307   4.951   6.538   0.674  0.8160 -1.5746  1.4597
   46MOL    C18 7308   4.696   6.758   0.698  0.6292 -0.2334  1.0165
   46MOL    C19 7309   4.574   6.661   0.697 -0.1147 -0.7173  0.2110
   46MOL    N20 7310   4.461   6.721   0.762  0.1037 -0.0888  0.4664
   46MOL    H21 7311   4.700   6.809   0.794 -2.4524 -0.1799  1.1558
   46MOL    H22 7312   4.654   6.839   0.637  1.6886 -1.6741 -1.7369
   46MOL    H23 7313   4.608   6.572   0.750  0.2173 -0.8056 -0.1550
   46MOL    H24 7314   4.465   6.712   0.863  2.6399 -1.0145  0.3242
   46MOL    H25 7315   4.465   6.821   0.748  4.7603 -0.5221 -2.2096
   46MOL    C26 7316   4.524   6.642   0.550  0.8088 -0.0198  0.0336
   46MOL    C27 7317   4.403   6.545   0.549  0.3822 -0.3710 -0.1954
   46MOL    N28 7318   4.345   6.551   0.419 -0.0562  0.0948  0.6926
   46MOL    H29 7319   4.486   6.739   0.518  0.3189 -0.0901  0.3897
   46MOL    H30 7320   4.597   6.600   0.481 -0.0742  0.1047 -0.9884
   46MOL    H31 7321   4.321   6.578   0.613  1.1652  2.8324 -0.7466
   46MOL    H32 7322   4.419   6.598   0.368 -1.1126 -0.6702 -1.6076
   46MOL    H33 7323   4.277   6.626   0.425 -0.1098  0.1290 -0.2297
   46MOL    C34 7324   4.450   6.405   0.586 -0.4751 -0.1148 -0.2353
   46MOL    C35 7325   4.331   6.330   0.665  0.4981  0.3673  0.1761
   46MOL    N36 7326   4.359   6.194   0.659 -0.0729 -0.6667  0.4807
   46MOL    H37 7327   4.474   6.349   0.496 -1.4262  0.4141 -0.8371
   46MOL    H38 7328   4.544   6.410   0.641 -0.2308 -0.9325 -0.5710
   46MOL    H39 7329   4.235   6.346   0.616  0.1894  0.1044  0.6905
   46MOL    H40 7330   4.283   6.134   0.690 -2.1206 -0.3080 -3.6060
   46MOL    H41 7331   4.362   6.174   0.560  0.3723  0.7278  0.2109
   46MOL    C42 7332   4.315   6.385   0.814  0.4214  0.5744  0.7971
   46MOL    C43 7333   4.180   6.351   0.883 -0.3431 -0.5437 -0.7816
   46MOL    N44 7334   4.180   6.407   1.023 -0.4385  0.0052  0.1368
   46MOL    H45 7335   4.392   6.348   0.882  0.8004 -2.2136 -1.0887
   46MOL    H46 7336   4.335   6.492   0.816  1.6192  0.4411 -2.2135
   46MOL    H47 7337   4.169   6.242   0.887  1.9675 -0.8506 -2.1320
   46MOL    H48 7338   4.195   6.504   1.003  2.0852 -0.8421 -2.4281
   46MOL    H49 7339   4.084   6.393   1.051 -1.4886  1.1310 -2.6892
   46MOL    C50 7340   4.052   6.404   0.811  0.3971  0.1616 -0.2970
   46MOL    C51 7341   3.923   6.323   0.860 -0.4931 -0.0531 -0.8723
   46MOL    N52 7342   3.893   6.340   1.000  0.9146 -0.2897  0.2028
   46MOL    H53 7343   4.031   6.511   0.809 -1.2273 -0.1130  1.0459
   46MOL    H54 7344   4.055   6.372   0.707 -3.2550  0.2342 -0.4816
   46MOL    H55 7345   3.934   6.216   0.842  1.0527  0.0652 -0.6637
   46MOL    H56 7346   3.825   6.269   1.023  1.4475 -0.6452  0.7009
   46MOL    H57 7347   3.841   6.426   1.009 -0.6222 -1.1832  0.0515
   46MOL    C58 7348   3.797   6.369   0.776 -0.0922  0.0883  0.2144
   46MOL    C59 7349   3.672   6.285   0.791 -0.0609 -0.5243 -0.9701
   46MOL    N60 7350   3.552   6.370   0.770 -0.3775  1.0832 -0.6539
   46MOL    H61 7351   3.779   6.475   0.794 -0.0544  0.0875  0.2599
   46MOL    H62 7352   3.826   6.372   0.671 -0.6354 -0.0413  0.0621
   46MOL    H63 7353   3.667   6.240   0.890 -0.3833 -0.7909 -1.1095
   46MOL    H64 7354   3.550   6.399   0.673 -0.3117  2.0823 -0.3663
   46MOL    H65 7355   3.462   6.325   0.768 -0.3334  1.0117 -1.0821
   46MOL    C66 7356   3.665   6.168   0.688 -0.0137 -0.2126 -0.0453
   46MOL    C67 7357   3.650   6.032   0.759  0.5399  1.0201  0.7043
   46MOL    N68 7358   3.547   5.958   0.687  0.0119  0.0685  0.0942
   46MOL    H69 7359   3.570   6.179   0.636 -0.8095 -1.9077  0.9875
   46MOL    H70 7360   3.734   6.171   0.604 -1.2955  0.7749 -1.0805
   46MOL    H71 7361   3.611   6.041   0.860  0.2107  0.5383  0.6181
   46MOL    H72 7362   3.577   5.914   0.601  3.2821 -0.7052  1.5505
   46MOL    H73 7363   3.526   5.877   0.744  1.1067  0.8137  1.5949
   46MOL    C74 7364   3.783   5.951   0.769 -0.2914  0.8566 -0.3320
   46MOL    C75 7365   3.782   5.802   0.803 -0.0516 -0.6372 -0.8086
   46MOL    N76 7366   3.904   5.725   0.769  0.2109  0.0367 -0.0066
   46MOL    H77 7367   3.819   5.955   0.666 -0.4750 -0.8360 -0.4671
   46MOL    H78 7368   3.858   5.993   0.835 -0.1868 -0.0879  0.1494
   46MOL    H79 7369   3.701   5.759   0.743 -0.6996  0.8235 -1.0171
   46MOL    H80 7370   3.914   5.709   0.670 -1.8092 -1.6531  0.0192
   46MOL    H81 7371   3.891   5.633   0.810  1.8171  0.0015  0.4423
   46MOL    C82 7372   3.739   5.776   0.948 -0.3590 -0.8868  0.0202
   46MOL    C83 7373   3.692   5.633   0.983 -0.2410  0.3639 -0.2477
   46MOL    N84 7374   3.717   5.604   1.124  0.1613  0.3944  0.7990
   46MOL    H85 7375   3.828   5.800   1.006  0.4896 -0.9933 -1.2249
   46MOL    H86 7376   3.660   5.849   0.969 -0.1613 -0.1819 -1.6228
   46MOL    H87 7377   3.751   5.558   0.931 -0.1164  0.2713  0.0258
   46MOL    H88 7378   3.816   5.612   1.141  0.7216 -1.5870 -1.2960
   46MOL    H89 7379   3.701   5.505   1.139  0.6272 -0.2227 -2.2888
   46MOL    C90 7380   3.542   5.597   0.957 -1.0575 -0.4251  0.5379
   46MOL    C91 7381   3.505   5.559   0.812 -0.1918 -0.2119 -0.2136
   46MOL    N92 7382   3.521   5.414   0.786 -0.2306  0.0103  0.6189
   46MOL    H93 7383   3.528   5.516   1.030 -0.3301 -2.0519 -1.0958
   46MOL    H94 7384   3.492   5.687   0.993  1.8265  1.4905 -0.0791
   46MOL    H95 7385   3.576   5.608   0.745 -0.2717 -0.2334 -0.3148
   46MOL    H96 7386   3.427   5.384   0.805  0.6411 -1.6006  2.4804
   46MOL    H97 7387   3.528   5.391   0.688  0.9409 -0.4670  0.8079
   46MOL    C98 7388   3.365   5.613   0.789 -0.1155  0.3692  0.2901
   46MOL    C99 7389   3.304   5.560   0.656 -0.1612  0.4739  0.0740
   46MOL   N100 7390   3.163   5.590   0.687  0.1233 -0.1938 -0.4085
   46MOL   H101 7391   3.296   5.574   0.863 -0.0506 -3.8667 -1.7403
   46MOL   H102 7392   3.348   5.721   0.797 -0.2351  0.5279 -1.8615
   46MOL   H103 7393   3.317   5.453   0.644  1.4997  0.4887  1.5030
   46MOL   H104 7394   3.113   5.503   0.697  0.6700 -0.4973 -0.2690
   46MOL   H105 7395   3.118   5.624   0.604  0.4637  0.3602 -0.3693
   46MOL   C106 7396   3.354   5.637   0.534  0.1070  1.4111  0.4080
   46MOL   C107 7397   3.385   5.548   0.408  0.1221 -0.7649  0.6281
   46MOL   N108 7398   3.261   5.505   0.347  0.1592  0.4727  0.5131
   46MOL   H109 7399   3.283   5.713   0.501 -1.4075 -0.2672 -0.2842
   46MOL   H110 7400   3.449   5.684   0.562  0.3372  0.2485  1.6102
   46MOL   H111 7401   3.435   5.457   0.440 -0.5305 -0.9483  1.1408
   46MOL   H112 7402   3.212   5.443   0.410  1.7761  1.5791  2.9544
   46MOL   H113 7403   3.209   5.591   0.339 -0.5694  0.2367  2.3874
   46MOL   C114 7404   3.468   5.622   0.307 -0.2957 -0.6436 -0.1339
   46MOL   C115 7405   3.618   5.600   0.314  0.0788 -0.1732  0.1400
   46MOL   N116 7406   3.688   5.701   0.234 -0.1547 -0.1141  0.0852
   46MOL   H117 7407   3.431   5.599   0.207 -1.9524  0.3496  0.2304
   46MOL   H118 7408   3.457   5.730   0.322 -0.2596 -0.7759  0.8320
   46MOL   H119 7409   3.623   5.504   0.262 -2.0211 -0.4484  0.4176
   46MOL   H120 7410   3.786   5.675   0.240  0.1611  0.9218 -0.4042
   46MOL   H121 7411   3.691   5.787   0.287  2.4576 -0.3925  0.4841
   46MOL   C122 7412   3.682   5.591   0.457  0.0495  0.3474 -0.1227
   46MOL   C123 7413   3.804   5.498   0.454  0.0872 -1.1689  0.3504
   46MOL   N124 7414   3.902   5.552   0.541  0.1669  0.0550  0.4320
   46MOL   H125 7415   3.716   5.691   0.485 -1.5144  0.5190  1.1947
   46MOL   H126 7416   3.612   5.549   0.529  0.4068 -1.1664 -0.6364
   46MOL   H127 7417   3.843   5.491   0.352 -0.0747  1.2239  0.1048
   46MOL   H128 7418   3.993   5.517   0.516  0.1025  1.0168 -1.2605
   46MOL   H129 7419   3.886   5.516   0.634 -1.5185 -4.3552 -1.4318
   46MOL   C130 7420   3.779   5.353   0.499 -0.1033  1.0047 -0.3067
   46MOL   C131 7421   3.717   5.262   0.400 -0.8587 -0.2901  0.0596
   46MOL   N132 7422   3.822   5.201   0.320  0.3197 -0.4974  0.1838
   46MOL   H133 7423   3.869   5.303   0.536 -2.0343 -2.7494 -0.4157
   46MOL   H134 7424   3.704   5.367   0.577  0.9935  1.8655  0.5995
   46MOL   H135 7425   3.636   5.293   0.334 -0.2401 -0.2888 -0.7046
   46MOL   H136 7426   3.772   5.138   0.259  0.2610 -0.3696  0.1007
   46MOL   H137 7427   3.864   5.145   0.393  0.7255  0.5785  0.7889
   46MOL   C138 7428   3.645   5.147   0.476  0.4670 -0.4756 -0.1685
   46MOL   C139 7429   3.534   5.071   0.399  1.3263  0.3354 -0.1654
   46MOL   N140 7430   3.495   4.966   0.494 -0.1324 -0.5999  0.0277
   46MOL   H141 7431   3.718   5.072   0.506 -0.4428 -1.4229 -0.2857
   46MOL   H142 7432   3.592   5.192   0.561  1.7865  0.9327 -0.0675
   46MOL   H143 7433   3.579   5.029   0.309  0.4914 -0.1551 -0.3594
   46MOL   H144 7434   3.567   4.920   0.549  0.5490 -0.4458 -0.7204
   46MOL   H145 7435   3.434   4.899   0.449 -1.9592  0.9160  0.2137
   46MOL   C146 7436   3.402   5.141   0.374  0.6587 -0.1100  0.0383
   46MOL   C147 7437   3.314   5.068   0.278  0.5750 -0.3967  0.3136
   46MOL   N148 7438   3.182   5.129   0.272  0.0575  0.3741 -0.1741
   46MOL   H149 7439   3.357   5.158   0.471  0.4489 -0.9924  0.0989
   46MOL   H150 7440   3.432   5.242   0.344  0.3085 -0.3232 -1.0335
   46MOL   H151 7441   3.306   4.964   0.310 -1.2448 -1.3663 -3.0041
   46MOL   H152 7442   3.153   5.155   0.365 -0.9608  1.1304 -0.6987
   46MOL   H153 7443   3.195   5.221   0.232  0.6404  0.0198 -0.8290
   46MOL   C154 7444   3.374   5.069   0.131 -0.0665 -0.1603  0.1448
   46MOL   C155 7445   3.370   4.933   0.057 -0.1005  0.0140 -0.9478
   46MOL   N156 7446   3.447   4.936   7.212  0.4625  0.3068  0.5467
   46MOL   H157 7447   3.318   5.150   0.084  2.4683  0.8337 -1.2192
   46MOL   H158 7448   3.480   5.093   0.130  0.6239 -3.0594  0.3934
   46MOL   H159 7449   3.264   4.913   0.041 -0.6080  0.5241  1.5483
   46MOL   H160 7450   3.545   4.921   7.229  0.5674 -2.2603 -1.8364
   46MOL   H161 7451   3.435   5.031   7.180 -2.2262  0.4468  1.8538
   46MOL   H162 7452   3.413   4.852   0.115 -1.7511 -0.3213 -0.1756
   47MOL     C1 7453   6.264   0.152   2.294  0.3990 -0.0882 -0.3733
   47MOL     C2 7454   6.213   0.198   2.431 -0.9270 -0.0205  0.0550
   47MOL     N3 7455   6.325   0.235   2.509  0.0470 -0.2888  0.2602
   47MOL     H4 7456   6.346   0.216   2.263  0.2564  0.0149 -0.5388
   47MOL     H5 7457   6.181   0.167   2.225  1.3701 -1.7911 -1.9674
   47MOL     H6 7458   6.164   0.112   2.476  2.0384 -1.3582  0.8981
   47MOL     H7 7459   6.307   0.305   2.580 -0.0526 -0.0783  0.0280
   47MOL     H8 7460   6.387   0.285   2.446 -0.2807 -1.6031 -1.1436
   47MOL     H9 7461   6.299   0.049   2.290  3.6951  0.9799 -0.0522
   47MOL    C10 7462   6.113   0.314   2.441  0.0687  0.1039 -0.9552
   47MOL    C11 7463   5.966   0.269   2.426  0.3206 -0.1586 -0.0682
   47MOL    N12 7464   5.932   0.169   2.526 -0.1183 -0.1363  0.0061
   47MOL    H13 7465   6.110   0.365   2.537 -0.3330  1.7065 -1.7996
   47MOL    H14 7466   6.148   0.391   2.372 -0.3324  1.5042  0.3863
   47MOL    H15 7467   5.960   0.213   2.332 -0.7438  0.7252 -0.5422
   47MOL    H16 7468   5.951   0.197   2.621 -2.8024 -2.3299  1.2541
   47MOL    H17 7469   5.973   0.079   2.502 -0.9311  0.0699 -2.2809
   47MOL    C18 7470   5.874   0.392   2.417 -0.2466 -0.2475 -0.2942
   47MOL    C19 7471   5.906   0.486   2.298 -0.5116  0.2505  0.2276
   47MOL    N20 7472   5.867   0.404   2.178 -0.2330  0.2002 -0.0809
   47MOL    H21 7473   5.770   0.360   2.420 -0.3490  0.1792  0.6928
   47MOL    H22 7474   5.880   0.445   2.512  0.8088 -1.0007  0.0679
   47MOL    H23 7475   6.009   0.521   2.297 -0.7064  0.8699  1.2144
   47MOL    H24 7476   5.862   0.459   2.093  2.7570 -1.9965 -1.8064
   47MOL    H25 7477   5.950   0.351   2.154 -1.0904  0.6062 -4.3984
   47MOL    C26 7478   5.814   0.614   2.300 -1.0587  0.1066 -0.2148
   47MOL    C27 7479   5.856   0.725   2.201  0.4210  0.3182  0.3053
   47MOL    N28 7480   5.740   0.796   2.159  0.0585  0.2016  0.1878
   47MOL    H29 7481   5.713   0.579   2.280 -1.0787  0.3165 -0.4845
   47MOL    H30 7482   5.820   0.652   2.402 -0.2877  3.1089 -1.3177
   47MOL    H31 7483   5.907   0.670   2.122  0.7456 -0.3140  0.9461
   47MOL    H32 7484   5.682   0.722   2.121  0.6213 -0.8609  1.3473
   47MOL    H33 7485   5.755   0.859   2.082  1.4830  0.1698  0.4237
   47MOL    C34 7486   5.956   0.825   2.262  0.3670  0.0203  0.4397
   47MOL    C35 7487   6.100   0.768   2.296  0.7386 -0.1989  0.0704
   47MOL    N36 7488   6.153   0.720   2.171  0.2624 -0.2659  0.3874
   47MOL    H37 7489   5.952   0.897   2.180  1.2418 -2.0944 -1.5105
   47MOL    H38 7490   5.913   0.874   2.350 -0.1217  2.0316 -0.8867
   47MOL    H39 7491   6.087   0.687   2.367  0.5428 -0.3856 -0.1747
   47MOL    H40 7492   6.073   0.692   2.117 -0.5328  1.3534  0.6857
   47MOL    H41 7493   6.208   0.786   2.118  1.4656  0.7656  2.8123
   47MOL    C42 7494   6.188   0.866   2.361  0.1501  0.9154 -0.1404
   47MOL    C43 7495   6.337   0.825   2.379  0.3018 -0.3613  0.1719
   47MOL    N44 7496   6.387   0.938   2.461 -0.2446  0.5659  0.5518
   47MOL    H45 7497   6.180   0.958   2.303  0.9926  0.6468 -0.6971
   47MOL    H46 7498   6.144   0.882   2.459  0.9387  1.3758  0.1464
   47MOL    H47 7499   6.381   0.823   2.279 -1.4699 -1.1534 -0.6073
   47MOL    H48 7500   6.469   0.904   2.508 -0.0617  2.3108  1.5516
   47MOL    H49 7501   6.442   0.996   2.400  0.6056 -0.9877 -0.1802
   47MOL    C50 7502   6.362   0.695   2.458 -0.2589 -0.3540  1.1461
   47MOL    C51 7503   6.480   0.615   2.392 -0.7047  0.1746  0.2281
   47MOL    N52 7504   6.545   0.532   2.496  0.3337 -0.4392  0.4848
   47MOL    H53 7505   6.375   0.708   2.565  2.2968 -0.2489  0.8698
   47MOL    H54 7506   6.287   0.617   2.447  1.9256 -2.3771  0.1706
   47MOL    H55 7507   6.555   0.683   2.350  0.5749 -1.2320  0.1831
   47MOL    H56 7508   6.604   0.465   2.450 -0.5716 -0.0526 -1.3079
   47MOL    H57 7509   6.473   0.479   2.542 -0.7278 -0.5096 -1.2030
   47MOL    C58 7510   6.439   0.527   2.272  1.2491  1.0248  0.7647
   47MOL    C59 7511   6.558   0.486   2.181 -0.2736 -0.0836 -0.1754
   47MOL    N60 7512   6.645   0.398   2.256  0.3462 -0.2871 -0.0064
   47MOL    H61 7513   6.381   0.440   2.303  1.0001  1.6311  2.0252
   47MOL    H62 7514   6.365   0.579   2.211  0.3794 -0.1436  0.7842
   47MOL    H63 7515   6.615   0.574   2.152  0.5573 -0.1977  1.0481
   47MOL    H64 7516   6.709   0.357   2.189 -0.9202  0.0231 -1.4467
   47MOL    H65 7517   6.703   0.446   2.323  1.8708  0.6494 -1.9369
   47MOL    C66 7518   6.512   0.403   2.054  0.5404 -0.6662  0.4597
   47MOL    C67 7519   6.429   0.475   1.948  0.2348 -0.0731  0.0251
   47MOL    N68 7520   6.523   0.523   1.850 -0.6123 -0.6330  0.0408
   47MOL    H69 7521   6.603   0.355   2.017  0.6354 -0.7937  0.8568
   47MOL    H70 7522   6.460   0.317   2.095  0.9375 -1.5707 -0.8831
   47MOL    H71 7523   6.375   0.564   1.980 -1.8133 -1.2017 -0.2144
   47MOL    H72 7524   6.485   0.606   1.805  1.8600 -0.3350 -1.6006
   47MOL    H73 7525   6.610   0.558   1.888  0.2402 -0.0245 -2.3455
   47MOL    C74 7526   6.325   0.390   1.871  0.6480 -0.1123 -0.1150
   47MOL    C75 7527   6.223   0.304   1.955  0.3355  1.2362  0.4739
   47MOL    N76 7528   6.157   0.400   2.050  0.5348  0.3599  0.2714
   47MOL    H77 7529   6.265   0.452   1.803 -1.5987  0.2956  2.1580
   47MOL    H78 7530   6.397   0.330   1.815  0.8397 -1.4588  1.5308
   47MOL    H79 7531   6.273   0.221   2.004  0.3232  0.7037 -0.4105
   47MOL    H80 7532   6.104   0.471   2.001 -0.9084 -2.1222 -1.8974
   47MOL    H81 7533   6.222   0.455   2.105  0.9608  0.5396 -0.3937
   47MOL    C82 7534   6.118   0.250   1.857 -0.3130  0.6341 -0.2036
   47MOL    C83 7535   6.029   0.134   1.907  1.0528  0.3277  0.4466
   47MOL    N84 7536   5.893   0.156   1.843 -0.1393  0.3589 -0.4958
   47MOL    H85 7537   6.064   0.330   1.807  0.6552  2.5958  1.8127
   47MOL    H86 7538   6.174   0.217   1.770 -2.1176 -0.6086 -0.9101
   47MOL    H87 7539   6.007   0.143   2.013  1.7983 -1.8600  0.8217
   47MOL    H88 7540   5.867   0.247   1.879 -1.0828 -0.3707  0.7054
   47MOL    H89 7541   5.821   0.100   1.886  2.4703 -1.2263  1.9947
   47MOL    C90 7542   6.100   7.273   1.889  0.2403 -0.3750  0.1008
   47MOL    C91 7543   6.015   7.152   1.936 -0.1607  0.0046  0.2427
   47MOL    N92 7544   6.102   7.038   1.912  0.1320 -0.0066 -0.0551
   47MOL    H93 7545   6.126   7.255   1.785  1.5217  0.3102  0.2970
   47MOL    H94 7546   6.200   7.275   1.933  0.3831 -0.5202 -0.2222
   47MOL    H95 7547   5.932   7.150   1.865 -0.2453  1.1385  0.3115
   47MOL    H96 7548   6.171   7.061   1.841 -0.1462  2.6083  0.4759
   47MOL    H97 7549   6.057   6.964   1.859  0.2949 -1.4186  1.7285
   47MOL    C98 7550   5.973   7.146   2.089 -0.1607  0.2590  0.2602
   47MOL    C99 7551   5.867   7.041   2.118 -0.1618  0.5821 -0.7229
   47MOL   N100 7552   5.859   6.996   2.253 -0.3674  0.6818  0.7870
   47MOL   H101 7553   6.062   7.126   2.148  0.3456 -1.7252 -1.1417
   47MOL   H102 7554   5.948   7.243   2.132  2.1080  0.5178  1.0948
   47MOL   H103 7555   5.891   6.957   2.053  0.0799  0.0161  0.1022
   47MOL   H104 7556   5.931   6.932   2.282  2.1508  2.0303 -2.2362
   47MOL   H105 7557   5.769   6.951   2.263  0.2660 -0.5241  1.1805
   47MOL   C106 7558   5.733   7.090   2.063 -0.2346 -0.1089 -0.2549
   47MOL   C107 7559   5.625   6.981   2.023  0.0482 -0.3366 -0.2938
   47MOL   N108 7560   5.507   7.060   1.999  0.7814 -0.8186 -0.1493
   47MOL   H109 7561   5.695   7.173   2.123 -0.4835 -1.4628  1.5017
   47MOL   H110 7562   5.743   7.118   1.958 -1.0483 -0.0960 -0.3350
   47MOL   H111 7563   5.594   6.925   2.111  0.4085  1.0591  0.7402
   47MOL   H112 7564   5.432   7.000   1.969  0.5305  0.1662 -1.4791
   47MOL   H113 7565   5.466   7.101   2.082  0.5337 -0.5775 -0.3951
   47MOL   C114 7566   5.670   6.886   1.907 -0.9110  0.0297 -0.2881
   47MOL   C115 7567   5.576   6.763   1.882  0.7048 -0.6520  0.0862
   47MOL   N116 7568   5.625   6.702   1.765  0.1346 -0.0444 -0.0961
   47MOL   H117 7569   5.680   6.936   1.811  0.2918  1.3162  0.5000
   47MOL   H118 7570   5.771   6.847   1.919 -1.4397 -1.4006 -0.3058
   47MOL   H119 7571   5.471   6.788   1.868  0.7470 -0.5374 -0.0235
   47MOL   H120 7572   5.557   6.635   1.733 -0.3715 -0.1622  1.1784
   47MOL   H121 7573   5.623   6.774   1.694 -2.8293  0.3469  0.3023
   47MOL   C122 7574   5.587   6.649   1.988 -0.5390  0.5536 -0.5006
   47MOL   C123 7575   5.502   6.657   2.115 -0.7153 -0.6750 -0.1685
   47MOL   N124 7576   5.368   6.624   2.066 -0.5942 -0.2950  0.6917
   47MOL   H125 7577   5.596   6.551   1.941 -1.3229  0.5598 -0.6755
   47MOL   H126 7578   5.682   6.670   2.037  0.0349 -0.1433 -1.3125
   47MOL   H127 7579   5.503   6.759   2.154  1.0268 -0.8078  0.1391
   47MOL   H128 7580   5.344   6.660   1.975 -1.1258  0.9556  1.3149
   47MOL   H129 7581   5.362   6.523   2.060 -1.2585 -0.1937 -0.6596
   47MOL   C130 7582   5.544   6.565   2.236 -0.6041 -0.0221 -0.3147
   47MOL   C131 7583   5.649   6.630   2.333 -0.0222  0.6437  0.1509
   47MOL   N132 7584   5.789   6.625   2.292 -0.6306  0.0293 -0.4627
   47MOL   H133 7585   5.459   6.542   2.299  0.1397  1.3134  1.2067
   47MOL   H134 7586   5.582   6.468   2.203  0.2882 -0.0840  0.8458
   47MOL   H135 7587   5.651   6.568   2.423 -3.2808 -1.5364 -1.1966
   47MOL   H136 7588   5.812   6.529   2.270  1.0192  0.2703  0.0808
   47MOL   H137 7589   5.838   6.651   2.377 -0.7259  0.7030 -0.6123
   47MOL   C138 7590   5.618   6.775   2.381 -0.0012 -0.1579  0.0840
   47MOL   C139 7591   5.475   6.817   2.430  0.1026  0.3123  0.5882
   47MOL   N140 7592   5.446   6.730   2.542  0.0116  0.8613  0.3385
   47MOL   H141 7593   5.687   6.800   2.462 -0.5538  1.0997  0.1787
   47MOL   H142 7594   5.653   6.837   2.299 -0.5819 -1.5252 -1.2125
   47MOL   H143 7595   5.402   6.795   2.352  2.4763 -1.2390 -1.2786
   47MOL   H144 7596   5.526   6.725   2.603  0.6033  1.2390 -0.3984
   47MOL   H145 7597   5.370   6.770   2.596 -1.6167 -1.6683 -0.0006
   47MOL   C146 7598   5.462   6.958   2.478  0.4438 -0.0262  0.0410
   47MOL   C147 7599   5.480   7.067   2.365 -0.2017  0.3105 -0.5662
   47MOL   N148 7600   5.377   7.072   2.260  0.2214 -0.7112 -0.2089
   47MOL   H149 7601   5.360   6.972   2.515 -0.6124  1.0266 -3.1059
   47MOL   H150 7602   5.529   6.977   2.561 -0.9093  1.7324  0.7808
   47MOL   H151 7603   5.578   7.050   2.322  0.8743 -1.0768  2.3083
   47MOL   H152 7604   5.293   7.029   2.295  0.8427 -1.3267  0.5435
   47MOL   H153 7605   5.341   7.166   2.255 -0.2184 -0.8631  0.0786
   47MOL   C154 7606   5.477   7.208   2.424  0.5608  0.7539 -0.1777
   47MOL   C155 7607   5.608   7.250   2.483 -0.1819 -1.0333 -0.8243
   47MOL   N156 7608   5.608   0.122   2.502 -0.3827  0.1643  0.6796
   47MOL   H157 7609   5.448   0.001   2.345  0.7079 -0.2858 -1.1563
   47MOL   H158 7610   5.386   7.221   2.483 -0.1732  1.9225 -1.5397
   47MOL   H159 7611   5.693   7.222   2.420  0.8962  0.9811 -0.3062
   47MOL   H160 7612   5.703   0.139   2.532 -0.1918 -1.5376  1.0756
   47MOL   H161 7613   5.601   0.171   2.414 -0.7803  1.7814  1.5949
   47MOL   H162 7614   5.626   7.206   2.581 -1.1228 -0.7647 -0.5262
   48MOL     C1 7615   1.111   3.572   7.259  0.3114 -0.4179  0.0453
   48MOL     C2 7616   1.032   3.465   7.181 -0.3284 -0.4223  0.6054
   48MOL     N3 7617   0.983   3.541   7.067  0.3527  0.6161 -0.3111
   48MOL     H4 7618   1.190   3.602   7.190 -0.2290  1.1409  0.0675
   48MOL     H5 7619   1.148   3.541   0.081  0.1503  0.9925  0.5765
   48MOL     H6 7620   0.947   3.426   7.237 -0.5419 -2.7861 -1.2800
   48MOL     H7 7621   0.917   3.614   7.092 -0.1703  0.8437 -2.2805
   48MOL     H8 7622   0.946   3.489   6.989  0.5524 -3.2140  2.0448
   48MOL     H9 7623   1.052   3.660   0.008 -1.2013 -0.9018 -1.7214
   48MOL    C10 7624   1.113   3.340   7.138 -0.8247  0.7122  0.0402
   48MOL    C11 7625   1.155   3.242   7.255  0.5084 -0.3130 -0.5151
   48MOL    N12 7626   1.199   3.116   7.200  0.6564  0.0585 -0.5546
   48MOL    H13 7627   1.065   3.276   7.063  1.1700 -0.6987 -0.0763
   48MOL    H14 7628   1.206   3.365   7.087  0.1630 -1.8053  0.5267
   48MOL    H15 7629   1.078   3.223   0.053  0.8040  1.2325  0.2230
   48MOL    H16 7630   1.289   3.097   7.242 -0.0102  1.1840  1.4305
   48MOL    H17 7631   1.222   3.122   7.102 -0.6339  0.4329 -0.8514
   48MOL    C18 7632   1.277   3.288   0.059  0.0335  0.3033  0.4675
   48MOL    C19 7633   1.292   3.241   0.206 -0.2584  0.0976 -0.3884
   48MOL    N20 7634   1.433   3.240   0.229  0.0636  0.1033 -0.3707
   48MOL    H21 7635   1.364   3.268   7.272  1.4854 -1.4075  2.9561
   48MOL    H22 7636   1.283   3.395   0.045  0.0392  0.5705  2.3642
   48MOL    H23 7637   1.264   3.136   0.214  2.2153 -0.6735 -1.2727
   48MOL    H24 7638   1.452   3.260   0.327 -0.0163 -0.1893 -0.2950
   48MOL    H25 7639   1.482   3.314   0.181 -0.5019  0.5859 -0.2019
   48MOL    C26 7640   1.221   3.323   0.312  0.1449  0.3071  0.2704
   48MOL    C27 7641   1.248   3.278   0.456  0.4405  0.5888  0.2096
   48MOL    N28 7642   1.357   3.345   0.523  0.0518  0.1241 -0.1110
   48MOL    H29 7643   1.271   3.417   0.289  2.2977 -1.1888 -1.3462
   48MOL    H30 7644   1.115   3.338   0.289  0.1819 -0.6738 -0.5564
   48MOL    H31 7645   1.266   3.171   0.447 -4.5470 -0.4034  0.8269
   48MOL    H32 7646   1.349   3.331   0.622  2.5743  3.8222  0.7142
   48MOL    H33 7647   1.342   3.444   0.514  0.8905  0.1318 -1.8484
   48MOL    C34 7648   1.117   3.303   0.540  0.5119  0.4641 -0.1165
   48MOL    C35 7649   1.014   3.184   0.558 -0.6821 -0.7453 -0.1782
   48MOL    N36 7650   0.906   3.227   0.648 -0.2467 -0.0916 -0.0227
   48MOL    H37 7651   1.140   3.340   0.640  2.0493 -0.0966 -0.2511
   48MOL    H38 7652   1.044   3.371   0.496 -0.7820  0.3126  1.7333
   48MOL    H39 7653   1.064   3.105   0.613 -0.7155 -0.9602 -0.4569
   48MOL    H40 7654   0.956   3.257   0.731 -1.4222 -1.2127  1.1257
   48MOL    H41 7655   0.856   3.305   0.609 -2.0237 -1.7871 -1.2360
   48MOL    C42 7656   0.963   3.123   0.427  0.0809 -0.0993 -0.0585
   48MOL    C43 7657   0.864   3.005   0.442 -0.0100  0.6736 -0.2049
   48MOL    N44 7658   0.789   2.987   0.323 -0.2333  0.2218 -0.8821
   48MOL    H45 7659   0.911   3.203   0.374 -0.8849 -1.4510 -1.1752
   48MOL    H46 7660   1.043   3.089   0.362 -0.5857 -0.1165 -0.8712
   48MOL    H47 7661   0.792   3.033   0.519  0.8889  0.7874  0.6099
   48MOL    H48 7662   0.855   2.979   0.246  1.8815  0.4531  0.8568
   48MOL    H49 7663   0.744   2.897   0.325  0.8971 -0.3310  2.3118
   48MOL    C50 7664   0.926   2.863   0.483  0.0944 -0.0712 -0.0853
   48MOL    C51 7665   0.841   2.738   0.523  0.9526  1.0686  0.0065
   48MOL    N52 7666   0.942   2.639   0.562  0.1306 -0.4280 -0.3397
   48MOL    H53 7667   0.988   2.827   0.401 -2.1411  0.9836 -2.3040
   48MOL    H54 7668   0.996   2.893   0.561 -0.0298  1.4568 -0.5565
   48MOL    H55 7669   0.789   2.702   0.435  1.7323  0.5454 -0.2417
   48MOL    H56 7670   1.022   2.614   0.506 -0.5335  0.6800 -1.7975
   48MOL    H57 7671   0.899   2.551   0.588 -1.0016 -0.3061 -1.7487
   48MOL    C58 7672   0.749   2.755   0.645  0.5425  0.0745  0.1757
   48MOL    C59 7673   0.614   2.826   0.615  0.8236 -0.9831 -0.3758
   48MOL    N60 7674   0.507   2.745   0.556 -0.4962  0.7312 -0.3149
   48MOL    H61 7675   0.726   2.663   0.698  1.4361 -0.9005 -1.1106
   48MOL    H62 7676   0.799   2.816   0.720 -0.7588 -0.7557  1.7458
   48MOL    H63 7677   0.638   2.898   0.537  3.8952 -1.8572 -0.2902
   48MOL    H64 7678   0.426   2.803   0.541  0.9792  2.4585 -1.8564
   48MOL    H65 7679   0.518   2.710   0.462 -1.3727  1.9169 -0.8587
   48MOL    C66 7680   0.565   2.905   0.744  0.0529  0.7616  0.3985
   48MOL    C67 7681   0.630   3.044   0.755 -0.2457  0.7445  0.1028
   48MOL    N68 7682   0.566   3.146   0.683 -0.0116 -0.0783 -0.3417
   48MOL    H69 7683   0.457   2.920   0.735  0.1792  1.0648 -0.6643
   48MOL    H70 7684   0.577   2.838   0.829 -0.8976 -0.5240 -0.4691
   48MOL    H71 7685   0.727   3.033   0.707 -0.6443 -0.6139 -0.4100
   48MOL    H72 7686   0.579   3.122   0.585  1.3496 -1.0766  0.0789
   48MOL    H73 7687   0.620   3.232   0.692  3.4295 -2.2205  0.3680
   48MOL    C74 7688   0.670   3.095   0.895  0.2381 -1.2214  0.3564
   48MOL    C75 7689   0.772   3.012   0.977 -0.1230 -0.2549 -0.3478
   48MOL    N76 7690   0.909   3.030   0.924 -0.3246  0.3675  0.1630
   48MOL    H77 7691   0.699   3.200   0.901  0.1917 -1.1705 -0.3437
   48MOL    H78 7692   0.578   3.097   0.954 -0.0019 -1.7829  0.0076
   48MOL    H79 7693   0.747   2.908   0.957 -0.7538 -0.1692 -0.0139
   48MOL    H80 7694   0.955   2.941   0.918 -0.0002  0.5574 -0.1771
   48MOL    H81 7695   0.898   3.050   0.825  1.6078  1.0452  0.0622
   48MOL    C82 7696   0.773   3.044   1.125 -0.1758  0.1255  0.1827
   48MOL    C83 7697   0.808   2.925   1.221  0.1447  0.6252 -0.3905
   48MOL    N84 7698   0.779   2.968   1.357 -0.3005 -0.1425 -0.5173
   48MOL    H85 7699   0.850   3.117   1.150  0.5671 -0.2012 -1.0828
   48MOL    H86 7700   0.678   3.085   1.156 -0.9191  0.5177 -2.5035
   48MOL    H87 7701   0.916   2.911   1.212 -0.1283 -1.3012 -0.7816
   48MOL    H88 7702   0.679   2.977   1.370 -0.2929 -0.5511 -0.1519
   48MOL    H89 7703   0.814   2.911   1.433 -2.4026 -0.2052  0.4346
   48MOL    C90 7704   0.720   2.800   1.211 -1.0456  0.2496  0.0835
   48MOL    C91 7705   0.764   2.681   1.295  0.4438 -1.1150 -0.2616
   48MOL    N92 7706   0.660   2.581   1.260  0.0956  0.3848  0.1343
   48MOL    H93 7707   0.619   2.824   1.243 -0.9158  1.3472 -0.3160
   48MOL    H94 7708   0.715   2.770   1.106  1.1794  0.0247  0.0137
   48MOL    H95 7709   0.742   2.716   1.396  0.6740 -1.3730 -0.1221
   48MOL    H96 7710   0.643   2.578   1.160 -1.3409  0.5331  0.3622
   48MOL    H97 7711   0.572   2.624   1.285  0.1251  0.4216  0.1736
   48MOL    C98 7712   0.904   2.627   1.270  0.0505 -1.1441  0.0642
   48MOL    C99 7713   0.956   2.516   1.361  0.0108  0.5385 -0.1908
   48MOL   N100 7714   1.085   2.492   1.295  0.5785 -0.1429  0.5778
   48MOL   H101 7715   0.907   2.588   1.168 -0.9467  0.5206 -0.6237
   48MOL   H102 7716   0.980   2.705   1.267 -0.4851 -0.6736 -2.6396
   48MOL   H103 7717   0.888   2.431   1.353  0.0047  0.1527  3.1102
   48MOL   H104 7718   1.071   2.441   1.209 -0.3330 -0.9830  1.2307
   48MOL   H105 7719   1.126   2.414   1.344  0.0979 -0.7868 -0.0296
   48MOL   C106 7720   0.976   2.555   1.509  0.7786  0.4900  0.3472
   48MOL   C107 7721   1.027   2.442   1.603 -0.0902 -0.3730 -0.0648
   48MOL   N108 7722   1.092   2.508   1.722  0.4407  0.3070  0.3030
   48MOL   H109 7723   1.052   2.633   1.516  0.2474  0.8120  3.3192
   48MOL   H110 7724   0.882   2.605   1.534  0.1852  0.5174 -1.8800
   48MOL   H111 7725   1.101   2.387   1.545  0.6123  0.8611 -0.3512
   48MOL   H112 7726   1.141   2.593   1.696 -1.3600  1.0691 -0.6518
   48MOL   H113 7727   1.158   2.444   1.764  0.8963 -0.6951 -1.8339
   48MOL   C114 7728   0.922   2.351   1.666 -0.0279 -0.1568 -0.3064
   48MOL   C115 7729   0.874   2.240   1.569  0.2248 -0.3561  0.4741
   48MOL   N116 7730   0.960   2.126   1.592  0.2139  0.7846 -0.7884
   48MOL   H117 7731   0.947   2.311   1.764 -4.4591 -1.1723  0.5240
   48MOL   H118 7732   0.838   2.412   1.698 -1.0142 -1.5781 -0.1159
   48MOL   H119 7733   0.886   2.280   1.469 -0.0006  0.0009  0.5902
   48MOL   H120 7734   1.029   2.154   1.660  1.8547 -0.9658 -1.6934
   48MOL   H121 7735   0.907   2.066   1.653 -0.4747 -0.2328 -2.3641
   48MOL   C122 7736   0.719   2.207   1.579  0.3252  0.4266  0.4206
   48MOL   C123 7737   0.631   2.324   1.544  0.5189 -0.2890  0.2741
   48MOL   N124 7738   0.628   2.325   1.397 -0.3478  0.0257 -0.0004
   48MOL   H125 7739   0.698   2.114   1.525 -0.5416 -0.7642  2.7763
   48MOL   H126 7740   0.686   2.174   1.677 -1.2086  0.8080  0.0481
   48MOL   H127 7741   0.685   2.414   1.572 -1.4684  1.5665 -1.7450
   48MOL   H128 7742   0.707   2.265   1.376  2.1795  2.1809  2.8459
   48MOL   H129 7743   0.651   2.415   1.358 -1.6960  0.6195  0.5602
   48MOL   C130 7744   0.488   2.324   1.604 -0.8784 -0.1028 -0.1365
   48MOL   C131 7745   0.460   2.437   1.714  0.7809  0.0955 -0.4399
   48MOL   N132 7746   0.313   2.444   1.724  0.1470 -0.1361 -0.3066
   48MOL   H133 7747   0.414   2.339   1.526 -1.0006  1.8941  0.3349
   48MOL   H134 7748   0.462   2.224   1.639  0.6985 -0.3088  0.4965
   48MOL   H135 7749   0.488   2.528   1.661 -0.2874  0.7894  0.1614
   48MOL   H136 7750   0.283   2.445   1.628  0.7008 -1.5637 -0.5124
   48MOL   H137 7751   0.287   2.534   1.763  1.2674  0.7044 -1.4768
   48MOL   C138 7752   0.533   2.414   1.847  0.0067  0.2405 -0.2326
   48MOL   C139 7753   0.497   2.508   1.968  0.1916  0.1109  0.2758
   48MOL   N140 7754   0.526   2.442   2.094  0.0257  0.0698  0.2436
   48MOL   H141 7755   0.503   2.311   1.865  0.8475 -0.1931 -1.2914
   48MOL   H142 7756   0.641   2.416   1.834 -0.1040 -0.9965 -1.4406
   48MOL   H143 7757   0.392   2.534   1.981 -0.6166 -1.4860 -2.7145
   48MOL   H144 7758   0.531   2.503   2.174  2.1781  0.2858 -0.0302
   48MOL   H145 7759   0.611   2.388   2.095 -0.3356 -0.6375 -2.7803
   48MOL   C146 7760   0.567   2.644   1.963 -0.0250 -0.2092  0.9781
   48MOL   C147 7761   0.509   2.748   1.869 -0.0041 -0.3644 -0.1489
   48MOL   N148 7762   0.408   2.822   1.941 -0.3341  0.8689 -0.1366
   48MOL   H149 7763   0.571   2.682   2.066  1.5254  0.2122  0.7765
   48MOL   H150 7764   0.671   2.631   1.932 -0.2012  2.3046 -0.7637
   48MOL   H151 7765   0.451   2.702   1.789 -1.3384  1.3299 -0.2057
   48MOL   H152 7766   0.320   2.837   1.893 -2.5756 -0.0305  3.4988
   48MOL   H153 7767   0.366   2.756   2.005 -1.9704  1.8245 -0.1929
   48MOL   C154 7768   0.615   2.848   1.807 -0.4833  0.3546  0.3553
   48MOL   C155 7769   0.688   2.771   1.696  0.7228 -0.0926  0.1143
   48MOL   N156 7770   0.779   2.863   1.629  0.0409 -0.1652 -0.7716
   48MOL   H157 7771   0.564   2.935   1.766 -1.5327  0.3314  1.5779
   48MOL   H158 7772   0.681   2.879   1.889  0.3062 -0.3417 -0.0061
   48MOL   H159 7773   0.611   2.728   1.633 -0.3298 -0.4927  1.6616
   48MOL   H160 7774   0.832   2.906   1.703 -1.1341 -0.9170  0.5141
   48MOL   H161 7775   0.730   2.940   1.586 -0.6801 -0.4838 -0.5252
   48MOL   H162 7776   0.745   2.684   1.729 -2.5768 -2.1008  0.7384
   49MOL     C1 7777   2.505   0.343   1.144  0.0004  0.2782 -0.4523
   49MOL     C2 7778   2.507   0.455   1.254 -0.3932 -0.7838 -0.6012
   49MOL     N3 7779   2.521   0.393   1.386  0.2033  0.0462  0.4087
   49MOL     H4 7780   2.415   0.282   1.153  0.2900  0.1392  1.7062
   49MOL     H5 7781   2.581   0.265   1.143  0.3125  0.5397  1.4274
   49MOL     H6 7782   2.416   0.515   1.253  0.1053 -0.0079  0.5409
   49MOL     H7 7783   2.517   0.453   1.467  1.4067  0.2553  0.3228
   49MOL     H8 7784   2.610   0.345   1.388 -0.3450 -1.0215 -0.2431
   49MOL     H9 7785   2.502   0.384   1.043  1.1819  0.6768 -0.3345
   49MOL    C10 7786   2.618   0.561   1.239  0.3520  0.4400  0.1413
   49MOL    C11 7787   2.597   0.646   1.110  0.6122  0.4548  0.7609
   49MOL    N12 7788   2.508   0.758   1.146 -0.2318  0.1036 -0.8035
   49MOL    H13 7789   2.630   0.623   1.328 -1.1803  3.0407 -1.3888
   49MOL    H14 7790   2.712   0.506   1.237 -1.1957 -2.2468 -0.2906
   49MOL    H15 7791   2.538   0.596   1.033 -0.3745  0.6215  1.4025
   49MOL    H16 7792   2.419   0.726   1.184  0.3212  0.8084  1.1477
   49MOL    H17 7793   2.558   0.811   1.216 -0.6715 -1.5120  0.7989
   49MOL    C18 7794   2.731   0.714   1.058  0.4217 -0.2691  0.0094
   49MOL    C19 7795   2.820   0.638   0.952 -0.1182  0.9077 -0.4188
   49MOL    N20 7796   2.950   0.703   0.949 -0.6060  0.1830  0.1959
   49MOL    H21 7797   2.706   0.810   1.013 -2.3945 -0.5207  0.9164
   49MOL    H22 7798   2.787   0.743   1.147 -0.7402 -2.0869  1.3729
   49MOL    H23 7799   2.777   0.655   0.853  0.1766 -0.1209 -0.7276
   49MOL    H24 7800   2.973   0.714   1.046 -0.9253  0.8655  0.1942
   49MOL    H25 7801   3.006   0.636   0.898  0.3054  0.9150  0.2352
   49MOL    C26 7802   2.848   0.487   0.973  0.0686  0.1835  0.4741
   49MOL    C27 7803   2.886   0.418   0.837  0.0831 -0.0881  0.0057
   49MOL    N28 7804   2.933   0.285   0.868  0.1935 -0.1881 -0.2269
   49MOL    H29 7805   2.904   0.462   1.062  1.4930  1.9246  0.0855
   49MOL    H30 7806   2.749   0.449   0.997  0.0926 -0.0571  0.2016
   49MOL    H31 7807   2.972   0.470   0.794 -0.0089  0.1581  0.1229
   49MOL    H32 7808   3.000   0.276   0.942  0.7653  1.3726 -0.5435
   49MOL    H33 7809   2.985   0.254   0.787 -0.2577  1.5596 -1.2216
   49MOL    C34 7810   2.777   0.413   0.724 -0.1508 -0.1760  0.1772
   49MOL    C35 7811   2.649   0.334   0.753  0.4904  0.7173 -0.5155
   49MOL    N36 7812   2.537   0.392   0.684  0.0268  0.1295  0.2891
   49MOL    H37 7813   2.743   0.513   0.699  1.1715  0.8211  2.1717
   49MOL    H38 7814   2.825   0.381   0.632  0.2289 -0.8576  0.6002
   49MOL    H39 7815   2.631   0.342   0.861 -1.5071  0.9618 -0.8570
   49MOL    H40 7816   2.546   0.492   0.683  0.2994  0.1851  3.1597
   49MOL    H41 7817   2.457   0.376   0.745 -0.3871  2.6725  0.4819
   49MOL    C42 7818   2.662   0.181   0.712 -0.0156  0.1810 -0.3850
   49MOL    C43 7819   2.541   0.101   0.742  0.3625 -0.5186  0.4103
   49MOL    N44 7820   2.537   7.260   0.649 -0.0185  0.1704 -0.5016
   49MOL    H45 7821   2.682   0.194   0.606  1.4605 -0.7019 -0.2338
   49MOL    H46 7822   2.739   0.127   0.768  1.5228  2.0913 -0.5618
   49MOL    H47 7823   2.456   0.161   0.710 -0.2183 -0.8555  1.2924
   49MOL    H48 7824   2.448   7.220   0.675  0.2675 -0.4292 -0.4381
   49MOL    H49 7825   2.534   0.005   0.550  0.7478  0.5515 -0.4552
   49MOL    C50 7826   2.517   0.048   0.884  0.1450 -0.5468 -0.6685
   49MOL    C51 7827   2.367   0.021   0.908  0.4341  0.0089  0.5813
   49MOL    N52 7828   2.366   7.252   1.043 -0.4540  0.3266  0.3278
   49MOL    H53 7829   2.577   7.236   0.909 -0.0264  0.1684  2.5330
   49MOL    H54 7830   2.551   0.127   0.951 -0.0798 -0.8464 -0.1954
   49MOL    H55 7831   2.338   7.212   0.845  1.0000 -0.1592  0.5453
   49MOL    H56 7832   2.449   7.195   1.053 -1.0831 -0.7252 -0.3652
   49MOL    H57 7833   2.283   7.202   1.072  1.5184 -2.5356  1.2551
   49MOL    C58 7834   2.277   0.145   0.882  0.3443  0.5622 -0.5214
   49MOL    C59 7835   2.167   0.110   0.789 -0.4586  0.3002 -0.4099
   49MOL    N60 7836   2.214   0.101   0.647  0.4235 -0.0759  0.3429
   49MOL    H61 7837   2.237   0.169   0.981 -0.2346 -2.1811 -0.0600
   49MOL    H62 7838   2.321   0.238   0.847 -1.1121  1.6760  0.5220
   49MOL    H63 7839   2.106   0.198   0.807  0.2820  0.5422  0.9350
   49MOL    H64 7840   2.307   0.136   0.628  0.0602  1.2681  0.9531
   49MOL    H65 7841   2.162   0.164   0.588  0.0521 -0.8538 -0.1572
   49MOL    C66 7842   2.070   7.275   0.832  0.4514 -0.0014 -0.1229
   49MOL    C67 7843   2.000   0.011   0.968  0.9673 -0.1610 -0.5155
   49MOL    N68 7844   1.903   0.116   0.968  0.0411 -0.4261 -0.0479
   49MOL    H69 7845   1.990   7.263   0.759 -0.1309  1.1241  0.3133
   49MOL    H70 7846   2.124   7.181   0.823  1.1782  0.3212  0.8357
   49MOL    H71 7847   2.069   0.041   1.047 -0.8299 -0.0624  1.0581
   49MOL    H72 7848   1.946   0.208   0.972  1.5622 -1.0545 -1.2238
   49MOL    H73 7849   1.832   0.111   1.039 -2.4713  1.0924 -2.3202
   49MOL    C74 7850   1.923   7.165   1.012  0.0105  0.1041  0.4780
   49MOL    C75 7851   1.987   7.058   1.090 -0.4057  0.2229 -0.6007
   49MOL    N76 7852   1.879   6.971   1.138  0.0870 -0.5991 -0.7246
   49MOL    H77 7853   1.835   7.186   1.072 -1.5229 -1.0298 -1.3360
   49MOL    H78 7854   1.885   7.112   0.925 -0.1801 -0.3955  0.8668
   49MOL    H79 7855   2.021   7.107   1.180 -0.5781  0.1325 -0.4850
   49MOL    H80 7856   1.894   6.872   1.154  2.1132 -0.3213 -0.8345
   49MOL    H81 7857   1.849   7.008   1.227  2.1578  3.0775 -1.4788
   49MOL    C82 7858   2.103   6.981   1.015  0.3398  0.0414 -0.3442
   49MOL    C83 7859   2.174   6.875   1.091  0.0858 -0.5992 -0.4028
   49MOL    N84 7860   2.275   6.811   1.004 -0.4881 -0.0697 -0.0062
   49MOL    H85 7861   2.067   6.941   0.920  1.8515 -1.2170 -0.4171
   49MOL    H86 7862   2.173   7.058   0.982  0.3767  0.4968  0.7979
   49MOL    H87 7863   2.089   6.811   1.114 -0.3776  0.3518  0.5740
   49MOL    H88 7864   2.233   6.806   0.913 -0.7316 -3.5071  0.2107
   49MOL    H89 7865   2.289   6.714   1.030 -1.9525  0.1453  1.6716
   49MOL    C90 7866   2.238   6.923   1.222  0.1780  0.0964  0.3702
   49MOL    C91 7867   2.267   6.813   1.326  0.0055 -0.1883 -0.2033
   49MOL    N92 7868   2.362   6.878   1.416  0.3462 -0.3053  0.1620
   49MOL    H93 7869   2.333   6.972   1.202  0.4569 -0.3072  0.6845
   49MOL    H94 7870   2.171   6.993   1.273 -2.2334 -0.0453 -2.4606
   49MOL    H95 7871   2.317   6.730   1.275  0.0546  0.0806 -0.5942
   49MOL    H96 7872   2.423   6.941   1.365  0.6311 -1.3830 -0.8454
   49MOL    H97 7873   2.438   6.822   1.454  2.0516  1.2096 -0.9554
   49MOL    C98 7874   2.137   6.768   1.392  0.0020  0.2860 -0.1003
   49MOL    C99 7875   2.131   6.629   1.456  0.2250  0.5516 -0.0723
   49MOL   N100 7876   2.037   6.631   1.567  0.4509  0.2332  0.2371
   49MOL   H101 7877   2.102   6.853   1.450  0.7269 -0.0098  0.7844
   49MOL   H102 7878   2.053   6.779   1.323  0.9838  1.5823 -1.1428
   49MOL   H103 7879   2.225   6.607   1.508  0.7558 -0.4356 -1.4233
   49MOL   H104 7880   1.944   6.667   1.549 -0.2386 -0.3100  2.4496
   49MOL   H105 7881   2.085   6.685   1.639  1.2171  0.3661 -0.3642
   49MOL   C106 7882   2.087   6.516   1.364 -0.5120  0.0596  0.1700
   49MOL   C107 7883   2.188   6.480   1.260  0.1477 -0.1332  0.1339
   49MOL   N108 7884   2.307   6.426   1.323 -0.3143 -0.2510  0.2096
   49MOL   H109 7885   2.068   6.427   1.424 -0.2001  0.2754  0.5898
   49MOL   H110 7886   1.987   6.539   1.327  0.1345  3.5963  0.4720
   49MOL   H111 7887   2.206   6.570   1.202 -0.3211  0.3735  0.7822
   49MOL   H112 7888   2.286   6.350   1.387  1.3091 -0.1560  0.8879
   49MOL   H113 7889   2.363   6.383   1.250 -1.5247 -0.2070 -0.7587
   49MOL   C114 7890   2.133   6.372   1.163  0.3113  0.2225 -0.2010
   49MOL   C115 7891   2.227   6.340   1.037 -0.3360 -0.0734  0.1714
   49MOL   N116 7892   2.190   6.211   0.993  0.3805  0.2708 -0.3207
   49MOL   H117 7893   2.109   6.288   1.227  1.5846 -0.1198 -0.1632
   49MOL   H118 7894   2.036   6.406   1.126  1.2304  1.0567 -1.8867
   49MOL   H119 7895   2.332   6.327   1.063 -0.3324 -2.8642 -1.0715
   49MOL   H120 7896   2.257   6.183   0.923 -0.0245 -1.0718 -0.1832
   49MOL   H121 7897   2.206   6.155   1.076 -0.9360  1.1364  0.5453
   49MOL   C122 7898   2.218   6.438   0.916 -0.4922 -0.3363  0.6007
   49MOL   C123 7899   2.341   6.442   0.818 -0.0764  0.1639  0.2732
   49MOL   N124 7900   2.296   6.501   0.691  0.1984  0.4914 -0.5109
   49MOL   H125 7901   2.133   6.408   0.854 -1.3592 -1.0904  2.1089
   49MOL   H126 7902   2.198   6.539   0.951  2.1630  0.5310 -0.3321
   49MOL   H127 7903   2.364   6.337   0.805  1.9264  0.7602 -1.3440
   49MOL   H128 7904   2.355   6.496   0.609  1.9604 -0.1245  0.7639
   49MOL   H129 7905   2.208   6.458   0.664  0.8389 -0.3387 -1.3090
   49MOL   C130 7906   2.466   6.533   0.863 -0.6355  0.0823 -0.0314
   49MOL   C131 7907   2.542   6.476   0.981 -0.4041 -0.4459  0.2260
   49MOL   N132 7908   2.617   6.364   0.932  0.6338 -0.7172 -0.1135
   49MOL   H133 7909   2.541   6.528   0.784 -0.1100  2.9244  0.2707
   49MOL   H134 7910   2.437   6.636   0.880 -0.8826 -0.2348  1.5563
   49MOL   H135 7911   2.465   6.454   1.055 -0.3405 -1.6795 -0.0533
   49MOL   H136 7912   2.547   6.319   0.876 -1.1479  1.2633  0.4416
   49MOL   H137 7913   2.685   6.409   0.871  0.5113 -0.4683 -0.0696
   49MOL   C138 7914   2.649   6.575   1.040  0.5194 -0.1606 -0.2318
   49MOL   C139 7915   2.588   6.680   1.127  0.2505  0.0055  0.0146
   49MOL   N140 7916   2.585   6.637   1.267 -0.0867  0.3455 -0.6458
   49MOL   H141 7917   2.732   6.524   1.089  0.1521 -0.2419  0.3075
   49MOL   H142 7918   2.694   6.620   0.951  0.5559  0.6318  0.1754
   49MOL   H143 7919   2.481   6.696   1.111 -0.1539 -1.7536  0.8580
   49MOL   H144 7920   2.567   6.718   1.323 -1.3186  1.0857 -2.0700
   49MOL   H145 7921   2.499   6.587   1.281 -1.0006  2.1172  0.1953
   49MOL   C146 7922   2.651   6.821   1.126 -0.2121 -1.0609 -0.0666
   49MOL   C147 7923   2.634   6.905   1.000 -0.1669 -0.3992 -0.0570
   49MOL   N148 7924   2.510   6.980   1.013  0.5983 -0.1034  0.5139
   49MOL   H149 7925   2.614   6.879   1.211 -0.3677 -0.1733 -0.7382
   49MOL   H150 7926   2.757   6.797   1.133  0.1672  0.0650 -1.6918
   49MOL   H151 7927   2.641   6.849   0.907  0.5979 -0.0052 -0.2431
   49MOL   H152 7928   2.470   7.022   0.930  1.9316 -2.4752 -1.3917
   49MOL   H153 7929   2.442   6.908   1.032  0.4429 -0.3712 -0.9788
   49MOL   C154 7930   2.751   7.010   0.995 -0.5017 -0.5273  0.0999
   49MOL   C155 7931   2.891   6.946   0.965 -0.1709  0.1337  0.5433
   49MOL   N156 7932   2.969   7.053   0.909 -0.9214 -0.6871  0.1125
   49MOL   H157 7933   2.721   7.076   0.913  0.2332 -1.9504 -1.3430
   49MOL   H158 7934   2.750   7.065   1.089 -1.2564 -3.7041  2.0390
   49MOL   H159 7935   2.889   6.861   0.898  0.7144  0.5024  0.0487
   49MOL   H160 7936   2.921   7.091   0.829 -1.4369  0.2112  0.8405
   49MOL   H161 7937   3.037   6.990   0.869 -1.0390  0.2491 -1.5753
   49MOL   H162 7938   2.922   6.906   1.062  0.7460 -1.9199 -0.5660
   50MOL     C1 7939   1.835   5.133   5.390  0.5088 -0.0994  0.1442
   50MOL     C2 7940   1.813   5.228   5.266 -0.1992  0.0081  1.1082
   50MOL     N3 7941   1.760   5.152   5.161  0.0140 -0.1000  0.3399
   50MOL     H4 7942   1.907   5.057   5.357 -0.3196 -0.6298 -0.4610
   50MOL     H5 7943   1.752   5.075   5.431 -0.4017  2.6033  2.2281
   50MOL     H6 7944   1.909   5.277   5.250 -1.3780  1.2270 -2.9166
   50MOL     H7 7945   1.753   5.202   5.074 -2.1743 -0.7462  0.1268
   50MOL     H8 7946   1.660   5.144   5.173 -0.1136 -1.4899 -1.5118
   50MOL     H9 7947   1.880   5.189   5.472  0.0570 -2.2063  1.8785
   50MOL    C10 7948   1.716   5.339   5.307 -0.2367 -0.4471  0.8931
   50MOL    C11 7949   1.781   5.445   5.393  0.2118 -0.3149  0.4999
   50MOL    N12 7950   1.823   5.551   5.311 -0.8383  0.8408  0.2858
   50MOL    H13 7951   1.664   5.399   5.233  0.1344  0.1405  1.1015
   50MOL    H14 7952   1.633   5.288   5.355 -1.0076 -2.7550 -2.8015
   50MOL    H15 7953   1.871   5.413   5.446  0.4145  0.0122  0.3553
   50MOL    H16 7954   1.757   5.556   5.235 -0.2192  1.5982 -0.2040
   50MOL    H17 7955   1.902   5.522   5.256  0.9909  2.1349  2.1633
   50MOL    C18 7956   1.678   5.512   5.486  0.3999  0.1265 -0.0241
   50MOL    C19 7957   1.657   5.422   5.618 -0.0525  0.1940  0.4762
   50MOL    N20 7958   1.771   5.444   5.703 -0.8887  0.2109  0.2226
   50MOL    H21 7959   1.719   5.610   5.510  2.4252 -0.2671 -1.6616
   50MOL    H22 7960   1.589   5.523   5.425 -0.3304 -3.0506  0.3865
   50MOL    H23 7961   1.661   5.322   5.574 -2.1476  0.0952  0.4386
   50MOL    H24 7962   1.793   5.371   5.770  0.4971  1.7788  1.5345
   50MOL    H25 7963   1.851   5.433   5.643 -0.6669 -2.1695  0.8996
   50MOL    C26 7964   1.526   5.434   5.696 -0.4116 -0.6401 -0.3795
   50MOL    C27 7965   1.400   5.396   5.616 -0.4129  0.5161 -0.1407
   50MOL    N28 7966   1.391   5.249   5.598  0.0845 -0.0846  0.2845
   50MOL    H29 7967   1.539   5.374   5.787 -0.7939 -1.0815 -0.6129
   50MOL    H30 7968   1.514   5.539   5.722  1.9178  0.1489 -2.3450
   50MOL    H31 7969   1.392   5.442   5.518  1.1883 -0.8172 -0.9161
   50MOL    H32 7970   1.347   5.223   5.511 -1.3301 -0.3783  1.0650
   50MOL    H33 7971   1.311   5.227   5.655 -1.2297 -0.8428 -1.7966
   50MOL    C34 7972   1.271   5.421   5.692 -0.0167  0.2634 -0.0418
   50MOL    C35 7973   1.138   5.426   5.611  0.4034  0.0680  0.1726
   50MOL    N36 7974   1.106   5.289   5.578  0.0513 -0.2336 -0.0324
   50MOL    H37 7975   1.266   5.351   5.776  2.0437  0.7616  0.5085
   50MOL    H38 7976   1.269   5.522   5.733 -0.4025 -0.3785  1.5670
   50MOL    H39 7977   1.143   5.476   5.515  0.4108 -2.7895 -1.3547
   50MOL    H40 7978   1.020   5.276   5.527  0.4415  0.6243 -0.9113
   50MOL    H41 7979   1.077   5.245   5.665 -0.3192 -2.6160 -1.3110
   50MOL    C42 7980   1.026   5.495   5.693  0.3466 -0.1235  0.2897
   50MOL    C43 7981   0.941   5.607   5.620 -0.4237 -0.4989 -0.1302
   50MOL    N44 7982   1.015   5.733   5.620  0.2355  0.1335 -0.0958
   50MOL    H45 7983   0.954   5.418   5.718  0.2733  0.2511  1.2360
   50MOL    H46 7984   1.060   5.529   5.791  1.4956 -0.5224  0.0427
   50MOL    H47 7985   0.858   5.647   5.678 -0.7499  1.6656 -2.0175
   50MOL    H48 7986   1.032   5.747   5.718  1.3417 -0.4166 -0.2099
   50MOL    H49 7987   1.103   5.716   5.574 -0.2891  1.3822 -1.6297
   50MOL    C50 7988   0.886   5.572   5.490  0.2897  0.3510 -0.1521
   50MOL    C51 7989   0.778   5.666   5.440  0.2483  0.0877  0.4823
   50MOL    N52 7990   0.834   5.793   5.405  0.4941  0.2711 -0.2858
   50MOL    H53 7991   0.964   5.566   5.414  1.1503 -0.6697  0.8062
   50MOL    H54 7992   0.849   5.469   5.493 -2.1165  1.2306  2.7327
   50MOL    H55 7993   0.719   5.685   5.530 -1.5386  1.0786 -0.8581
   50MOL    H56 7994   0.905   5.816   5.472  0.4065  0.4384 -0.2486
   50MOL    H57 7995   0.894   5.781   5.325  1.5037  2.3445  0.1159
   50MOL    C58 7996   0.706   5.599   5.320  0.1150 -0.0889  0.8321
   50MOL    C59 7997   0.562   5.552   5.342 -0.1282  0.6418 -0.9496
   50MOL    N60 7998   0.521   5.480   5.221 -0.6922 -0.4556 -0.4978
   50MOL    H61 7999   0.701   5.667   5.235  1.3493 -0.7505  0.2082
   50MOL    H62 8000   0.761   5.513   5.282  1.9572  1.5756 -0.3871
   50MOL    H63 8001   0.489   5.630   5.361 -1.9784 -1.2728  0.0013
   50MOL    H64 8002   0.579   5.397   5.218 -0.1410 -0.2696  2.7965
   50MOL    H65 8003   0.427   5.452   5.243 -0.5023 -1.0124 -0.3870
   50MOL    C66 8004   0.549   5.456   5.458  0.5944  0.0489  0.4003
   50MOL    C67 8005   0.395   5.440   5.504 -0.2609  0.7042  0.6720
   50MOL    N68 8006   0.299   5.425   5.393 -0.1301  0.0464  0.6147
   50MOL    H69 8007   0.571   5.356   5.421  0.3995  0.6218 -1.2800
   50MOL    H70 8008   0.612   5.481   5.544  1.5811 -2.8501  0.5939
   50MOL    H71 8009   0.360   5.530   5.553 -1.9073  0.7588 -0.5597
   50MOL    H72 8010   0.220   5.373   5.426  0.2718 -0.9378  0.0395
   50MOL    H73 8011   0.269   5.521   5.389  0.8306  0.2711 -1.5777
   50MOL    C74 8012   0.381   5.322   5.605 -0.2820 -0.5528 -0.5446
   50MOL    C75 8013   0.248   5.328   5.694  0.3996 -0.1301  0.4684
   50MOL    N76 8014   0.221   5.199   5.759  0.3849  0.2515 -0.0029
   50MOL    H77 8015   0.403   5.226   5.557  1.4512 -1.1614  1.3833
   50MOL    H78 8016   0.463   5.332   5.677 -1.1630 -0.4322  0.4436
   50MOL    H79 8017   0.172   5.330   5.615 -1.9050 -0.2713  2.6217
   50MOL    H80 8018   0.271   5.198   5.847 -0.0904 -0.9785  0.2640
   50MOL    H81 8019   0.127   5.184   5.791  0.0294 -1.9854 -1.9944
   50MOL    C82 8020   0.240   5.446   5.791 -0.2148 -0.0583 -0.4886
   50MOL    C83 8021   0.100   5.497   5.834 -0.1839  0.0752 -0.9168
   50MOL    N84 8022   0.098   5.553   5.970  0.1161 -0.1985 -0.4851
   50MOL    H85 8023   0.306   5.409   5.870  2.5260  1.7474 -1.8515
   50MOL    H86 8024   0.303   5.530   5.760  1.4379 -0.9811  0.2578
   50MOL    H87 8025   0.033   5.412   5.823  0.1052 -0.7540  2.9603
   50MOL    H88 8026   0.083   5.476   6.033  0.6909 -1.3664 -1.7578
   50MOL    H89 8027   0.019   5.614   5.987  0.0675 -0.8367  1.7105
   50MOL    C90 8028   0.041   5.614   5.754  0.2789  0.2171  0.4377
   50MOL    C91 8029   7.164   5.607   5.736  0.1659  0.1922 -0.0431
   50MOL    N92 8030   7.115   5.741   5.740  0.1036  0.3028  0.2088
   50MOL    H93 8031   0.075   5.706   5.801  1.3049 -0.6279  1.3463
   50MOL    H94 8032   0.087   5.621   5.655  1.3085 -3.3548  0.6102
   50MOL    H95 8033   7.122   5.566   5.828  0.0640  2.1985  0.8553
   50MOL    H96 8034   7.191   5.798   5.707 -0.3600  1.2801  0.8260
   50MOL    H97 8035   7.108   5.765   5.838 -1.5854  0.7277  0.0047
   50MOL    C98 8036   7.114   5.530   5.616 -0.1855  0.1073 -0.0626
   50MOL    C99 8037   7.127   5.372   5.620  0.4106  0.0458 -0.5222
   50MOL   N100 8038   7.053   5.313   5.734  0.0613  0.3474  0.0817
   50MOL   H101 8039   7.010   5.560   5.602  0.5938  1.9538 -2.2104
   50MOL   H102 8040   7.157   5.574   5.526  0.6591  0.1500  0.3532
   50MOL   H103 8041   7.234   5.351   5.621  0.1852 -1.3698 -2.6718
   50MOL   H104 8042   7.037   5.217   5.708 -2.7586  0.1074  2.4440
   50MOL   H105 8043   6.958   5.344   5.747  0.6854  2.7416 -0.7862
   50MOL   C106 8044   7.085   5.297   5.492  0.3643 -0.0698  0.3765
   50MOL   C107 8045   7.140   5.346   5.354  0.3665 -0.0013 -0.3949
   50MOL   N108 8046   0.011   5.339   5.351  0.5880 -0.2590  1.0656
   50MOL   H109 8047   7.092   5.189   5.504  0.6796 -0.3036 -1.7059
   50MOL   H110 8048   6.977   5.305   5.484  0.2416 -1.0427  1.0410
   50MOL   H111 8049   7.126   5.454   5.351 -0.3635 -0.1202 -1.9927
   50MOL   H112 8050   0.026   5.239   5.341  2.0430 -0.2251  2.7436
   50MOL   H113 8051   0.055   5.382   5.271 -0.2154 -0.5469  0.4504
   50MOL   C114 8052   7.076   5.290   5.226 -0.2312 -0.6797  0.1895
   50MOL   C115 8053   6.929   5.313   5.184 -0.3887  0.3598  0.2348
   50MOL   N116 8054   6.931   5.330   5.041 -0.7287 -0.5877  0.6036
   50MOL   H117 8055   7.134   5.336   5.145 -2.3511  0.2245 -0.8577
   50MOL   H118 8056   7.111   5.188   5.210  0.5597 -0.4363  0.3056
   50MOL   H119 8057   6.898   5.406   5.231 -1.6542  0.5010 -0.8749
   50MOL   H120 8058   7.001   5.394   5.007 -0.6800  0.2689  2.2307
   50MOL   H121 8059   6.844   5.355   4.996  0.3752  0.7351 -0.8707
   50MOL   C122 8060   6.846   5.189   5.224 -0.0347  0.1647  0.1299
   50MOL   C123 8061   6.702   5.213   5.268 -0.1547 -0.5619 -0.4128
   50MOL   N124 8062   6.686   5.208   5.414  0.0019  0.1960 -0.7441
   50MOL   H125 8063   6.852   5.125   5.136 -1.3778  0.1115  0.0718
   50MOL   H126 8064   6.899   5.133   5.302  1.2603  0.6996 -0.3521
   50MOL   H127 8065   6.652   5.125   5.227  0.5522 -1.1788  0.0305
   50MOL   H128 8066   6.730   5.118   5.427  1.3152  0.7347 -1.4313
   50MOL   H129 8067   6.590   5.210   5.446  0.1335 -3.3339  0.1459
   50MOL   C130 8068   6.633   5.338   5.203  0.7310 -0.6966 -0.1831
   50MOL   C131 8069   6.606   5.315   5.051 -0.3458  0.6939 -0.1007
   50MOL   N132 8070   6.480   5.243   5.030  0.5089 -0.0605 -0.2637
   50MOL   H133 8071   6.544   5.360   5.261  1.1592 -0.2403  0.3071
   50MOL   H134 8072   6.701   5.423   5.215 -1.2144  1.5292 -3.8556
   50MOL   H135 8073   6.687   5.254   5.011 -2.3260 -1.5013 -0.8882
   50MOL   H136 8074   6.402   5.307   5.034  2.4779  2.4194 -0.1837
   50MOL   H137 8075   6.484   5.212   4.934 -1.7481  1.1988 -0.8040
   50MOL   C138 8076   6.613   5.446   4.962  0.7808  0.1557 -0.2186
   50MOL   C139 8077   6.606   5.430   4.807 -0.3276  0.2318 -0.1920
   50MOL   N140 8078   6.554   5.550   4.744  0.2991  0.4231 -0.2548
   50MOL   H141 8079   6.534   5.516   4.991  1.0734  0.8389 -1.0445
   50MOL   H142 8080   6.697   5.504   4.998 -1.1470  1.7686  1.7755
   50MOL   H143 8081   6.537   5.347   4.790 -0.0906 -0.2289  1.0944
   50MOL   H144 8082   6.602   5.632   4.779  2.3690 -0.3840 -1.1301
   50MOL   H145 8083   6.587   5.549   4.649 -2.0261 -0.3457 -1.0989
   50MOL   C146 8084   6.737   5.392   4.740 -0.4425  0.1481  0.0410
   50MOL   C147 8085   6.719   5.344   4.593  0.0809  0.4610  0.4565
   50MOL   N148 8086   6.775   5.443   4.500 -0.6449  0.1731 -0.3982
   50MOL   H149 8087   6.817   5.467   4.742  0.4392 -0.8068  1.1191
   50MOL   H150 8088   6.769   5.307   4.800 -1.6025  2.1369  3.6024
   50MOL   H151 8089   6.613   5.325   4.574 -0.6935  1.6454  3.2990
   50MOL   H152 8090   6.762   5.406   4.407  0.5869 -1.0171 -0.1055
   50MOL   H153 8091   6.713   5.523   4.489  0.1207  0.7755 -0.3833
   50MOL   C154 8092   6.794   5.211   4.567  0.1539  0.0335 -0.4094
   50MOL   C155 8093   6.726   5.093   4.639  0.1251 -0.0294 -0.5052
   50MOL   N156 8094   6.803   4.972   4.634 -0.1844  0.0882  0.1174
   50MOL   H157 8095   6.811   5.181   4.463 -2.0917  1.3663 -1.2008
   50MOL   H158 8096   6.891   5.237   4.609  0.3947  0.7195 -1.3588
   50MOL   H159 8097   6.623   5.088   4.604  0.0294 -0.9485 -0.1079
   50MOL   H160 8098   6.753   4.886   4.650 -2.9061  1.2912 -1.6100
   50MOL   H161 8099   6.870   4.982   4.709  1.1195 -1.3190 -0.8261
   50MOL   H162 8100   6.706   5.116   4.743 -0.8093  2.8385 -1.2705
   51MOL     C1 8101   3.270   5.270   1.005 -0.0255 -0.3963 -0.0821
   51MOL     C2 8102   3.257   5.283   1.152  0.6658  0.5548  0.2334
   51MOL     N3 8103   3.173   5.393   1.188 -0.0707 -0.2371  0.0796
   51MOL     H4 8104   3.325   5.355   0.966 -0.8973 -1.0768 -2.9016
   51MOL     H5 8105   3.172   5.277   0.958  0.1112  2.1930 -0.0680
   51MOL     H6 8106   3.360   5.280   1.187  0.6975 -1.5248  0.0408
   51MOL     H7 8107   3.160   5.391   1.288 -1.2650  0.8390 -0.0473
   51MOL     H8 8108   3.080   5.380   1.150  0.8018  0.2738 -2.3277
   51MOL     H9 8109   3.306   5.176   0.964 -0.7945 -1.1099  0.8612
   51MOL    C10 8110   3.182   5.155   1.193 -0.3752 -0.4363  0.1620
   51MOL    C11 8111   3.278   5.035   1.196 -0.1165  0.3308  0.2570
   51MOL    N12 8112   3.357   5.036   1.321 -0.8419 -0.2862 -0.0530
   51MOL    H13 8113   3.144   5.164   1.295  1.5313 -1.8123  1.0451
   51MOL    H14 8114   3.091   5.135   1.137 -0.1280  0.2041 -0.4635
   51MOL    H15 8115   3.350   5.046   1.115 -0.6884 -2.5306 -0.7022
   51MOL    H16 8116   3.293   5.000   1.391 -0.7995  1.6595  1.0233
   51MOL    H17 8117   3.424   4.961   1.314 -0.5716  0.0011 -0.5383
   51MOL    C18 8118   3.196   4.909   1.173 -0.2939  0.0316 -0.5772
   51MOL    C19 8119   3.273   4.782   1.128  0.4742 -0.0569 -0.1587
   51MOL    N20 8120   3.183   4.669   1.119 -0.0131 -0.6682  0.4028
   51MOL    H21 8121   3.144   4.888   1.267 -0.4291  1.4692 -0.3057
   51MOL    H22 8122   3.123   4.941   1.098  1.3641 -0.0612 -2.2505
   51MOL    H23 8123   3.344   4.756   1.206 -0.1563  0.5466  0.6162
   51MOL    H24 8124   3.236   4.584   1.104 -0.7545 -0.8261 -1.4853
   51MOL    H25 8125   3.132   4.657   1.205  0.5707  1.1800  1.0170
   51MOL    C26 8126   3.335   4.800   0.989 -0.1094  0.3948  0.1405
   51MOL    C27 8127   3.484   4.826   0.989  0.5320  0.1267  0.0281
   51MOL    N28 8128   3.549   4.711   1.032  0.1848  0.7155  0.2124
   51MOL    H29 8129   3.302   4.719   0.924 -0.4052 -1.4832  2.5938
   51MOL    H30 8130   3.287   4.888   0.946  0.1776  0.0993 -0.7918
   51MOL    H31 8131   3.506   4.907   1.059 -0.4519  1.7059 -1.4529
   51MOL    H32 8132   3.495   4.629   1.007  0.9206 -0.3568  1.9842
   51MOL    H33 8133   3.643   4.693   0.999 -0.1259 -0.1351 -0.2191
   51MOL    C34 8134   3.537   4.864   0.846  0.3965  0.0688  0.0250
   51MOL    C35 8135   3.667   4.942   0.850  0.1758  0.2573  0.8110
   51MOL    N36 8136   3.732   4.937   0.721  0.0234  0.1688  0.3291
   51MOL    H37 8137   3.540   4.767   0.796 -1.4502 -0.6028  1.1429
   51MOL    H38 8138   3.461   4.915   0.786  0.8752  1.4817  0.5932
   51MOL    H39 8139   3.728   4.894   0.927 -0.8409 -0.6277  1.0711
   51MOL    H40 8140   3.807   5.001   0.744  1.1503 -0.8226 -0.4844
   51MOL    H41 8141   3.771   4.844   0.715  0.0636  0.2222 -0.2985
   51MOL    C42 8142   3.654   5.092   0.881 -0.3226 -0.6868 -0.1667
   51MOL    C43 8143   3.751   5.150   0.994  0.7581  0.6198  0.1150
   51MOL    N44 8144   3.724   5.290   1.014  0.1097  0.3030  0.4995
   51MOL    H45 8145   3.644   5.146   0.787  1.2418 -0.4391 -0.2092
   51MOL    H46 8146   3.555   5.101   0.926  0.6950  0.6973  1.8246
   51MOL    H47 8147   3.852   5.145   0.952  0.5704 -0.2487 -0.2533
   51MOL    H48 8148   3.707   5.322   0.920  2.9732 -0.6941 -0.4118
   51MOL    H49 8149   3.636   5.301   1.062  0.3024  0.9834  0.7043
   51MOL    C50 8150   3.760   5.086   1.134  0.4439  0.0003 -0.3028
   51MOL    C51 8151   3.875   5.125   1.230  0.6236 -0.0887  0.3843
   51MOL    N52 8152   3.839   5.058   1.354  0.3363  0.3101  0.3410
   51MOL    H53 8153   3.664   5.116   1.176  0.3203 -1.4508  0.4396
   51MOL    H54 8154   3.749   4.978   1.127 -2.7783  0.2658  0.0975
   51MOL    H55 8155   3.881   5.234   1.241  0.0844  0.2713 -2.5159
   51MOL    H56 8156   3.913   5.066   1.423 -2.2381  1.7507  3.0749
   51MOL    H57 8157   3.757   5.108   1.387 -0.0312 -0.7322  1.0272
   51MOL    C58 8158   4.007   5.082   1.176 -0.2708  0.7922  0.0740
   51MOL    C59 8159   4.126   5.153   1.236  0.0624  0.0316  0.0302
   51MOL    N60 8160   4.245   5.070   1.243 -0.0012 -0.3483  0.3546
   51MOL    H61 8161   4.012   4.974   1.166  1.8767  0.8870 -0.0806
   51MOL    H62 8162   4.022   5.103   1.070  1.3684 -0.9772 -0.0528
   51MOL    H63 8163   4.089   5.171   1.337 -2.1359 -0.3315 -0.6795
   51MOL    H64 8164   4.316   5.142   1.247  0.7862 -0.8695 -2.8829
   51MOL    H65 8165   4.253   5.029   1.334  0.2962 -0.7720  0.1377
   51MOL    C66 8166   4.182   5.283   1.168  0.4609 -0.2254 -0.0191
   51MOL    C67 8167   4.075   5.396   1.145 -0.2207  0.0724 -0.2935
   51MOL    N68 8168   4.038   5.460   1.267 -0.1181 -0.3830  0.2403
   51MOL    H69 8169   4.267   5.321   1.224  1.5824 -0.4089 -1.5738
   51MOL    H70 8170   4.232   5.265   1.073 -0.3142  0.2887 -0.5328
   51MOL    H71 8171   3.984   5.350   1.108 -1.4208  0.6638  1.8752
   51MOL    H72 8172   4.009   5.387   1.330 -0.2070 -1.1740 -0.7167
   51MOL    H73 8173   4.125   5.489   1.310  0.9931 -0.0628 -2.1730
   51MOL    C74 8174   4.111   5.492   1.039 -0.2015 -0.1322  0.2295
   51MOL    C75 8175   4.121   5.442   0.893 -0.1110 -0.3131  0.5171
   51MOL    N76 8176   3.990   5.438   0.829  0.0478 -0.3490 -0.6281
   51MOL    H77 8177   4.055   5.585   1.040 -0.9320 -0.4931 -2.5148
   51MOL    H78 8178   4.214   5.519   1.063 -0.6659  1.7508  0.1542
   51MOL    H79 8179   4.166   5.342   0.886 -0.0034 -0.3350  1.4825
   51MOL    H80 8180   3.916   5.412   0.892 -0.0739 -0.2281 -0.7230
   51MOL    H81 8181   3.997   5.358   0.767 -2.2975 -0.4450 -0.8124
   51MOL    C82 8182   4.207   5.543   0.807 -0.1129 -0.6780  0.9854
   51MOL    C83 8183   4.357   5.511   0.797 -0.8397  1.3621  0.7332
   51MOL    N84 8184   4.372   5.372   0.750 -0.1670 -0.1680  0.0823
   51MOL    H85 8185   4.169   5.549   0.705  1.0658  0.0847  0.5965
   51MOL    H86 8186   4.193   5.639   0.857 -1.8363 -0.8749  0.9178
   51MOL    H87 8187   4.407   5.517   0.894  1.4420 -1.8982 -0.1661
   51MOL    H88 8188   4.457   5.324   0.773 -0.6703 -1.1168 -0.0377
   51MOL    H89 8189   4.362   5.380   0.650  0.2345 -0.8824 -0.0146
   51MOL    C90 8190   4.439   5.605   0.707  0.2724  0.3355  0.2720
   51MOL    C91 8191   4.452   5.752   0.743 -0.0454  1.2267 -0.0448
   51MOL    N92 8192   4.591   5.793   0.748  0.1083  0.4795  0.8448
   51MOL    H93 8193   4.535   5.556   0.688  0.3529  1.2020 -1.7248
   51MOL    H94 8194   4.384   5.594   0.614 -0.3576 -0.9317  0.7917
   51MOL    H95 8195   4.400   5.765   0.837  0.3394 -0.1829  0.3671
   51MOL    H96 8196   4.622   5.733   0.823 -1.9714 -1.2158  0.3854
   51MOL    H97 8197   4.593   5.882   0.796 -0.1348  0.3753  1.0523
   51MOL    C98 8198   4.381   5.839   0.632 -0.1022  0.6186 -0.2770
   51MOL    C99 8199   4.229   5.839   0.645 -0.1417 -0.0234  0.0379
   51MOL   N100 8200   4.183   5.910   0.762 -0.0047  0.1326  0.2864
   51MOL   H101 8201   4.421   5.940   0.619 -1.5897  1.0016 -2.0747
   51MOL   H102 8202   4.421   5.790   0.544  1.3698 -1.7448  1.6575
   51MOL   H103 8203   4.205   5.733   0.653  1.3288 -0.4124 -0.4517
   51MOL   H104 8204   4.088   5.891   0.788  0.0240 -0.3024  0.0680
   51MOL   H105 8205   4.241   5.879   0.839  0.1240 -0.6662 -0.1261
   51MOL   C106 8206   4.141   5.883   0.528 -0.3326 -0.1279 -0.2570
   51MOL   C107 8207   4.169   5.797   0.401 -0.3436 -0.8045  0.0055
   51MOL   N108 8208   4.048   5.764   0.329  0.0156  0.0635 -0.1290
   51MOL   H109 8209   4.041   5.858   0.563  0.9243 -0.8155  2.9896
   51MOL   H110 8210   4.120   5.989   0.520  2.0941  0.3064 -1.2476
   51MOL   H111 8211   4.223   5.706   0.428 -1.1044 -1.8991 -2.0294
   51MOL   H112 8212   4.007   5.698   0.393  1.3177 -1.0021 -0.3634
   51MOL   H113 8213   4.085   5.709   0.253 -2.4122 -1.3742 -0.2856
   51MOL   C114 8214   4.263   5.883   0.306  0.3090  0.5514 -0.4575
   51MOL   C115 8215   4.315   5.823   0.176 -0.9561 -0.7184  1.0071
   51MOL   N116 8216   4.318   5.928   0.076 -0.0709 -0.2278 -0.2431
   51MOL   H117 8217   4.222   5.984   0.295 -0.0134  0.3963 -0.6958
   51MOL   H118 8218   4.348   5.911   0.368 -0.8458  2.1010  0.5007
   51MOL   H119 8219   4.243   5.751   0.137 -1.2312 -0.6389  1.3671
   51MOL   H120 8220   4.310   5.898   7.255  2.2823 -3.0096  0.3657
   51MOL   H121 8221   4.223   5.959   0.090 -0.3505 -1.1700 -0.0820
   51MOL   C122 8222   4.453   5.747   0.167 -0.1132 -0.9362  0.3338
   51MOL   C123 8223   4.456   5.618   0.256 -0.7146  0.0756  0.3267
   51MOL   N124 8224   4.395   5.505   0.181 -0.2116 -0.2918 -0.0062
   51MOL   H125 8225   4.484   5.727   0.065 -2.8192 -0.4803 -0.6205
   51MOL   H126 8226   4.522   5.824   0.204  0.3668 -0.9399 -0.5525
   51MOL   H127 8227   4.401   5.636   0.349  0.1001  2.0872  0.4542
   51MOL   H128 8228   4.312   5.549   0.144 -0.2321  0.8715  1.3561
   51MOL   H129 8229   4.363   5.432   0.244  0.0760 -1.3131 -1.0467
   51MOL   C130 8230   4.596   5.572   0.293  0.0035  0.3915  0.2375
   51MOL   C131 8231   4.657   5.648   0.410 -0.3777  0.0310 -0.8432
   51MOL   N132 8232   4.731   5.565   0.517  0.1888 -0.4220  0.8624
   51MOL   H133 8233   4.595   5.465   0.314 -1.2125  0.6312  1.4754
   51MOL   H134 8234   4.657   5.582   0.203  1.1074 -0.5263  0.8650
   51MOL   H135 8235   4.588   5.719   0.455  0.7407 -0.1368  1.1953
   51MOL   H136 8236   4.783   5.623   0.580 -0.9107 -0.9404  2.2571
   51MOL   H137 8237   4.657   5.522   0.570  0.0197 -0.6293  0.4676
   51MOL   C138 8238   4.756   5.756   0.365  0.6076  0.2602 -0.1179
   51MOL   C139 8239   4.754   5.884   0.446 -0.2579 -0.2825  0.1768
   51MOL   N140 8240   4.803   5.866   0.579  0.0268  1.0318 -0.0123
   51MOL   H141 8241   4.860   5.727   0.349  0.2445 -1.4516  0.5036
   51MOL   H142 8242   4.735   5.791   0.264 -0.7626 -2.3127 -0.7766
   51MOL   H143 8243   4.652   5.922   0.454  0.1503  0.6635  1.0073
   51MOL   H144 8244   4.803   5.955   0.626 -4.0099  0.7058  0.7811
   51MOL   H145 8245   4.739   5.817   0.640 -0.9107 -1.1510 -2.6226
   51MOL   C146 8246   4.828   6.002   0.377 -0.3728  0.7172  0.4550
   51MOL   C147 8247   4.760   6.137   0.416  0.2693 -0.8059 -0.1894
   51MOL   N148 8248   4.872   6.232   0.427  0.0550  0.2106 -0.0426
   51MOL   H149 8249   4.936   5.992   0.375 -0.3645  0.4682  1.7775
   51MOL   H150 8250   4.815   5.993   0.269 -2.5542 -0.8852  0.7977
   51MOL   H151 8251   4.714   6.134   0.515  2.4884  4.2142  1.1178
   51MOL   H152 8252   4.917   6.224   0.336 -0.0282 -0.9894  0.0078
   51MOL   H153 8253   4.851   6.329   0.444 -0.3166  0.1303 -0.0519
   51MOL   C154 8254   4.664   6.204   0.324 -0.0767 -0.6366  0.3185
   51MOL   C155 8255   4.538   6.128   0.284  0.3362  0.2361 -0.6051
   51MOL   N156 8256   4.464   6.195   0.187 -0.3829 -0.5746 -0.2706
   51MOL   H157 8257   4.634   6.301   0.364 -0.3359 -0.8862  0.7392
   51MOL   H158 8258   4.713   6.220   0.228 -1.2726  0.5560 -0.1115
   51MOL   H159 8259   4.482   6.104   0.374 -1.2502  1.2981 -1.2791
   51MOL   H160 8260   4.530   6.236   0.123 -0.0304 -1.0695 -0.2241
   51MOL   H161 8261   4.411   6.120   0.145 -1.9930  1.5038 -2.1449
   51MOL   H162 8262   4.580   6.033   0.251  0.9747 -0.4488  2.0264
   52MOL     C1 8263   6.807   5.383   1.144  0.0653 -0.0296 -0.0291
   52MOL     C2 8264   6.878   5.490   1.226  0.3042 -0.4698 -0.0491
   52MOL     N3 8265   7.013   5.487   1.179 -0.5707  0.0283  0.4234
   52MOL     H4 8266   6.807   5.404   1.037  2.3902 -3.0269 -0.6891
   52MOL     H5 8267   6.702   5.385   1.174  0.3573 -0.2021  1.0344
   52MOL     H6 8268   6.880   5.460   1.330 -0.2420 -1.5821 -0.3505
   52MOL     H7 8269   7.082   5.552   1.212 -2.4315  1.7454  1.0422
   52MOL     H8 8270   7.060   5.400   1.202 -1.5772 -1.4326 -2.8181
   52MOL     H9 8271   6.841   5.284   1.174 -4.3279 -0.6451  3.3307
   52MOL    C10 8272   6.813   5.628   1.221  0.4166 -0.2131  0.4846
   52MOL    C11 8273   6.873   5.737   1.318  0.0766  0.4314  0.1378
   52MOL    N12 8274   6.802   5.856   1.270  0.5776 -0.1018 -0.5057
   52MOL    H13 8275   6.834   5.655   1.118 -1.4145  1.2509  0.4818
   52MOL    H14 8276   6.704   5.622   1.219  0.3598  0.3739  1.3534
   52MOL    H15 8277   6.976   5.768   1.303  0.6087 -1.2418  0.2284
   52MOL    H16 8278   6.705   5.828   1.265  0.7914 -0.8892 -0.3364
   52MOL    H17 8279   6.827   5.881   1.176 -0.0202  1.8389 -0.1632
   52MOL    C18 8280   6.839   5.715   1.467 -0.4647 -0.3015 -0.2798
   52MOL    C19 8281   6.931   5.626   1.554 -0.5577  0.0567 -0.2458
   52MOL    N20 8282   7.052   5.691   1.593 -0.8938  0.7998 -0.6187
   52MOL    H21 8283   6.828   5.813   1.515 -1.1238 -1.5970  2.3048
   52MOL    H22 8284   6.740   5.670   1.472  0.2690 -2.1836 -1.9629
   52MOL    H23 8285   6.956   5.537   1.497  2.1262  1.6254 -1.6630
   52MOL    H24 8286   7.092   5.748   1.519  3.7405 -2.1762 -0.5604
   52MOL    H25 8287   7.038   5.763   1.662 -2.7903  1.0407 -1.2241
   52MOL    C26 8288   6.862   5.576   1.680  0.2580 -0.2243  0.4328
   52MOL    C27 8289   6.785   5.442   1.665  0.3457 -0.3404 -0.1894
   52MOL    N28 8290   6.734   5.409   1.795  0.3943 -0.3351 -0.3873
   52MOL    H29 8291   6.941   5.542   1.747  1.8302  0.2770 -1.1093
   52MOL    H30 8292   6.811   5.660   1.726 -1.2410  0.2828 -2.0961
   52MOL    H31 8293   6.848   5.368   1.617 -0.6877  0.4185 -2.8337
   52MOL    H32 8294   6.671   5.482   1.825 -0.2115 -0.4000 -1.4970
   52MOL    H33 8295   6.686   5.321   1.781 -1.2239  0.5252 -0.3294
   52MOL    C34 8296   6.655   5.448   1.572 -0.4880 -0.4070  0.1867
   52MOL    C35 8297   6.574   5.313   1.538 -0.3355  0.1901 -0.3522
   52MOL    N36 8298   6.440   5.341   1.479  0.8856  0.9968 -0.5724
   52MOL    H37 8299   6.588   5.524   1.613 -0.5245  0.3507 -1.2095
   52MOL    H38 8300   6.678   5.480   1.470  0.4664 -1.2343  0.1365
   52MOL    H39 8301   6.566   5.253   1.629  0.6878  0.2467 -0.2211
   52MOL    H40 8302   6.446   5.309   1.383  0.9556  1.4508 -0.7195
   52MOL    H41 8303   6.393   5.267   1.530  1.2288  0.0022 -1.6787
   52MOL    C42 8304   6.632   5.224   1.432  0.0099  0.2553  0.0217
   52MOL    C43 8305   6.575   5.082   1.404 -1.3107  0.0722  0.3547
   52MOL    N44 8306   6.609   5.036   1.268  0.0664 -0.2392  0.4011
   52MOL    H45 8307   6.621   5.284   1.342  1.6084  0.4075 -0.1023
   52MOL    H46 8308   6.739   5.225   1.453  0.3182 -0.1340 -1.4537
   52MOL    H47 8309   6.466   5.073   1.412 -1.2024 -2.3908 -0.5203
   52MOL    H48 8310   6.559   4.950   1.254 -0.3725  0.4813 -2.6794
   52MOL    H49 8311   6.570   5.098   1.198 -0.7779  2.2103  2.9076
   52MOL    C50 8312   6.624   4.980   1.510  0.7579  0.0123  0.4031
   52MOL    C51 8313   6.775   4.972   1.548 -0.1288 -0.4538  0.5693
   52MOL    N52 8314   6.788   4.875   1.659 -0.6143  0.1061 -0.2998
   52MOL    H53 8315   6.567   5.004   1.600 -1.1176 -1.9283 -0.2278
   52MOL    H54 8316   6.595   4.878   1.485  4.4671 -0.8703 -0.5614
   52MOL    H55 8317   6.814   5.065   1.588 -0.0678 -0.3865  0.3525
   52MOL    H56 8318   6.760   4.781   1.636  1.7713 -0.6360 -0.3922
   52MOL    H57 8319   6.728   4.905   1.735 -0.7552  1.9066 -1.0957
   52MOL    C58 8320   6.860   4.934   1.429  0.2521 -0.4770  0.6108
   52MOL    C59 8321   7.005   4.966   1.455  0.5557 -0.1551  0.4646
   52MOL    N60 8322   7.088   4.879   1.374 -0.3906 -0.1443  0.0280
   52MOL    H61 8323   6.837   4.829   1.411 -1.9160  0.0977 -0.1333
   52MOL    H62 8324   6.844   4.989   1.336  1.9922  1.7157  1.5595
   52MOL    H63 8325   7.036   4.941   1.556  0.0407  2.7922  1.4130
   52MOL    H64 8326   7.061   4.783   1.390 -0.9304  0.0319  0.1845
   52MOL    H65 8327   7.184   4.888   1.403 -0.5928 -2.8515  1.6644
   52MOL    C66 8328   7.037   5.119   1.433  0.2222 -0.3301  0.4098
   52MOL    C67 8329   7.169   5.178   1.498  0.0319 -0.0058 -0.3471
   52MOL    N68 8330   7.183   5.322   1.469  0.2186  0.1550 -0.0993
   52MOL    H69 8331   7.051   5.133   1.326  0.3757  1.8033  0.6731
   52MOL    H70 8332   6.947   5.176   1.458 -0.4091 -0.3798 -1.6629
   52MOL    H71 8333   7.251   5.125   1.450 -0.9770 -3.1932  1.3114
   52MOL    H72 8334   0.005   5.346   1.466  0.9960 -2.8210 -0.0402
   52MOL    H73 8335   7.161   5.379   1.549  1.2739  0.0064  0.3084
   52MOL    C74 8336   7.178   5.149   1.652 -0.4478  0.4718  0.2089
   52MOL    C75 8337   7.274   5.028   1.697 -0.1299 -0.0516 -0.2733
   52MOL    N76 8338   0.120   5.024   1.610 -0.0622  0.7079 -0.1657
   52MOL    H77 8339   7.200   5.245   1.698 -1.6214  1.3806 -1.0868
   52MOL    H78 8340   7.078   5.137   1.693  0.8124  1.0445  3.6177
   52MOL    H79 8341   7.213   4.937   1.692 -0.5892  0.0961  2.0235
   52MOL    H80 8342   0.187   4.980   1.670 -3.0803 -1.0340  2.1076
   52MOL    H81 8343   0.153   5.119   1.602  0.9691  0.3267 -0.4789
   52MOL    C82 8344   0.046   5.031   1.843  0.2777  0.6549  0.3180
   52MOL    C83 8345   7.222   5.092   1.941  0.7563 -0.5284  0.4530
   52MOL    N84 8346   7.093   5.008   1.938 -0.5120 -0.0633 -0.5065
   52MOL    H85 8347   0.057   4.932   1.887  0.8812  1.1345  1.2666
   52MOL    H86 8348   0.144   5.077   1.853  0.5344  0.0873  0.4560
   52MOL    H87 8349   7.202   5.191   1.900 -1.7843 -1.2455 -0.1314
   52MOL    H88 8350   7.017   5.073   1.950  0.1027  0.3466  1.5684
   52MOL    H89 8351   7.088   4.961   1.850 -2.3065  1.3497 -1.1971
   52MOL    C90 8352   7.259   5.096   2.094  0.4548 -0.4288 -0.4589
   52MOL    C91 8353   7.174   5.206   2.164 -0.7085  0.0745 -0.0081
   52MOL    N92 8354   7.140   5.164   2.301 -0.6082 -0.3826  0.1536
   52MOL    H93 8355   7.225   5.003   2.139 -0.7231  0.4529  0.5246
   52MOL    H94 8356   0.088   5.104   2.121  0.0530 -0.1250  1.0651
   52MOL    H95 8357   7.075   5.215   2.120 -0.7152 -0.3236 -0.0786
   52MOL    H96 8358   7.098   5.072   2.299  0.4924 -0.8941 -0.0869
   52MOL    H97 8359   7.224   5.157   2.355  0.5016  1.4241 -1.2631
   52MOL    C98 8360   7.244   5.344   2.180 -0.2494  0.0082  0.6563
   52MOL    C99 8361   7.271   5.416   2.044 -0.5259 -0.3870 -0.1614
   52MOL   N100 8362   7.151   5.461   1.976  0.0748 -0.2403  0.8718
   52MOL   H101 8363   7.192   5.415   2.245  1.3453  0.6012  1.3062
   52MOL   H102 8364   0.060   5.335   2.239 -0.2021 -0.7346  0.4701
   52MOL   H103 8365   0.050   5.347   1.980  1.4997  0.5536  0.4935
   52MOL   H104 8366   7.088   5.508   2.039 -0.2938 -0.2143  0.4779
   52MOL   H105 8367   7.101   5.378   1.948 -1.1096  0.8628 -0.3064
   52MOL   C106 8368   0.080   5.546   2.065  0.2208  0.4378  0.0437
   52MOL   C107 8369   0.216   5.524   2.131 -0.2362 -0.1745 -0.1788
   52MOL   N108 8370   0.284   5.412   2.066  0.2692 -0.2545 -0.3246
   52MOL   H109 8371   0.086   5.595   1.968 -0.3954  0.3001 -0.0662
   52MOL   H110 8372   0.022   5.624   2.114  1.4159 -0.6676  3.3603
   52MOL   H111 8373   0.194   5.506   2.237  1.9780  0.4862  0.4252
   52MOL   H112 8374   0.212   5.346   2.040  0.5651  0.2586 -2.5947
   52MOL   H113 8375   0.353   5.367   2.124  0.1170 -1.0909 -0.7871
   52MOL   C114 8376   0.310   5.640   2.111 -0.0679 -0.3954  0.4030
   52MOL   C115 8377   0.255   5.766   2.184 -0.2638 -0.6821 -0.1297
   52MOL   N116 8378   0.332   5.759   2.312 -0.0387  0.2979  0.6821
   52MOL   H117 8379   0.416   5.615   2.114  0.2993  1.1601  0.9669
   52MOL   H118 8380   0.299   5.660   2.004 -0.7318 -0.7906  0.3938
   52MOL   H119 8381   0.147   5.761   2.198 -0.5161 -1.1106 -2.0886
   52MOL   H120 8382   0.295   5.825   2.378  1.0578  1.8487 -0.2328
   52MOL   H121 8383   0.335   5.668   2.356  2.1495 -0.1862 -0.3989
   52MOL   C122 8384   0.290   5.900   2.114 -0.1961 -0.3178 -0.5483
   52MOL   C123 8385   0.177   5.946   2.017 -0.4122  0.4620  0.0174
   52MOL   N124 8386   0.072   6.007   2.097  0.4611  0.0783 -0.2673
   52MOL   H125 8387   0.314   5.981   2.183  1.1423 -2.5045  1.6631
   52MOL   H126 8388   0.382   5.879   2.059 -0.2967 -0.5153 -0.6415
   52MOL   H127 8389   0.129   5.859   1.973 -1.6384  0.0355  2.1232
   52MOL   H128 8390   0.070   5.977   2.194  0.7622 -1.2466 -0.6627
   52MOL   H129 8391   7.269   5.964   2.052 -0.0863  0.9450 -0.1535
   52MOL   C130 8392   0.220   6.065   1.917 -0.4221  0.3105 -0.0743
   52MOL   C131 8393   0.242   6.012   1.773 -0.3087 -0.0178  0.3427
   52MOL   N132 8394   0.216   6.113   1.672  0.2284  0.1201 -0.5958
   52MOL   H133 8395   0.145   6.144   1.915  0.4531  1.1300 -1.2025
   52MOL   H134 8396   0.307   6.118   1.956 -0.6427  1.4689 -1.1546
   52MOL   H135 8397   0.178   5.925   1.756  2.2169 -2.0884  1.0042
   52MOL   H136 8398   0.305   6.158   1.654 -0.9384  3.7046  2.1055
   52MOL   H137 8399   0.201   6.062   1.586 -1.8514  2.9156 -1.9895
   52MOL   C138 8400   0.385   5.984   1.754 -0.4514 -0.5722 -0.2346
   52MOL   C139 8401   0.426   5.914   1.618  0.5106  0.1849  0.9173
   52MOL   N140 8402   0.570   5.907   1.616 -0.2001 -0.2299  0.2847
   52MOL   H141 8403   0.447   6.074   1.760 -0.5891 -0.6188  2.3202
   52MOL   H142 8404   0.418   5.921   1.836  2.2897  1.6606  0.4567
   52MOL   H143 8405   0.394   5.973   1.532  1.6368 -0.3401  0.1198
   52MOL   H144 8406   0.597   5.835   1.681  0.4887  1.3339  1.7512
   52MOL   H145 8407   0.589   5.880   1.520  0.5490 -1.2869  0.7171
   52MOL   C146 8408   0.355   5.777   1.606 -0.3617  0.2130 -0.4373
   52MOL   C147 8409   0.227   5.772   1.522  0.1326 -0.1540 -0.0442
   52MOL   N148 8410   0.268   5.782   1.387 -0.7358  0.1507  0.4054
   52MOL   H149 8411   0.417   5.696   1.568 -1.9763 -1.8695  1.2142
   52MOL   H150 8412   0.338   5.749   1.711  2.1971  2.5016  0.6320
   52MOL   H151 8413   0.155   5.851   1.541  1.2962  0.7360  0.7752
   52MOL   H152 8414   0.330   5.708   1.359 -0.5188  0.3903  0.2455
   52MOL   H153 8415   0.319   5.865   1.360  3.1621 -2.2037  0.0940
   52MOL   C154 8416   0.155   5.641   1.541  0.5063 -0.0807  0.3470
   52MOL   C155 8417   0.074   5.639   1.670 -0.7091  0.4945 -0.0828
   52MOL   N156 8418   7.265   5.526   1.690  0.4149  0.0934  0.4450
   52MOL   H157 8419   0.091   5.619   1.456 -0.1620 -1.3468  1.1766
   52MOL   H158 8420   0.221   5.555   1.550 -0.4981 -1.2053 -2.5276
   52MOL   H159 8421   0.020   5.730   1.695 -1.6975 -0.5680  1.8622
   52MOL   H160 8422   7.174   5.563   1.668  1.8887  2.4985 -1.8222
   52MOL   H161 8423   7.258   5.512   1.790 -0.5438 -0.3949  0.3221
   52MOL   H162 8424   0.147   5.631   1.750 -1.3279  0.2056  0.4674
   53MOL     C1 8425   0.226   4.833   5.343  0.1681 -0.7606 -0.9230
   53MOL     C2 8426   0.161   4.911   5.226 -0.0411  0.6925  0.4987
   53MOL     N3 8427   0.017   4.874   5.222  0.4302 -0.1807 -0.7799
   53MOL     H4 8428   0.330   4.865   5.342  0.1300 -0.3051  2.7094
   53MOL     H5 8429   0.230   4.724   5.341  0.7567 -0.7577 -0.3681
   53MOL     H6 8430   0.201   4.868   5.134 -0.4509  0.6000  0.3621
   53MOL     H7 8431   7.239   4.910   5.144 -0.5703  0.6439  0.2745
   53MOL     H8 8432   7.249   4.917   5.302  2.0980 -0.7838  0.4949
   53MOL     H9 8433   0.206   4.876   5.441  0.8560  0.1872 -1.1916
   53MOL    C10 8434   0.187   5.065   5.229  0.5070 -0.0257  0.3126
   53MOL    C11 8435   0.248   5.138   5.111  0.0293  0.3200 -0.4920
   53MOL    N12 8436   0.230   5.281   5.132 -0.2152  0.4239 -0.1045
   53MOL    H13 8437   0.094   5.117   5.250  0.8246  0.5387  0.3280
   53MOL    H14 8438   0.254   5.086   5.312  1.6485 -0.3589 -0.4989
   53MOL    H15 8439   0.198   5.120   5.016 -4.1642  0.7205  1.5222
   53MOL    H16 8440   0.262   5.316   5.221 -2.0070 -0.3372  0.8679
   53MOL    H17 8441   0.271   5.333   5.055  1.1099 -0.5249 -0.0597
   53MOL    C18 8442   0.399   5.122   5.105 -0.7153  0.5340  0.1235
   53MOL    C19 8443   0.449   4.989   5.032  0.5788 -0.9182 -1.0112
   53MOL    N20 8444   0.422   4.983   4.887 -0.1866 -0.2248  0.0049
   53MOL    H21 8445   0.454   5.197   5.049  0.4687  0.1502  0.7625
   53MOL    H22 8446   0.435   5.122   5.208 -3.6586 -0.5263  1.2173
   53MOL    H23 8447   0.395   4.916   5.092  1.6414  0.4069  1.6682
   53MOL    H24 8448   0.327   5.018   4.889 -0.1065 -0.0344  0.6732
   53MOL    H25 8449   0.413   4.883   4.878  1.4871 -0.3219 -0.7612
   53MOL    C26 8450   0.607   4.975   5.048  0.1837  0.4060  0.6161
   53MOL    C27 8451   0.665   4.927   5.189 -0.7749  0.7440 -0.2616
   53MOL    N28 8452   0.666   4.780   5.188 -0.5832 -0.2484 -0.0335
   53MOL    H29 8453   0.662   4.910   4.979 -0.2950  0.8487 -0.1886
   53MOL    H30 8454   0.642   5.077   5.034 -1.3317  0.6720 -1.4427
   53MOL    H31 8455   0.596   4.963   5.265 -1.0914 -1.1533  0.3575
   53MOL    H32 8456   0.572   4.745   5.197 -0.8834  0.6895  0.6539
   53MOL    H33 8457   0.711   4.753   5.275  1.8307  1.8748 -0.5628
   53MOL    C34 8458   0.803   4.987   5.206  0.1285  0.1882 -0.2023
   53MOL    C35 8459   0.816   5.136   5.250  0.0672  0.0189 -0.1317
   53MOL    N36 8460   0.734   5.159   5.360 -0.0105 -0.0495 -0.3023
   53MOL    H37 8461   0.852   4.924   5.280 -1.6941  0.7694  1.5570
   53MOL    H38 8462   0.854   4.976   5.111 -0.7185  0.3635 -0.6895
   53MOL    H39 8463   0.783   5.214   5.182 -1.1698  0.3236  0.7945
   53MOL    H40 8464   0.763   5.094   5.431 -0.2957  2.5301  2.2345
   53MOL    H41 8465   0.640   5.126   5.342 -0.6386 -0.5087  3.3817
   53MOL    C42 8466   0.957   5.171   5.297  0.3613 -0.3700  0.5381
   53MOL    C43 8467   1.075   5.170   5.193  0.2146 -0.0363  0.0853
   53MOL    N44 8468   1.074   5.295   5.114  0.3935  0.0639  0.0086
   53MOL    H45 8469   0.953   5.268   5.345 -4.0780 -1.0792  1.8117
   53MOL    H46 8470   0.975   5.098   5.376 -2.0894  0.3906  1.8371
   53MOL    H47 8471   1.070   5.088   5.122 -0.1506  1.4133 -1.5955
   53MOL    H48 8472   1.010   5.304   5.037 -2.0704 -0.1162  1.9932
   53MOL    H49 8473   1.051   5.374   5.172  2.9838  1.0092 -0.1663
   53MOL    C50 8474   1.207   5.171   5.272  0.3478 -1.0008 -0.2921
   53MOL    C51 8475   1.328   5.160   5.178 -0.1691 -0.2039 -0.8276
   53MOL    N52 8476   1.451   5.191   5.254 -0.0865 -0.1570 -0.8661
   53MOL    H53 8477   1.210   5.255   5.342  1.7701 -1.0448 -0.2789
   53MOL    H54 8478   1.202   5.089   5.344  0.7720  1.5612  2.7664
   53MOL    H55 8479   1.316   5.240   5.105 -2.4910  0.3580  0.1273
   53MOL    H56 8480   1.420   5.175   5.349 -0.1745 -1.5636 -1.1290
   53MOL    H57 8481   1.470   5.288   5.232 -1.6974  0.0823 -1.2973
   53MOL    C58 8482   1.352   5.022   5.115 -0.8844 -0.2963  0.1458
   53MOL    C59 8483   1.453   5.020   4.998  0.0167  0.6567 -0.7658
   53MOL    N60 8484   1.471   4.881   4.956  0.6417 -0.6751 -0.2770
   53MOL    H61 8485   1.377   4.947   5.190  2.8986  1.0803  0.3404
   53MOL    H62 8486   1.256   4.977   5.090 -1.3180  1.3405 -1.2456
   53MOL    H63 8487   1.554   5.051   5.024  0.1024  0.1958 -0.5441
   53MOL    H64 8488   1.565   4.846   4.966  0.3539 -1.8830 -1.6702
   53MOL    H65 8489   1.444   4.853   4.863 -2.2314 -0.6928  0.5039
   53MOL    C66 8490   1.406   5.104   4.873  0.1553  0.3572  0.8864
   53MOL    C67 8491   1.490   5.083   4.741  0.0525 -0.3590  0.1929
   53MOL    N68 8492   1.427   5.137   4.620  0.4623 -0.4304  0.2344
   53MOL    H69 8493   1.303   5.072   4.854  0.6698  0.0796 -1.5997
   53MOL    H70 8494   1.390   5.209   4.897 -3.0578  0.2716 -0.5359
   53MOL    H71 8495   1.500   4.976   4.724 -1.8664 -0.3020 -1.4965
   53MOL    H72 8496   1.343   5.083   4.606  0.0043  0.4047 -0.3531
   53MOL    H73 8497   1.476   5.119   4.533  1.2345  1.7304  0.1801
   53MOL    C74 8498   1.630   5.148   4.754 -0.1110  0.9378 -0.3699
   53MOL    C75 8499   1.721   5.101   4.642 -0.3613  0.1426  0.2367
   53MOL    N76 8500   1.838   5.188   4.650  0.3482  0.0326  0.1447
   53MOL    H77 8501   1.611   5.255   4.765 -1.8193  0.4763  1.4004
   53MOL    H78 8502   1.671   5.126   4.852 -0.9277  0.2660 -0.1747
   53MOL    H79 8503   1.665   5.110   4.549  0.0993 -1.4706 -0.2086
   53MOL    H80 8504   1.823   5.283   4.681 -2.3491 -0.3142  0.0447
   53MOL    H81 8505   1.906   5.147   4.712  2.1479  2.1529 -0.3794
   53MOL    C82 8506   1.765   4.951   4.643 -0.2340 -0.8453 -0.1866
   53MOL    C83 8507   1.869   4.919   4.534  0.4660  0.2720 -0.6018
   53MOL    N84 8508   1.911   4.784   4.578  0.0896 -0.0412  0.8866
   53MOL    H85 8509   1.802   4.922   4.741 -1.9486 -2.6844 -0.0510
   53MOL    H86 8510   1.671   4.896   4.631 -0.2555 -0.8068 -0.1951
   53MOL    H87 8511   1.958   4.982   4.540  0.0310  1.1188 -2.8269
   53MOL    H88 8512   1.990   4.762   4.518 -1.1394 -0.6610 -0.5274
   53MOL    H89 8513   1.844   4.719   4.541  1.0282 -1.3643  1.4991
   53MOL    C90 8514   1.808   4.910   4.401 -0.2235  0.1298 -0.8400
   53MOL    C91 8515   1.916   4.888   4.293 -0.2335 -0.2373 -0.2127
   53MOL    N92 8516   1.846   4.834   4.170  0.0226 -0.0138 -0.3509
   53MOL    H93 8517   1.738   4.827   4.390 -0.3801  0.1443  0.0329
   53MOL    H94 8518   1.748   4.998   4.377  0.7922  0.9509 -0.3945
   53MOL    H95 8519   1.988   4.808   4.312 -0.5789 -0.8309 -1.3176
   53MOL    H96 8520   1.922   4.829   4.104 -0.2482 -1.0519 -0.6072
   53MOL    H97 8521   1.829   4.739   4.202  1.6589 -0.0582  0.4137
   53MOL    C98 8522   2.003   5.014   4.261 -0.5753  0.3528 -0.4081
   53MOL    C99 8523   2.135   5.035   4.337  0.7945  0.2722 -0.6879
   53MOL   N100 8524   2.218   4.932   4.295  0.2034 -0.0401  0.0144
   53MOL   H101 8525   2.021   5.027   4.155  2.6098 -0.8117 -0.0613
   53MOL   H102 8526   1.943   5.099   4.293  0.6602  1.8700 -2.0728
   53MOL   H103 8527   2.118   5.019   4.444  0.1872 -1.6199 -1.0490
   53MOL   H104 8528   2.305   4.975   4.266  0.1330  0.1370  0.0665
   53MOL   H105 8529   2.247   4.891   4.382 -0.2737  0.8126  0.5805
   53MOL   C106 8530   2.197   5.176   4.330  0.4284 -0.6025  0.1977
   53MOL   C107 8531   2.165   5.263   4.446  0.8797 -0.5156  0.5348
   53MOL   N108 8532   2.274   5.258   4.538  0.1639 -0.4999 -0.7465
   53MOL   H109 8533   2.305   5.165   4.321  0.2076 -0.9562 -2.0419
   53MOL   H110 8534   2.162   5.219   4.237  1.8531 -0.7974 -0.4413
   53MOL   H111 8535   2.077   5.233   4.502 -0.2780  0.0085 -0.9841
   53MOL   H112 8536   2.304   5.166   4.567  1.7918 -0.1287 -1.1949
   53MOL   H113 8537   2.245   5.306   4.622 -0.7422 -1.1902 -0.6636
   53MOL   C114 8538   2.137   5.410   4.396  0.2473 -0.1207  0.5557
   53MOL   C115 8539   1.992   5.434   4.337  0.0582  0.2184 -0.0164
   53MOL   N116 8540   1.893   5.427   4.444  0.2927 -1.1192  0.6880
   53MOL   H117 8541   2.157   5.486   4.471 -0.8244  0.6131  0.1125
   53MOL   H118 8542   2.213   5.433   4.321 -0.3473 -2.3484 -0.7790
   53MOL   H119 8543   1.971   5.355   4.265  1.7403  0.7393 -1.1208
   53MOL   H120 8544   1.899   5.342   4.498 -0.6638 -1.2826  0.5419
   53MOL   H121 8545   1.800   5.416   4.406  0.8533  1.0592 -1.4871
   53MOL   C122 8546   1.990   5.564   4.258 -0.5036 -0.1879  1.4094
   53MOL   C123 8547   2.067   5.567   4.122 -0.0853  0.3377 -0.2962
   53MOL   N124 8548   1.997   5.487   4.022 -0.0565  0.0401  0.0430
   53MOL   H125 8549   1.885   5.587   4.238  0.4291  3.8597  0.8127
   53MOL   H126 8550   2.028   5.640   4.325  2.8794  0.1457 -0.7909
   53MOL   H127 8551   2.166   5.522   4.131  0.0464  0.3815 -1.4717
   53MOL   H128 8552   1.955   5.402   4.056 -1.3269  0.6374 -0.0217
   53MOL   H129 8553   1.928   5.550   3.983  0.0246  1.0099  1.4232
   53MOL   C130 8554   2.100   5.708   4.075 -0.4633  0.1419 -0.5894
   53MOL   C131 8555   2.204   5.791   4.155  0.5360  0.3438  0.0817
   53MOL   N132 8556   2.331   5.746   4.107  0.6076 -0.1469 -0.0909
   53MOL   H133 8557   2.129   5.705   3.970 -1.3467 -0.8937 -0.8122
   53MOL   H134 8558   2.008   5.766   4.068  0.0387  1.0993  0.7413
   53MOL   H135 8559   2.189   5.781   4.263  0.9546 -1.5732 -0.0220
   53MOL   H136 8560   2.394   5.765   4.183 -1.0215 -1.1834  1.5610
   53MOL   H137 8561   2.317   5.646   4.114  1.4817 -0.1128  2.5045
   53MOL   C138 8562   2.198   5.946   4.127 -0.4787  0.2296  0.1406
   53MOL   C139 8563   2.117   6.030   4.232 -0.4395 -0.3349  0.0219
   53MOL   N140 8564   2.142   6.170   4.196  0.2265 -0.1313  0.0583
   53MOL   H141 8565   2.300   5.983   4.121 -0.4090  0.0758  0.3685
   53MOL   H142 8566   2.155   5.962   4.028  1.1351 -1.2526 -0.8375
   53MOL   H143 8567   2.141   6.010   4.336  0.1406  0.9001  0.1380
   53MOL   H144 8568   2.242   6.174   4.186  0.2236  0.0991  0.1251
   53MOL   H145 8569   2.116   6.231   4.272 -2.9204 -0.7515 -0.4386
   53MOL   C146 8570   1.965   6.006   4.226 -0.0987 -0.5012 -0.4120
   53MOL   C147 8571   1.874   6.116   4.284 -0.3720 -0.1928 -0.7582
   53MOL   N148 8572   1.736   6.104   4.237  0.1471 -0.3066  0.3022
   53MOL   H149 8573   1.941   5.995   4.120  1.6464  0.3447 -0.9271
   53MOL   H150 8574   1.942   5.912   4.276 -0.3647 -0.1780  0.0726
   53MOL   H151 8575   1.904   6.214   4.246  0.0325  0.6412  1.6516
   53MOL   H152 8576   1.717   6.005   4.227 -0.2873 -0.1932  0.0243
   53MOL   H153 8577   1.681   6.136   4.316 -3.6066 -2.0431 -1.4752
   53MOL   C154 8578   1.868   6.123   4.437  0.1963 -0.0509  0.2291
   53MOL   C155 8579   1.914   6.245   4.501 -0.3675 -0.1075 -0.0949
   53MOL   N156 8580   1.900   6.215   4.643  0.4432 -0.5846  0.3631
   53MOL   H157 8581   1.766   6.098   4.469  1.3149 -0.6084  3.6202
   53MOL   H158 8582   1.932   6.046   4.481  0.1869  0.8263  1.8108
   53MOL   H159 8583   1.860   6.335   4.474 -1.5814 -0.6063  0.6365
   53MOL   H160 8584   1.935   6.291   4.701  1.5381 -0.2016 -0.7811
   53MOL   H161 8585   1.802   6.208   4.664  0.2739 -1.8006 -0.7691
   53MOL   H162 8586   2.019   6.251   4.471 -0.6437  0.0347 -1.0314
   54MOL     C1 8587   1.522   3.424   6.903 -0.1773  0.9448 -0.3007
   54MOL     C2 8588   1.639   3.352   6.969  0.0123  0.3670 -0.4964
   54MOL     N3 8589   1.594   3.273   7.084  0.0191 -0.2186 -0.1961
   54MOL     H4 8590   1.452   3.349   6.868 -2.4578  1.5128  2.9395
   54MOL     H5 8591   1.561   3.481   6.818  3.0310 -3.1789 -1.7546
   54MOL     H6 8592   1.713   3.426   7.001 -0.8801  0.6499  0.9653
   54MOL     H7 8593   1.678   3.243   7.132  1.0993  2.2601 -0.5019
   54MOL     H8 8594   1.553   3.336   7.152  1.0669 -2.8049  2.9582
   54MOL     H9 8595   1.478   3.497   6.971  1.1195  1.4579  0.0225
   54MOL    C10 8596   1.717   3.253   6.867  0.2763 -1.1365 -0.4739
   54MOL    C11 8597   1.805   3.330   6.765  0.4198 -0.9848  0.2623
   54MOL    N12 8598   1.932   3.253   6.754  0.1916 -0.5073  0.2792
   54MOL    H13 8599   1.784   3.187   6.923 -0.1622 -0.6440  0.6557
   54MOL    H14 8600   1.645   3.194   6.811 -1.9927  2.1876 -1.2063
   54MOL    H15 8601   1.813   3.429   6.808 -2.1301 -1.0258  0.9397
   54MOL    H16 8602   1.998   3.329   6.748  0.6429 -1.0607 -2.4841
   54MOL    H17 8603   1.922   3.204   6.667  0.7970  2.8293 -1.7454
   54MOL    C18 8604   1.732   3.342   6.629 -0.2148 -0.5312 -0.3764
   54MOL    C19 8605   1.799   3.437   6.528 -0.3445 -0.1889 -0.1213
   54MOL    N20 8606   1.777   3.380   6.400 -0.5755 -0.1770 -0.6981
   54MOL    H21 8607   1.716   3.241   6.591 -0.4655 -0.1891 -1.2041
   54MOL    H22 8608   1.628   3.373   6.638 -0.6342 -0.7864 -3.5013
   54MOL    H23 8609   1.907   3.444   6.537 -0.5016 -1.4167  3.1841
   54MOL    H24 8610   1.828   3.439   6.337  2.7035 -1.7109  0.4480
   54MOL    H25 8611   1.833   3.296   6.394  0.6758  0.7265 -1.9610
   54MOL    C26 8612   1.727   3.575   6.515 -0.2373 -0.9793  0.5630
   54MOL    C27 8613   1.789   3.669   6.625  0.8271  1.2120  0.5138
   54MOL    N28 8614   1.896   3.755   6.567  0.4857  0.9390  0.9349
   54MOL    H29 8615   1.742   3.606   6.411  0.4619 -0.7952  0.7127
   54MOL    H30 8616   1.620   3.554   6.516 -0.3437 -0.4988 -0.2279
   54MOL    H31 8617   1.827   3.606   6.705 -1.2852  0.8523  1.2655
   54MOL    H32 8618   1.854   3.845   6.548 -2.3481 -0.9135 -2.0526
   54MOL    H33 8619   1.897   3.713   6.476 -3.5370 -0.3335  1.3936
   54MOL    C34 8620   1.679   3.756   6.693 -0.7288  0.6648  0.0660
   54MOL    C35 8621   1.725   3.833   6.822 -0.1857 -0.5139  0.3439
   54MOL    N36 8622   1.612   3.911   6.874 -0.8212  0.7011  0.1512
   54MOL    H37 8623   1.629   3.820   6.621 -0.3194 -0.6015 -1.3637
   54MOL    H38 8624   1.600   3.683   6.713 -0.1105 -0.0612 -0.1390
   54MOL    H39 8625   1.807   3.901   6.795  1.8622 -2.2581  1.9586
   54MOL    H40 8626   1.620   3.889   6.972 -2.4295  3.0848  0.8740
   54MOL    H41 8627   1.528   3.865   6.843 -0.1611 -1.8524  2.0023
   54MOL    C42 8628   1.770   3.743   6.930  0.0702  0.9981  0.0174
   54MOL    C43 8629   1.844   3.812   7.041 -0.4788 -0.7982 -0.5834
   54MOL    N44 8630   1.745   3.883   7.121 -0.5471 -0.1623 -0.0730
   54MOL    H45 8631   1.690   3.687   6.979  0.7077  0.5016  0.4921
   54MOL    H46 8632   1.832   3.667   6.883 -0.2989  0.7783 -0.1204
   54MOL    H47 8633   1.911   3.886   6.998 -1.5729  0.0588 -0.8233
   54MOL    H48 8634   1.791   3.951   7.180  0.8161 -0.8653 -0.2932
   54MOL    H49 8635   1.697   3.813   7.176 -0.0101  0.8791  1.7611
   54MOL    C50 8636   1.924   3.718   7.127 -0.5123  0.5360 -0.4920
   54MOL    C51 8637   2.039   3.637   7.060 -0.7539  0.0837  0.1949
   54MOL    N52 8638   2.140   3.721   7.003 -0.9205 -0.5782  0.1153
   54MOL    H53 8639   1.966   3.780   7.207 -1.2475  0.9835 -0.4513
   54MOL    H54 8640   1.853   3.654   7.178  0.6873  0.3338  0.9614
   54MOL    H55 8641   1.986   3.588   6.979  0.3828  0.1283 -0.5877
   54MOL    H56 8642   2.116   3.763   6.914  1.6446 -0.9163 -0.7677
   54MOL    H57 8643   2.147   3.793   7.074  1.4903 -1.4699  0.8100
   54MOL    C58 8644   2.107   3.527   7.151 -0.1274 -0.0619  0.1704
   54MOL    C59 8645   2.042   3.387   7.127 -0.4917 -0.7029  1.0829
   54MOL    N60 8646   2.108   3.317   7.018 -0.3492  0.6750  0.2173
   54MOL    H61 8647   2.212   3.518   7.123 -0.2496 -1.5294  0.1138
   54MOL    H62 8648   2.100   3.557   7.256 -1.5837  2.1521 -0.5415
   54MOL    H63 8649   1.941   3.396   7.087 -0.5006 -1.1993  0.9863
   54MOL    H64 8650   2.104   3.377   6.937  0.1591  0.8496  0.3227
   54MOL    H65 8651   2.058   3.234   6.990  0.3265  0.3105  0.0597
   54MOL    C66 8652   2.048   3.286   7.244 -0.1072 -0.3150  0.1341
   54MOL    C67 8653   1.952   3.325   0.091  0.7605 -0.4537 -0.1720
   54MOL    N68 8654   1.813   3.282   0.055 -0.0529 -0.4175 -0.1007
   54MOL    H69 8655   2.036   3.179   7.223 -0.0703  0.0564 -1.8953
   54MOL    H70 8656   2.146   3.294   0.015 -0.1957 -0.9216  0.4406
   54MOL    H71 8657   1.938   3.432   0.105 -1.5242 -0.6057 -1.0258
   54MOL    H72 8658   1.758   3.275   0.139 -0.3607  1.5965 -0.1107
   54MOL    H73 8659   1.812   3.181   0.051 -0.6259 -0.3632 -1.5895
   54MOL    C74 8660   1.979   3.253   0.223  1.1313  0.1302 -0.5250
   54MOL    C75 8661   2.110   3.309   0.281  0.4650  0.0817 -0.2948
   54MOL    N76 8662   2.086   3.444   0.332  0.4872 -0.1794 -0.2475
   54MOL    H77 8663   1.891   3.272   0.283 -0.3360 -0.9390 -2.2750
   54MOL    H78 8664   1.966   3.145   0.218  1.1480  0.1397 -0.7741
   54MOL    H79 8665   2.181   3.304   0.199 -0.8937 -0.4736 -1.4738
   54MOL    H80 8666   2.162   3.505   0.307 -0.4792  1.2759  0.3277
   54MOL    H81 8667   2.007   3.480   0.281 -0.0824  3.0600  2.7398
   54MOL    C82 8668   2.160   3.235   0.408 -1.0132 -0.0080  0.1317
   54MOL    C83 8669   2.218   3.090   0.374  0.2370 -0.4680  0.0723
   54MOL    N84 8670   2.352   3.100   0.315  0.0049  0.6851  0.1038
   54MOL    H85 8671   2.238   3.293   0.457 -0.8052  2.2399 -2.7221
   54MOL    H86 8672   2.086   3.231   0.488  2.2569 -0.2838  3.2843
   54MOL    H87 8673   2.167   3.026   0.301  3.0991  0.2056 -2.6005
   54MOL    H88 8674   2.350   3.157   0.231 -2.9718 -0.5481 -0.7199
   54MOL    H89 8675   2.392   3.011   0.289 -0.5394  0.3282  0.4975
   54MOL    C90 8676   2.229   3.005   0.507 -0.7031 -0.7143  0.2342
   54MOL    C91 8677   2.308   3.061   0.632  0.1174  0.3762  0.5836
   54MOL    N92 8678   2.295   2.956   0.731  0.1922 -0.0547  0.0459
   54MOL    H93 8679   2.127   2.982   0.536 -1.6421 -0.4355 -2.6742
   54MOL    H94 8680   2.274   2.909   0.482  2.8501  1.1355 -0.7525
   54MOL    H95 8681   2.261   3.154   0.661 -0.6898  0.8208 -2.0479
   54MOL    H96 8682   2.382   2.906   0.716  0.3970  0.2960  0.0720
   54MOL    H97 8683   2.241   2.881   0.690  0.2636 -0.3447  0.4836
   54MOL    C98 8684   2.461   3.080   0.609  0.0944 -0.0473  0.0995
   54MOL    C99 8685   2.548   3.108   0.739 -0.4253  0.3635 -0.0579
   54MOL   N100 8686   2.683   3.100   0.698  0.2555  0.9657 -0.0652
   54MOL   H101 8687   2.498   3.000   0.546 -0.4484  0.2497 -0.5986
   54MOL   H102 8688   2.476   3.164   0.541 -1.6084 -0.5286 -0.8927
   54MOL   H103 8689   2.523   3.027   0.808 -3.0542  0.9803 -0.2229
   54MOL   H104 8690   2.688   3.182   0.639  1.8929  0.1091 -1.1712
   54MOL   H105 8691   2.738   3.111   0.782  0.7622  1.3084 -0.4357
   54MOL   C106 8692   2.515   3.242   0.804  0.2751  0.2105 -0.0670
   54MOL   C107 8693   2.547   3.244   0.958  0.3760  0.0002  0.6514
   54MOL   N108 8694   2.530   3.379   1.011 -0.2596  0.2095 -0.0340
   54MOL   H109 8695   2.571   3.325   0.761  0.9870  0.8603  2.0927
   54MOL   H110 8696   2.409   3.257   0.781  0.1920 -1.4297 -0.8342
   54MOL   H111 8697   2.652   3.216   0.963 -0.1715 -2.1498  0.6153
   54MOL   H112 8698   2.578   3.445   0.952 -1.3161 -1.0365 -2.3526
   54MOL   H113 8699   2.433   3.407   1.008 -0.1429  0.7226  0.7757
   54MOL   C114 8700   2.474   3.144   1.058  0.7408 -0.4158 -0.2653
   54MOL   C115 8701   2.545   3.133   1.194 -0.3491 -0.1994 -0.2052
   54MOL   N116 8702   2.449   3.111   1.303 -0.0050 -0.6415  0.2012
   54MOL   H117 8703   2.369   3.170   1.070  1.0697  0.4303  0.8508
   54MOL   H118 8704   2.490   3.040   1.031 -1.3790 -0.7116 -0.5019
   54MOL   H119 8705   2.584   3.227   1.231 -3.9231  1.0955  0.4575
   54MOL   H120 8706   2.395   3.026   1.300  0.1501 -0.7140 -0.4705
   54MOL   H121 8707   2.378   3.182   1.291 -0.0992 -0.6227  0.8219
   54MOL   C122 8708   2.652   3.019   1.214 -0.4091 -0.0411  0.1850
   54MOL   C123 8709   2.758   3.005   1.103  0.7324  0.0698  0.4146
   54MOL   N124 8710   2.843   3.130   1.113  0.5066 -0.4501 -0.3373
   54MOL   H125 8711   2.702   3.023   1.311 -1.4232 -0.2666  0.7299
   54MOL   H126 8712   2.590   2.930   1.209 -1.5918  0.4827  3.8446
   54MOL   H127 8713   2.710   3.002   1.005 -0.0237  0.2362  0.7712
   54MOL   H128 8714   2.925   3.136   1.055  1.1960 -0.7330  0.6095
   54MOL   H129 8715   2.786   3.212   1.098  0.5594 -0.3205  0.1675
   54MOL   C130 8716   2.854   2.889   1.126  0.4147 -0.2330  0.0724
   54MOL   C131 8717   2.836   2.770   1.031  0.2717  0.2934 -0.8049
   54MOL   N132 8718   2.948   2.682   1.061 -0.1460  0.6609  0.0626
   54MOL   H133 8719   2.961   2.907   1.116  1.1398 -2.4577  3.2661
   54MOL   H134 8720   2.855   2.859   1.231 -1.9958 -2.8305 -0.5921
   54MOL   H135 8721   2.843   2.805   0.928 -1.2377 -1.8686 -1.6937
   54MOL   H136 8722   3.036   2.731   1.058  0.0518  0.2795 -0.3125
   54MOL   H137 8723   2.965   2.623   0.981 -1.0602  0.4242  0.0364
   54MOL   C138 8724   2.704   2.687   1.024 -0.3459  0.8275  0.6486
   54MOL   C139 8725   2.691   2.602   0.897  0.4070  0.2248  0.3062
   54MOL   N140 8726   2.726   2.462   0.932 -0.7578 -0.0755 -0.3027
   54MOL   H141 8727   2.687   2.626   1.113 -0.6117  0.7469  0.5415
   54MOL   H142 8728   2.622   2.758   1.031 -2.6970 -1.6332 -1.0735
   54MOL   H143 8729   2.761   2.636   0.821  1.1890  2.1796  1.8506
   54MOL   H144 8730   2.819   2.479   0.966  0.1600  0.2030 -2.8804
   54MOL   H145 8731   2.674   2.453   1.019 -1.5674 -1.3407 -0.8959
   54MOL   C146 8732   2.552   2.608   0.838  0.2454 -0.7420  0.0266
   54MOL   C147 8733   2.537   2.565   0.692  0.3529  0.4643  0.1300
   54MOL   N148 8734   2.404   2.508   0.672  0.0190 -0.0355  0.5035
   54MOL   H149 8735   2.481   2.555   0.902  0.1080  0.0851  0.5724
   54MOL   H150 8736   2.517   2.710   0.849  2.3824  0.0977 -0.7382
   54MOL   H151 8737   2.610   2.489   0.665 -1.0318 -0.8245 -0.1201
   54MOL   H152 8738   2.374   2.437   0.737 -1.0634  0.0638  0.1314
   54MOL   H153 8739   2.406   2.452   0.588 -0.1596  1.0280 -0.2230
   54MOL   C154 8740   2.560   2.675   0.585  0.7587 -0.0034  0.0042
   54MOL   C155 8741   2.599   2.623   0.448  0.5889  0.1529  0.0815
   54MOL   N156 8742   2.632   2.737   0.365  0.1682  0.2854  0.4392
   54MOL   H157 8743   2.470   2.735   0.573  0.8513  0.6959  2.5672
   54MOL   H158 8744   2.633   2.752   0.612  1.4459 -0.2787 -1.0455
   54MOL   H159 8745   2.511   2.572   0.409  0.6706 -0.6466  0.9489
   54MOL   H160 8746   2.663   2.700   0.276 -2.0041  2.1878 -1.1602
   54MOL   H161 8747   2.552   2.794   0.343 -1.2087 -0.8571  2.3835
   54MOL   H162 8748   2.692   2.567   0.461  1.3392  1.1521 -0.8499
   55MOL     C1 8749   0.403   0.212   1.885 -0.2073  0.6224  0.5920
   55MOL     C2 8750   0.450   0.357   1.887 -0.2104 -0.5212 -0.0718
   55MOL     N3 8751   0.453   0.411   1.749  0.7056 -0.0260  0.2556
   55MOL     H4 8752   0.462   0.146   1.821 -1.5034  0.9737 -1.0122
   55MOL     H5 8753   0.306   0.203   1.837  0.0003 -0.6301  0.3884
   55MOL     H6 8754   0.553   0.354   1.923 -0.0668 -1.4760 -0.5438
   55MOL     H7 8755   0.499   0.501   1.742 -1.1590  0.9636  0.1133
   55MOL     H8 8756   0.499   0.345   1.689  0.8879  0.6887 -0.3884
   55MOL     H9 8757   0.391   0.162   1.980 -2.2828 -1.0400 -0.5028
   55MOL    C10 8758   0.367   0.456   1.975  0.0443 -0.7184 -0.2344
   55MOL    C11 8759   0.373   0.435   2.126  0.1098 -0.1334  0.0364
   55MOL    N12 8760   0.514   0.446   2.167  0.2996 -0.4028 -0.6573
   55MOL    H13 8761   0.410   0.552   1.947  0.2027 -1.1088 -1.3723
   55MOL    H14 8762   0.265   0.474   1.941  0.7607  0.9700 -1.6154
   55MOL    H15 8763   0.341   0.332   2.143  0.8692 -0.2894  0.5431
   55MOL    H16 8764   0.573   0.376   2.124 -0.3871 -0.7084 -1.1061
   55MOL    H17 8765   0.512   0.428   2.266  1.1297  1.6137 -0.2373
   55MOL    C18 8766   0.300   0.540   2.204  0.4793  0.9428 -0.0571
   55MOL    C19 8767   0.264   0.512   2.354 -0.0732  0.0783 -0.0928
   55MOL    N20 8768   0.175   0.613   2.404  0.0333  0.1783  0.7892
   55MOL    H21 8769   0.349   0.635   2.182  0.6868  1.2110  1.4640
   55MOL    H22 8770   0.209   0.546   2.145  0.3981  1.4687  0.1153
   55MOL    H23 8771   0.349   0.507   2.423  0.0268 -1.9005 -0.3286
   55MOL    H24 8772   0.081   0.593   2.372  0.4705  1.9016 -1.7095
   55MOL    H25 8773   0.165   0.595   2.503 -0.8877 -0.1586  0.6384
   55MOL    C26 8774   0.204   0.369   2.378  0.5415 -0.3592  0.0945
   55MOL    C27 8775   0.089   0.314   2.286  0.3867 -1.0381 -0.5356
   55MOL    N28 8776   0.058   0.178   2.324  0.5258  0.3380 -0.3899
   55MOL    H29 8777   0.290   0.304   2.359  0.9854  0.4219 -0.6251
   55MOL    H30 8778   0.172   0.370   2.482  0.0874 -1.6464 -0.0243
   55MOL    H31 8779   0.121   0.295   2.184  1.2358 -3.8000  0.2086
   55MOL    H32 8780   0.135   0.114   2.329  0.7839  0.5007 -2.0441
   55MOL    H33 8781   0.022   0.175   2.419 -0.9728  1.6250 -0.9005
   55MOL    C34 8782   7.230   0.392   2.285  0.0027  0.1858 -0.3074
   55MOL    C35 8783   7.150   0.361   2.155 -0.1076  0.0852 -0.0239
   55MOL    N36 8784   7.010   0.398   2.166 -0.4907  0.4638  0.0756
   55MOL    H37 8785   7.184   0.351   2.374  3.1646 -1.7615  0.4863
   55MOL    H38 8786   7.233   0.500   2.301  0.9461 -0.0368  1.1114
   55MOL    H39 8787   7.142   0.256   2.130  3.2882  0.2208 -2.0048
   55MOL    H40 8788   6.978   0.343   2.245 -1.4047 -1.6014 -1.6525
   55MOL    H41 8789   6.998   0.493   2.196 -1.0553 -0.0837  1.6635
   55MOL    C42 8790   7.203   0.448   2.036 -0.2297  1.0615 -0.9599
   55MOL    C43 8791   7.166   0.391   1.893  0.4208  0.3741 -0.6096
   55MOL    N44 8792   7.164   0.499   1.794  0.3236  0.0927  0.2152
   55MOL    H45 8793   7.153   0.543   2.050 -0.4764  0.6957  0.7587
   55MOL    H46 8794   0.031   0.481   2.041  0.3961 -0.6993 -1.8405
   55MOL    H47 8795   7.079   0.325   1.891  2.6599 -2.7106 -0.1235
   55MOL    H48 8796   7.130   0.474   1.702 -0.3507 -0.0572  0.4986
   55MOL    H49 8797   7.258   0.533   1.781 -0.3790  1.6010 -1.2533
   55MOL    C50 8798   0.001   0.297   1.849 -0.8789 -0.0318  0.9657
   55MOL    C51 8799   7.235   0.206   1.731  0.2721 -0.0775  0.4605
   55MOL    N52 8800   0.007   0.246   1.599  0.6551  0.0455  0.4019
   55MOL    H53 8801   0.087   0.359   1.822  0.4422 -2.2750 -0.1883
   55MOL    H54 8802   0.031   0.237   1.935 -1.0601 -0.4385  0.7469
   55MOL    H55 8803   7.127   0.211   1.727  0.2054 -0.6538  1.5723
   55MOL    H56 8804   7.261   0.341   1.575 -1.6693 -0.8575 -1.1893
   55MOL    H57 8805   0.108   0.242   1.595  0.5198 -3.3432 -3.6952
   55MOL    C58 8806   0.001   0.063   1.758  0.0346  0.0784 -0.0239
   55MOL    C59 8807   7.208   7.273   1.880  0.6316  0.1811  0.2948
   55MOL    N60 8808   7.067   7.259   1.838 -0.1149 -0.0822 -0.4432
   55MOL    H61 8809   0.002   7.274   1.670  1.1838 -2.1017  1.5417
   55MOL    H62 8810   0.107   0.076   1.779 -0.1352 -1.0236  1.6661
   55MOL    H63 8811   7.217   0.059   1.970  0.3678  0.7758 -0.0867
   55MOL    H64 8812   7.057   0.046   1.759  3.6749  1.2926  0.0399
   55MOL    H65 8813   7.001   0.026   1.902 -1.9305 -3.3858 -0.0160
   55MOL    C66 8814   7.264   7.129   1.907 -0.2638 -0.5472  0.2786
   55MOL    C67 8815   7.222   7.066   2.038 -0.1511  0.1890  0.8816
   55MOL    N68 8816   7.274   6.929   2.036 -0.7132  0.6297 -0.6198
   55MOL    H69 8817   7.239   7.059   1.827  1.1058 -1.2028  0.4088
   55MOL    H70 8818   0.096   7.136   1.898 -0.3393 -0.6444 -0.7945
   55MOL    H71 8819   7.115   7.047   2.049 -0.1193 -0.4245  0.1525
   55MOL    H72 8820   7.218   6.873   1.974 -0.5893 -1.4089  1.0384
   55MOL    H73 8821   0.092   6.914   1.999 -0.3466 -3.4235  1.5906
   55MOL    C74 8822   0.006   7.146   2.166  0.3193  0.4039  0.0284
   55MOL    C75 8823   7.275   7.079   2.299  0.9424 -0.0278 -0.6584
   55MOL    N76 8824   0.089   7.144   2.394  0.4193 -0.3513 -0.3772
   55MOL    H77 8825   0.112   7.169   2.152  0.8210 -1.7375  0.0964
   55MOL    H78 8826   7.244   7.248   2.171 -1.6279 -0.3699  1.9465
   55MOL    H79 8827   0.040   6.978   2.284 -0.2184 -0.2827 -2.1940
   55MOL    H80 8828   0.063   7.225   2.450  0.7476 -0.1118 -0.5692
   55MOL    H81 8829   0.176   7.168   2.348 -1.0670  2.0537 -2.0185
   55MOL    C82 8830   7.135   7.066   2.371  0.6155  0.4506  0.2448
   55MOL    C83 8831   7.026   6.991   2.293 -0.4263 -0.1667  0.6594
   55MOL    N84 8832   7.081   6.869   2.236  0.2344 -0.2511  0.3310
   55MOL    H85 8833   7.149   7.015   2.467 -0.3871  1.6218  1.0185
   55MOL    H86 8834   7.106   7.166   2.401 -0.6358  0.7889 -2.0364
   55MOL    H87 8835   6.992   7.059   2.215 -2.0736  0.4713  1.9024
   55MOL    H88 8836   7.152   6.890   2.167  1.1462 -0.0842  1.3182
   55MOL    H89 8837   7.008   6.811   2.197 -2.1771  1.8364  1.5981
   55MOL    C90 8838   6.895   6.955   2.369 -0.0800 -0.4902  0.3130
   55MOL    C91 8839   6.770   7.040   2.338 -0.4851 -0.6598 -0.2601
   55MOL    N92 8840   6.656   6.977   2.405 -0.2394 -1.3197 -0.2884
   55MOL    H93 8841   6.875   6.848   2.356 -0.4550 -0.8600  3.4464
   55MOL    H94 8842   6.902   6.958   2.478 -2.1959  1.8755  0.4364
   55MOL    H95 8843   6.761   7.050   2.230  1.0652 -1.9232 -0.5188
   55MOL    H96 8844   6.667   6.877   2.405 -2.1784 -1.5558 -0.9430
   55MOL    H97 8845   6.573   6.983   2.347 -1.4994 -1.2425  1.4835
   55MOL    C98 8846   6.792   7.184   2.388  0.3159  0.5445  0.8684
   55MOL    C99 8847   6.733   0.011   2.289 -0.3346  0.1404 -0.0415
   55MOL   N100 8848   6.683   0.117   2.370 -0.6385 -0.1131 -0.3965
   55MOL   H101 8849   6.740   7.200   2.483  0.9317 -1.2861  1.5353
   55MOL   H102 8850   6.895   7.199   2.419  0.9688 -2.9446  0.6012
   55MOL   H103 8851   6.643   7.249   2.241 -1.0871  0.6237  0.9717
   55MOL   H104 8852   6.626   0.172   2.307 -0.3829  0.3853 -0.1974
   55MOL   H105 8853   6.611   0.073   2.426 -1.2074  1.7942  0.4005
   55MOL   C106 8854   6.840   0.065   2.185  0.0306 -0.2900  0.1914
   55MOL   C107 8855   6.778   0.110   2.055 -0.3288 -0.0497 -0.0876
   55MOL   N108 8856   6.873   0.174   1.965 -0.3725  0.0009  0.7798
   55MOL   H109 8857   6.905   0.138   2.233 -0.2438  1.5105 -2.0858
   55MOL   H110 8858   6.911   7.267   2.149  0.0317  0.6602 -1.8211
   55MOL   H111 8859   6.703   0.185   2.080 -1.6466 -0.8615 -1.4648
   55MOL   H112 8860   6.821   0.234   1.902  0.1238 -0.3184  0.0630
   55MOL   H113 8861   6.910   0.248   2.023  0.0636 -0.3750  0.9769
   55MOL   C114 8862   6.722   7.268   1.970  0.2635  0.3246  0.3287
   55MOL   C115 8863   6.570   7.253   1.974  0.5279 -0.2191 -0.0275
   55MOL   N116 8864   6.511   0.070   1.881  0.3681 -0.8196  0.5721
   55MOL   H117 8865   6.744   7.264   1.864  1.2899 -1.6946  0.5917
   55MOL   H118 8866   6.771   7.175   2.000  0.4699  1.0058  2.1962
   55MOL   H119 8867   6.537   0.002   2.075  2.6851  1.5130  0.3080
   55MOL   H120 8868   6.523   0.165   1.914 -3.3689 -0.1195  0.1665
   55MOL   H121 8869   6.558   0.065   1.791  0.3358 -1.4054  0.5842
   55MOL   C122 8870   6.522   7.115   1.930  0.2176  0.2370 -0.0618
   55MOL   C123 8871   6.511   7.012   2.042  0.0786 -0.1773 -0.3751
   55MOL   N124 8872   6.403   7.058   2.127  0.4263 -0.2445 -0.5897
   55MOL   H125 8873   6.423   7.123   1.884  1.1511 -1.3537 -2.4091
   55MOL   H126 8874   6.579   7.079   1.844  1.9544  0.3842  1.0145
   55MOL   H127 8875   6.610   7.005   2.087 -0.1420  1.5958  0.4109
   55MOL   H128 8876   6.322   7.056   2.067  1.0296  1.4580 -1.4812
   55MOL   H129 8877   6.404   7.154   2.158  2.6042 -0.2270 -0.6583
   55MOL   C130 8878   6.497   6.863   1.999  0.6733  0.0185 -0.0838
   55MOL   C131 8879   6.517   6.767   2.119 -0.2557 -0.3769  0.6088
   55MOL   N132 8880   6.396   6.779   2.200  0.4826  0.1115 -0.0068
   55MOL   H133 8881   6.403   6.844   1.947  0.2570 -0.0657  0.6804
   55MOL   H134 8882   6.569   6.850   1.918 -2.3208 -3.5970 -2.3161
   55MOL   H135 8883   6.600   6.788   2.187 -1.5335 -2.9025  3.0566
   55MOL   H136 8884   6.313   6.769   2.144 -0.3744  0.9989  1.0973
   55MOL   H137 8885   6.403   6.878   2.219 -0.7093  0.2735 -0.4030
   55MOL   C138 8886   6.519   6.621   2.065 -0.1082  0.1584 -0.2970
   55MOL   C139 8887   6.662   6.555   2.050  0.2311  0.4305 -0.2724
   55MOL   N140 8888   6.639   6.412   2.018 -0.1417  0.0470  0.3805
   55MOL   H141 8889   6.461   6.561   2.135  0.5601 -0.9276 -0.6720
   55MOL   H142 8890   6.459   6.625   1.974  1.2313  0.1762 -1.1849
   55MOL   H143 8891   6.718   6.551   2.144  1.3244 -1.0010 -0.9724
   55MOL   H144 8892   6.730   6.375   1.994 -0.1001  0.4751 -0.1342
   55MOL   H145 8893   6.596   6.391   1.929 -2.1732 -0.5395  1.4844
   55MOL   C146 8894   6.752   6.616   1.948  0.2582  0.1114  0.2790
   55MOL   C147 8895   6.841   6.730   1.999 -0.3320 -0.1188  0.6239
   55MOL   N148 8896   6.925   6.673   2.100 -0.4737  0.1418 -0.2767
   55MOL   H149 8897   6.814   6.536   1.908 -2.3860 -1.8931  0.0997
   55MOL   H150 8898   6.682   6.651   1.872  0.1193  1.6431  1.0918
   55MOL   H151 8899   6.775   6.808   2.036  0.5318  0.9184 -0.0117
   55MOL   H152 8900   6.991   6.604   2.065  0.3118  0.0298  1.3406
   55MOL   H153 8901   6.870   6.610   2.156 -0.0924 -0.7192 -0.8679
   55MOL   C154 8902   6.928   6.807   1.892 -0.2226 -0.1081 -0.9047
   55MOL   C155 8903   6.854   6.897   1.787  0.2455  0.9735 -0.1101
   55MOL   N156 8904   6.954   6.928   1.692 -0.2563  0.9486 -0.1222
   55MOL   H157 8905   6.995   6.873   1.947  0.7465 -1.7395 -0.0809
   55MOL   H158 8906   6.997   6.735   1.846  0.1903  0.2204 -0.8035
   55MOL   H159 8907   6.807   6.982   1.837 -0.5823  0.0007  0.8269
   55MOL   H160 8908   6.918   6.946   1.599 -0.1776  1.3668 -0.0735
   55MOL   H161 8909   7.000   7.009   1.730 -1.0752  1.3680 -0.0023
   55MOL   H162 8910   6.773   6.838   1.745  1.6202 -0.7655 -0.3805
   56MOL     C1 8911   6.747   1.051   1.322  0.7289  0.5669  0.3508
   56MOL     C2 8912   6.885   1.032   1.385 -0.5758  0.5572  0.2065
   56MOL     N3 8913   6.894   1.148   1.470  0.5863 -0.5089 -0.6068
   56MOL     H4 8914   6.749   1.150   1.277  0.0878  0.2771 -0.3293
   56MOL     H5 8915   6.664   1.048   1.393  2.3564  0.7179  2.2995
   56MOL     H6 8916   6.966   1.021   1.314 -0.0553 -0.1505  0.9014
   56MOL     H7 8917   6.848   1.228   1.428  1.6112 -0.2521 -1.2658
   56MOL     H8 8918   6.992   1.163   1.488  0.0379  1.3709  0.9722
   56MOL     H9 8919   6.729   0.985   1.237 -1.5698 -1.3060  2.1916
   56MOL    C10 8920   6.892   0.898   1.461  0.0515 -0.7091 -0.3171
   56MOL    C11 8921   6.898   0.771   1.375  0.6106 -0.1373 -0.6726
   56MOL    N12 8922   7.030   0.765   1.314  1.0549  0.0047  0.4603
   56MOL    H13 8923   6.963   0.890   1.543  1.7325 -2.0987 -1.8786
   56MOL    H14 8924   6.799   0.896   1.518 -0.1414 -1.2392 -0.6492
   56MOL    H15 8925   6.817   0.772   1.302  2.3130  0.8288 -2.6070
   56MOL    H16 8926   7.059   0.672   1.288  1.7039 -0.5402  3.0026
   56MOL    H17 8927   7.038   0.833   1.240 -0.2704 -0.5276 -0.1927
   56MOL    C18 8928   6.878   0.640   1.447  0.6766 -0.2693 -0.6221
   56MOL    C19 8929   6.737   0.611   1.498 -0.1551  0.4514 -0.2722
   56MOL    N20 8930   6.636   0.643   1.410 -0.6236  0.5173 -0.2066
   56MOL    H21 8931   6.904   0.555   1.385 -0.4964 -1.8181  0.9510
   56MOL    H22 8932   6.939   0.630   1.536  2.6202 -2.6142 -2.1710
   56MOL    H23 8933   6.724   0.671   1.588  0.4479 -2.0920  1.5965
   56MOL    H24 8934   6.546   0.641   1.456  0.2534 -0.4243  1.5062
   56MOL    H25 8935   6.621   0.569   1.342  0.9191  1.6635 -1.8601
   56MOL    C26 8936   6.723   0.460   1.543 -0.3809 -0.4419 -0.8835
   56MOL    C27 8937   6.826   0.394   1.642 -0.1207  0.8141 -0.4649
   56MOL    N28 8938   6.786   0.429   1.787  0.5240  0.3235 -0.5509
   56MOL    H29 8939   6.624   0.438   1.584  0.3487 -1.3792  0.4083
   56MOL    H30 8940   6.717   0.395   1.456  0.6791  1.5362 -2.4625
   56MOL    H31 8941   6.925   0.435   1.626 -0.5025  1.6652 -0.7145
   56MOL    H32 8942   6.689   0.453   1.801 -0.0183 -1.3461 -1.3404
   56MOL    H33 8943   6.817   0.525   1.796  0.1713  0.4325 -0.4950
   56MOL    C34 8944   6.835   0.241   1.636  0.0404  0.6103  0.1119
   56MOL    C35 8945   6.889   0.183   1.501 -0.5385  0.8513  0.2532
   56MOL    N36 8946   7.009   0.246   1.444  0.5289 -0.2495 -0.1993
   56MOL    H37 8947   6.904   0.196   1.707 -0.1815 -0.7584 -0.5281
   56MOL    H38 8948   6.738   0.195   1.654  0.2218  1.2646  3.0672
   56MOL    H39 8949   6.813   0.193   1.424 -0.9811 -0.7815  0.4546
   56MOL    H40 8950   6.986   0.344   1.437 -1.5195 -0.6297  0.9507
   56MOL    H41 8951   7.077   0.245   1.518  0.3497 -0.2498 -0.0358
   56MOL    C42 8952   6.921   0.037   1.524  0.1602  0.4374  0.1815
   56MOL    C43 8953   6.962   7.225   1.398 -0.4755 -0.3799  0.0146
   56MOL    N44 8954   6.992   7.091   1.446  0.2097 -0.3280  0.7400
   56MOL    H45 8955   7.001   0.029   1.598 -0.9400 -2.0387  1.1404
   56MOL    H46 8956   6.833   7.270   1.570  0.2029 -0.2081 -0.3279
   56MOL    H47 8957   7.060   7.252   1.357 -0.1297 -1.8510 -0.1770
   56MOL    H48 8958   7.041   7.029   1.382 -1.2756 -0.5424 -0.2102
   56MOL    H49 8959   7.063   7.105   1.516 -1.2714 -1.7473  2.5834
   56MOL    C50 8960   6.869   7.231   1.273 -0.0003 -0.1193  0.0146
   56MOL    C51 8961   6.925   7.172   1.145  0.3317 -0.4884 -0.0847
   56MOL    N52 8962   6.812   7.170   1.048  0.2445  0.3516 -0.2636
   56MOL    H53 8963   6.782   7.175   1.307  0.7524  0.4388  2.9438
   56MOL    H54 8964   6.840   0.059   1.253 -0.7784  0.3173  3.1749
   56MOL    H55 8965   6.960   7.070   1.160 -0.6480 -0.3530  3.4820
   56MOL    H56 8966   6.832   7.077   1.016 -0.8140 -0.4083  1.2313
   56MOL    H57 8967   6.728   7.151   1.100 -1.0339  1.7714 -1.7414
   56MOL    C58 8968   7.041   7.260   1.087  0.4907 -0.4852  0.2375
   56MOL    C59 8969   7.187   7.217   1.127 -0.5688  0.2519  0.8813
   56MOL    N60 8970   7.236   7.115   1.033  0.5539 -0.2375  0.1260
   56MOL    H61 8971   7.027   7.263   0.979 -0.7107 -1.1889  0.3580
   56MOL    H62 8972   7.027   0.087   1.121 -0.1263 -0.7271  0.7387
   56MOL    H63 8973   7.191   7.173   1.226 -1.0143  0.3479  0.9409
   56MOL    H64 8974   7.169   7.039   1.035  1.5512 -1.1274  0.6000
   56MOL    H65 8975   0.044   7.071   1.071  1.0600  0.3826 -0.2699
   56MOL    C66 8976   0.009   0.056   1.123  0.6145 -1.0758  0.2938
   56MOL    C67 8977   7.266   0.150   1.246  0.7223  0.2571 -0.0345
   56MOL    N68 8978   0.045   0.090   1.367  0.5180 -0.2288  0.1075
   56MOL    H69 8979   0.110   0.017   1.125  0.4262 -1.6959 -1.5050
   56MOL    H70 8980   7.267   0.109   1.029 -2.1713 -2.0286  0.2205
   56MOL    H71 8981   7.163   0.177   1.265  1.1370  0.8934  1.3734
   56MOL    H72 8982   7.263   0.131   1.438 -1.2611 -2.2517 -0.1014
   56MOL    H73 8983   0.132   0.138   1.382 -0.7873  2.5146 -0.8376
   56MOL    C74 8984   0.064   0.282   1.230  0.4049  0.0464 -0.5641
   56MOL    C75 8985   0.006   0.385   1.126  0.5366 -0.2995  0.1513
   56MOL    N76 8986   7.176   0.455   1.193 -0.1369 -0.1892 -0.1441
   56MOL    H77 8987   0.086   0.328   1.327 -2.3720  0.7358 -0.2330
   56MOL    H78 8988   0.166   0.253   1.202  0.4518 -1.1502  0.8143
   56MOL    H79 8989   7.246   0.339   1.034 -0.7142  0.1080  0.4131
   56MOL    H80 8990   7.110   0.390   1.231  0.7512 -1.6207 -1.0137
   56MOL    H81 8991   7.136   0.495   1.109 -0.5088 -1.7465 -0.7148
   56MOL    C82 8992   0.103   0.487   1.090 -0.2522 -0.3272  0.1198
   56MOL    C83 8993   0.166   0.469   0.947  0.7878 -1.0137 -0.4052
   56MOL    N84 8994   0.217   0.593   0.897 -0.3958  0.9790  0.3462
   56MOL    H85 8995   0.052   0.583   1.087 -0.3039 -0.3420  0.5115
   56MOL    H86 8996   0.177   0.492   1.169 -0.2273 -1.2522  0.1669
   56MOL    H87 8997   0.082   0.444   0.881  0.8456 -0.5012 -0.6749
   56MOL    H88 8998   0.297   0.565   0.841  0.3014 -2.5982  2.9366
   56MOL    H89 8999   0.150   0.649   0.847  0.2297  0.4075 -1.1701
   56MOL    C90 9000   0.273   0.352   0.941  0.4542  0.0477  0.1200
   56MOL    C91 9001   0.286   0.274   0.810  0.4025 -0.5956  0.0199
   56MOL    N92 9002   0.411   0.195   0.809  0.3104 -0.0903 -0.9045
   56MOL    H93 9003   0.370   0.378   0.983 -0.0260 -2.0430  2.6589
   56MOL    H94 9004   0.233   0.270   1.002  1.6340 -0.5002  0.1745
   56MOL    H95 9005   0.294   0.347   0.729  1.8960 -2.5235 -1.6199
   56MOL    H96 9006   0.494   0.250   0.795 -0.4384  0.8673 -1.5913
   56MOL    H97 9007   0.405   0.139   0.725 -0.4657 -0.5723 -0.5333
   56MOL    C98 9008   0.162   0.182   0.786  0.7242 -0.5238  0.1359
   56MOL    C99 9009   0.129   0.153   0.635 -0.2004  0.3078  0.2621
   56MOL   N100 9010   0.110   0.013   0.628 -0.1271  0.6725 -0.4377
   56MOL   H101 9011   0.158   0.094   0.850  4.1954 -0.5085  0.4886
   56MOL   H102 9012   0.074   0.235   0.823  0.5448 -0.1546 -0.7956
   56MOL   H103 9013   0.211   0.187   0.572  0.0497 -0.4312  0.1815
   56MOL   H104 9014   0.193   7.234   0.643 -0.4095 -0.3484 -2.4632
   56MOL   H105 9015   0.054   7.263   0.708  1.0649  0.4656  0.3456
   56MOL   C106 9016   7.276   0.214   0.581 -0.2564 -0.9624  0.5929
   56MOL   C107 9017   0.004   0.355   0.505  0.4774 -0.3096 -0.4292
   56MOL   N108 9018   7.149   0.367   0.438  0.1423 -0.4759  0.4721
   56MOL   H109 9019   7.215   0.153   0.513 -1.0650  0.8418 -0.3213
   56MOL   H110 9020   7.201   0.229   0.659 -0.7260 -1.2191  0.1960
   56MOL   H111 9021   0.083   0.361   0.430  1.7616 -1.3450  0.8060
   56MOL   H112 9022   7.159   0.303   0.361 -2.1147  0.3645 -0.5620
   56MOL   H113 9023   7.151   0.451   0.382 -1.8304 -1.5833 -1.3749
   56MOL   C114 9024   0.019   0.472   0.604  0.0438 -0.3574  0.0312
   56MOL   C115 9025   0.027   0.617   0.542 -0.5004  0.3742  0.0580
   56MOL   N116 9026   0.051   0.710   0.656  0.0127 -0.0616 -0.6422
   56MOL   H117 9027   7.217   0.473   0.680  2.5886 -1.1439  2.7134
   56MOL   H118 9028   0.116   0.456   0.650  0.0621  2.3971  0.9972
   56MOL   H119 9029   7.203   0.641   0.505 -1.4697  0.3228  2.5362
   56MOL   H120 9030   0.050   0.806   0.625 -1.9727  0.1786  0.0487
   56MOL   H121 9031   7.250   0.706   0.722 -0.8287  1.9174 -1.4526
   56MOL   C122 9032   0.139   0.643   0.435 -0.0471  0.8160  0.4291
   56MOL   C123 9033   0.089   0.608   0.291 -0.6683 -0.4804  0.1607
   56MOL   N124 9034   0.011   0.731   0.246  0.2708 -0.8159  0.5920
   56MOL   H125 9035   0.169   0.748   0.432 -2.4096  1.4994 -1.5530
   56MOL   H126 9036   0.224   0.583   0.467  0.8916  0.7714 -2.0367
   56MOL   H127 9037   0.025   0.520   0.288 -3.0558  1.2487 -1.0281
   56MOL   H128 9038   7.242   0.722   0.155 -0.0169  0.6543  0.5858
   56MOL   H129 9039   0.070   0.810   0.227 -0.8028  0.4125  2.2021
   56MOL   C130 9040   0.206   0.605   0.194  0.1069  0.2916 -0.0178
   56MOL   C131 9041   0.299   0.481   0.207  0.2451  0.1586 -0.2538
   56MOL   N132 9042   0.333   0.433   0.078 -0.3653 -0.3684  0.0755
   56MOL   H133 9043   0.169   0.618   0.092 -0.4901 -2.5725 -0.1863
   56MOL   H134 9044   0.271   0.690   0.216  0.3509 -0.4732  2.2565
   56MOL   H135 9045   0.251   0.407   0.270  0.7139  0.5773  0.5986
   56MOL   H136 9046   0.406   0.363   0.080  0.3588  0.4119  2.7687
   56MOL   H137 9047   0.367   0.516   0.030 -0.7401 -0.7719 -0.8800
   56MOL   C138 9048   0.433   0.506   0.274  0.1316 -0.6273 -0.1223
   56MOL   C139 9049   0.442   0.431   0.417 -0.4413  0.3458 -0.2664
   56MOL   N140 9050   0.498   0.296   0.409  0.2856  0.1430 -0.6501
   56MOL   H141 9051   0.512   0.478   0.204  1.6776  0.2886  1.2089
   56MOL   H142 9052   0.460   0.611   0.280 -1.7175 -0.1948  1.0568
   56MOL   H143 9053   0.340   0.411   0.449 -0.8900  1.2005 -1.1313
   56MOL   H144 9054   0.450   0.227   0.354 -0.7775  1.8820 -1.9700
   56MOL   H145 9055   0.592   0.282   0.374  0.3878 -1.8596  0.3664
   56MOL   C146 9056   0.523   0.505   0.524 -0.4273  0.3694  0.0248
   56MOL   C147 9057   0.474   0.647   0.562 -0.4046 -0.1859  0.1478
   56MOL   N148 9058   0.394   0.627   0.678 -0.2938 -0.5432 -0.2966
   56MOL   H149 9059   0.521   0.441   0.612  2.1178 -1.5604 -1.2358
   56MOL   H150 9060   0.623   0.502   0.481  0.0361  0.8571  1.0425
   56MOL   H151 9061   0.417   0.698   0.483  1.3514 -0.0224 -1.0308
   56MOL   H152 9062   0.297   0.609   0.657 -1.2687  1.6022  2.0840
   56MOL   H153 9063   0.395   0.726   0.698  2.9839  0.1823 -3.6185
   56MOL   C154 9064   0.593   0.742   0.584  0.1235 -0.5236  0.1016
   56MOL   C155 9065   0.645   0.818   0.453 -0.0933  0.4868 -0.6511
   56MOL   N156 9066   0.783   0.871   0.455  0.0021 -0.3840 -0.7903
   56MOL   H157 9067   0.583   0.821   0.659  0.9406  0.1393 -0.4747
   56MOL   H158 9068   0.668   0.681   0.635  0.6263 -0.0374 -0.0545
   56MOL   H159 9069   0.578   0.901   0.432  0.8470  1.2884 -0.5508
   56MOL   H160 9070   0.792   0.940   0.529  2.1661 -1.7466  0.2804
   56MOL   H161 9071   0.844   0.800   0.493  0.2004  1.7067  3.1106
   56MOL   H162 9072   0.629   0.756   0.365 -2.5132 -1.6156  1.1899
   57MOL     C1 9073   3.917   4.049   2.655  0.7881 -0.4419  0.0826
   57MOL     C2 9074   4.047   3.985   2.601 -0.2293  0.1882  0.1890
   57MOL     N3 9075   4.002   3.863   2.551  0.2770 -0.3426 -0.1789
   57MOL     H4 9076   3.926   4.105   2.748  0.8825 -0.0231 -0.1743
   57MOL     H5 9077   3.837   3.977   2.668  0.0357 -0.2700 -3.1539
   57MOL     H6 9078   4.114   3.969   2.685  1.6023  1.5688 -0.9694
   57MOL     H7 9079   4.016   3.875   2.452  0.8043 -1.9194 -0.3081
   57MOL     H8 9080   3.902   3.858   2.557  0.1431  1.0582 -1.1435
   57MOL     H9 9081   3.880   4.116   2.577 -0.7537 -0.8393  0.4620
   57MOL    C10 9082   4.121   4.073   2.495  0.4061  0.6415  0.2369
   57MOL    C11 9083   4.177   4.203   2.557 -0.4864  0.3256 -0.0666
   57MOL    N12 9084   4.291   4.157   2.644  0.5820  0.0764 -0.3193
   57MOL    H13 9085   4.198   4.018   2.442  1.2706  2.3432 -0.3314
   57MOL    H14 9086   4.050   4.094   2.415 -0.2822 -0.5414  0.5381
   57MOL    H15 9087   4.095   4.249   2.612 -0.1181  0.5322  0.3182
   57MOL    H16 9088   4.344   4.231   2.689  1.2661 -1.0905  0.8261
   57MOL    H17 9089   4.259   4.092   2.715 -0.7573  0.0683 -0.9111
   57MOL    C18 9090   4.231   4.310   2.455  0.0140 -0.1848 -0.4694
   57MOL    C19 9091   4.135   4.428   2.430 -0.5807  0.3030 -0.3245
   57MOL    N20 9092   4.199   4.525   2.342  0.1481 -0.4907  0.5800
   57MOL    H21 9093   4.323   4.348   2.500 -0.9577  1.0248  0.5504
   57MOL    H22 9094   4.264   4.260   2.364  3.0850 -0.0524  0.4997
   57MOL    H23 9095   4.111   4.477   2.525 -0.4993 -1.2505  0.5203
   57MOL    H24 9096   4.218   4.488   2.250  0.0556 -1.9075  1.1224
   57MOL    H25 9097   4.296   4.532   2.367  0.5080 -0.6768 -0.7618
   57MOL    C26 9098   4.006   4.390   2.360  0.3176  0.2725 -0.3658
   57MOL    C27 9099   3.893   4.497   2.358 -0.6152 -0.5696 -0.3560
   57MOL    N28 9100   3.779   4.460   2.280 -0.8576  0.1894  0.9483
   57MOL    H29 9101   4.019   4.371   2.253  1.6164 -0.3329 -0.1064
   57MOL    H30 9102   3.958   4.299   2.395  1.0765 -0.7959 -2.0459
   57MOL    H31 9103   3.937   4.583   2.309 -0.8961  0.9919  2.0753
   57MOL    H32 9104   3.698   4.492   2.331 -0.8603 -0.0346  1.0848
   57MOL    H33 9105   3.780   4.506   2.190  0.2006 -0.3609  0.6636
   57MOL    C34 9106   3.848   4.531   2.504  0.0759 -0.5286 -0.3305
   57MOL    C35 9107   3.798   4.670   2.538 -0.6955 -0.6044 -0.4806
   57MOL    N36 9108   3.709   4.658   2.649  0.9012  0.1283 -0.4581
   57MOL    H37 9109   3.766   4.465   2.533 -0.7072  0.6265  0.1124
   57MOL    H38 9110   3.922   4.509   2.581 -2.6002 -2.3409  1.8506
   57MOL    H39 9111   3.744   4.715   2.455 -1.1878  0.9619  0.6670
   57MOL    H40 9112   3.637   4.588   2.638  0.1706  1.0022 -1.3768
   57MOL    H41 9113   3.763   4.622   2.726  1.5964 -0.1827 -1.0934
   57MOL    C42 9114   3.900   4.773   2.576  0.9849  0.1978 -0.2222
   57MOL    C43 9115   4.026   4.787   2.492  0.2240  0.5260 -0.0021
   57MOL    N44 9116   3.994   4.847   2.366 -0.2867  0.6332 -0.1940
   57MOL    H45 9117   3.849   4.869   2.583  1.4970  0.3432  1.8011
   57MOL    H46 9118   3.928   4.757   2.680  0.1099 -2.1783 -0.3209
   57MOL    H47 9119   4.071   4.691   2.469  0.9835  1.0446 -0.7149
   57MOL    H48 9120   3.925   4.790   2.319 -0.8080  0.6792  0.5124
   57MOL    H49 9121   4.072   4.836   2.303 -0.1063 -0.8548  0.2742
   57MOL    C50 9122   4.149   4.861   2.551  0.3023 -0.2375  1.0176
   57MOL    C51 9123   4.218   4.778   2.660 -0.6668 -0.6592 -0.1622
   57MOL    N52 9124   4.328   4.708   2.592 -0.4423 -0.9771 -0.2219
   57MOL    H53 9125   4.215   4.893   2.470  1.1345 -0.6926  1.5116
   57MOL    H54 9126   4.110   4.955   2.590  1.0160  0.3985  0.2413
   57MOL    H55 9127   4.158   4.700   2.707  2.7626 -2.1305  1.9820
   57MOL    H56 9128   4.378   4.647   2.654  1.6266  0.3201 -0.5676
   57MOL    H57 9129   4.282   4.654   2.519 -1.7688 -0.4118  0.1673
   57MOL    C58 9130   4.263   4.873   2.772 -0.6007  0.1525  0.6499
   57MOL    C59 9131   4.330   4.821   2.905  0.7364  0.1791 -0.2722
   57MOL    N60 9132   4.400   4.928   2.970 -0.4418 -0.4075 -0.4496
   57MOL    H61 9133   4.339   4.928   2.715  0.6956 -2.2391 -0.0048
   57MOL    H62 9134   4.185   4.946   2.791 -0.8440  0.3203 -0.9356
   57MOL    H63 9135   4.403   4.742   2.888 -1.8254 -2.7991  1.9455
   57MOL    H64 9136   4.425   4.989   2.893 -0.9342  0.1216 -0.1991
   57MOL    H65 9137   4.492   4.897   2.998 -0.0513  2.0180  1.0773
   57MOL    C66 9138   4.227   4.753   2.996 -0.5668  0.2666  0.3153
   57MOL    C67 9139   4.081   4.807   3.010 -0.2652 -0.8546  1.2462
   57MOL    N68 9140   4.006   4.701   3.076  0.6800  0.1254  0.3752
   57MOL    H69 9141   4.223   4.650   2.961  0.5192  0.5510 -0.6817
   57MOL    H70 9142   4.272   4.749   3.096 -0.0185 -0.8667  0.0350
   57MOL    H71 9143   4.041   4.826   2.910  2.1651 -2.1633 -0.0130
   57MOL    H72 9144   3.909   4.714   3.051  1.3275  0.4001 -2.1441
   57MOL    H73 9145   4.028   4.625   3.014  1.0716  1.7853 -1.5609
   57MOL    C74 9146   4.067   4.938   3.100  0.6792  0.3144  0.5531
   57MOL    C75 9147   3.931   5.014   3.090  0.2261  0.7643 -0.2290
   57MOL    N76 9148   3.914   5.100   3.203  1.0090  0.0838 -0.2919
   57MOL    H77 9149   4.087   4.917   3.205 -1.8671 -0.8993  0.8340
   57MOL    H78 9150   4.141   5.011   3.069  1.6297 -0.6796  0.4521
   57MOL    H79 9151   3.850   4.942   3.085  0.7900  0.1626 -0.8934
   57MOL    H80 9152   3.841   5.064   3.263  0.6597 -1.5727 -1.6627
   57MOL    H81 9153   3.862   5.178   3.164 -1.1469 -1.3772 -0.4224
   57MOL    C82 9154   3.923   5.104   2.966  0.8990  0.0474  0.2838
   57MOL    C83 9155   3.784   5.166   2.936  0.2718  0.3494 -0.2958
   57MOL    N84 9156   3.755   5.266   3.034  0.0852 -0.0117  0.4733
   57MOL    H85 9157   3.999   5.182   2.968 -0.1926  1.0951  1.9871
   57MOL    H86 9158   3.943   5.036   2.883 -0.8519  1.4493 -1.3233
   57MOL    H87 9159   3.712   5.084   2.940 -0.9192  1.4739  2.5254
   57MOL    H88 9160   3.828   5.335   3.033  2.0304 -2.0232 -0.3441
   57MOL    H89 9161   3.671   5.316   3.008  0.3868 -0.1035 -0.7025
   57MOL    C90 9162   3.773   5.235   2.803 -0.2049 -0.2459 -0.0523
   57MOL    C91 9163   3.813   5.148   2.675  0.1403  0.1422  0.1789
   57MOL    N92 9164   3.686   5.088   2.625  0.4544 -0.5376  0.7004
   57MOL    H93 9165   3.672   5.272   2.784 -0.2506 -0.8282 -1.0240
   57MOL    H94 9166   3.843   5.318   2.801  0.5290 -0.8320  0.9567
   57MOL    H95 9167   3.879   5.066   2.702 -0.6271 -0.0329  1.5959
   57MOL    H96 9168   3.699   5.073   2.526 -0.6973  1.3430  0.2229
   57MOL    H97 9169   3.667   4.999   2.669 -0.3860  0.5446  2.5992
   57MOL    C98 9170   3.873   5.229   2.560  0.4464 -0.2634  0.2165
   57MOL    C99 9171   4.021   5.242   2.572 -1.1471  0.0563 -0.0471
   57MOL   N100 9172   4.087   5.187   2.449 -0.0678 -1.1146  0.1430
   57MOL   H101 9173   3.862   5.166   2.472  2.8967  1.4935 -1.4029
   57MOL   H102 9174   3.815   5.321   2.549 -0.8873 -1.0716  0.3591
   57MOL   H103 9175   4.063   5.179   2.651  1.2320  0.8112 -0.6468
   57MOL   H104 9176   4.076   5.240   2.364  2.7018  0.2968  0.6337
   57MOL   H105 9177   4.046   5.096   2.431 -1.8028 -0.7844  2.1555
   57MOL   C106 9178   4.076   5.388   2.590  0.1416  0.2993  0.0539
   57MOL   C107 9179   4.188   5.412   2.700 -0.0359  0.2143  0.0702
   57MOL   N108 9180   4.231   5.553   2.699 -0.6265  0.3247 -0.5360
   57MOL   H109 9181   4.113   5.429   2.497  0.3025  1.4003  0.5947
   57MOL   H110 9182   3.986   5.446   2.614  0.5736  1.8570 -1.9581
   57MOL   H111 9183   4.275   5.363   2.657  0.0199 -2.6432  3.2908
   57MOL   H112 9184   4.312   5.565   2.758 -1.1827  0.8076  0.1438
   57MOL   H113 9185   4.270   5.580   2.611 -2.1935 -2.1310 -2.0503
   57MOL   C114 9186   4.177   5.351   2.840 -0.0287  0.1852  0.2708
   57MOL   C115 9187   4.264   5.406   2.959 -0.0229  1.0309  0.7635
   57MOL   N116 9188   4.200   5.372   3.087 -0.5605 -0.5142  0.1240
   57MOL   H117 9189   4.072   5.363   2.866  0.2671  1.3857  0.9464
   57MOL   H118 9190   4.199   5.245   2.824 -1.0756  0.0692 -0.5044
   57MOL   H119 9191   4.280   5.512   2.940  2.1058  1.1284  2.9685
   57MOL   H120 9192   4.208   5.273   3.105 -2.6451 -0.5712  0.9105
   57MOL   H121 9193   4.104   5.404   3.089  0.6942  3.7387 -1.4753
   57MOL   C122 9194   4.406   5.344   2.956 -0.6249  0.2219  0.2040
   57MOL   C123 9195   4.512   5.411   3.046  0.8782 -0.8598 -0.9186
   57MOL   N124 9196   4.623   5.323   3.050 -0.3185  0.1482  0.7816
   57MOL   H125 9197   4.395   5.238   2.979  1.1623  0.0476  0.3708
   57MOL   H126 9198   4.449   5.358   2.856  0.8349 -1.3597  0.5756
   57MOL   H127 9199   4.484   5.418   3.151  0.2725  3.5171 -1.2758
   57MOL   H128 9200   4.589   5.240   3.095 -1.3208  0.5378  0.7509
   57MOL   H129 9201   4.696   5.359   3.110  1.5200 -1.0447 -0.6741
   57MOL   C130 9202   4.559   5.549   3.005  0.8426 -0.2221  0.2521
   57MOL   C131 9203   4.529   5.662   3.102 -0.4154 -0.2581  0.9873
   57MOL   N132 9204   4.604   5.773   3.038 -0.6093  0.3352  0.2919
   57MOL   H133 9205   4.667   5.541   2.993  0.7696 -1.2145  0.1695
   57MOL   H134 9206   4.507   5.573   2.912 -1.0810  2.3600  1.9396
   57MOL   H135 9207   4.575   5.651   3.201  0.2772 -2.0959  0.4842
   57MOL   H136 9208   4.697   5.739   3.019 -0.6133 -1.1807  2.7244
   57MOL   H137 9209   4.553   5.776   2.951 -0.4171 -2.1205  0.0383
   57MOL   C138 9210   4.387   5.693   3.136 -0.0183 -0.2042 -0.1205
   57MOL   C139 9211   4.360   5.793   3.250 -0.2745  0.2927 -0.4773
   57MOL   N140 9212   4.391   5.924   3.198 -0.0132 -0.2468  0.0687
   57MOL   H141 9213   4.338   5.715   3.041  0.8456 -1.0060 -0.7630
   57MOL   H142 9214   4.338   5.599   3.162  0.5025 -0.6272 -0.6579
   57MOL   H143 9215   4.428   5.764   3.330 -0.3728  0.1191 -0.4561
   57MOL   H144 9216   4.473   5.906   3.142  0.0533  0.3489 -0.0240
   57MOL   H145 9217   4.317   5.938   3.131  0.2728 -0.5785 -0.3195
   57MOL   C146 9218   4.217   5.800   3.299 -0.7255 -0.0713  0.6263
   57MOL   C147 9219   4.181   5.683   3.390  0.0000  0.5884  0.2105
   57MOL   N148 9220   4.231   5.709   3.522  0.4788 -0.2577  1.2273
   57MOL   H149 9221   4.204   5.888   3.361  0.2227  0.6922 -0.2370
   57MOL   H150 9222   4.150   5.810   3.213  1.8315 -3.1814 -1.8204
   57MOL   H151 9223   4.233   5.595   3.353 -0.7967  0.3198 -0.2817
   57MOL   H152 9224   4.317   5.760   3.515  0.0385  0.1306 -2.2602
   57MOL   H153 9225   4.182   5.784   3.568  0.0030  0.5214 -0.5085
   57MOL   C154 9226   4.026   5.651   3.399  0.9336  0.3735 -0.5159
   57MOL   C155 9227   3.957   5.619   3.261  0.0973  0.2071 -0.2498
   57MOL   N156 9228   3.855   5.523   3.286 -0.4860 -0.1680  0.1757
   57MOL   H157 9229   4.024   5.569   3.471 -3.2355  0.8550  0.0094
   57MOL   H158 9230   3.974   5.733   3.448 -3.1040 -2.0066 -0.5836
   57MOL   H159 9231   4.023   5.577   3.186  0.4140  0.0292  0.1287
   57MOL   H160 9232   3.880   5.426   3.297  1.2399 -0.1855 -3.1932
   57MOL   H161 9233   3.795   5.528   3.205  0.0287 -1.3476 -0.2856
   57MOL   H162 9234   3.912   5.712   3.223  0.6555  1.0942  1.2184
   58MOL     C1 9235   5.586   1.026   0.304  0.6195 -0.2630 -0.3972
   58MOL     C2 9236   5.613   1.147   0.208 -0.1575  0.6700 -0.1462
   58MOL     N3 9237   5.723   1.118   0.112  0.4197 -0.2289  0.2925
   58MOL     H4 9238   5.674   0.989   0.355 -1.8124 -1.4155  3.1783
   58MOL     H5 9239   5.541   0.943   0.249 -0.5161 -0.0074  0.1123
   58MOL     H6 9240   5.649   1.231   0.267 -2.6051  0.1450  2.2303
   58MOL     H7 9241   5.738   1.207   0.066 -3.7349 -0.0086 -0.8545
   58MOL     H8 9242   5.679   1.063   0.039  0.0164 -0.7200  0.9012
   58MOL     H9 9243   5.523   1.060   0.387  2.2231 -0.1509  0.7900
   58MOL    C10 9244   5.490   1.201   0.132 -0.1160  0.1814  0.5281
   58MOL    C11 9245   5.370   1.239   0.222  1.1093  0.7960  0.3278
   58MOL    N12 9246   5.417   1.337   0.327  0.2327  0.4180 -0.1916
   58MOL    H13 9247   5.523   1.288   0.076  1.4743  0.2489  1.5492
   58MOL    H14 9248   5.460   1.135   0.051  0.0619  1.4215 -0.5654
   58MOL    H15 9249   5.343   1.145   0.268 -1.3740  1.9269  1.2426
   58MOL    H16 9250   5.498   1.293   0.367 -0.8623  0.7409  2.4397
   58MOL    H17 9251   5.347   1.320   0.397  0.8445  2.8933  1.0740
   58MOL    C18 9252   5.247   1.299   0.141  0.4121 -0.4806 -0.4116
   58MOL    C19 9253   5.119   1.320   0.214  0.0457  0.3550  0.1467
   58MOL    N20 9254   5.030   1.400   0.137  0.6120 -0.5248  0.5621
   58MOL    H21 9255   5.274   1.395   0.098  1.4814 -0.9525 -0.8156
   58MOL    H22 9256   5.227   1.236   0.054  0.2575 -1.0984  0.0637
   58MOL    H23 9257   5.147   1.380   0.301 -0.9705  0.0461  0.6883
   58MOL    H24 9258   4.945   1.408   0.190 -1.4364 -1.7739 -2.3782
   58MOL    H25 9259   5.065   1.495   0.131  1.0773 -0.7377 -0.2639
   58MOL    C26 9260   5.045   1.187   0.238 -0.6082  0.4946  0.4179
   58MOL    C27 9261   4.898   1.183   0.289  0.6865 -0.5233  0.1989
   58MOL    N28 9262   4.842   1.056   0.255  0.6086  0.6010 -0.2812
   58MOL    H29 9263   5.055   1.117   0.155 -3.9550  0.5970 -0.1102
   58MOL    H30 9264   5.100   1.137   0.317  1.1513  0.7678 -0.6026
   58MOL    H31 9265   4.840   1.254   0.229  2.5108  1.7906  1.0535
   58MOL    H32 9266   4.747   1.075   0.283  0.6886  0.5137  0.0575
   58MOL    H33 9267   4.845   1.037   0.156 -0.3365  0.8525 -0.3586
   58MOL    C34 9268   4.878   1.209   0.444 -0.0630 -0.6583  0.4290
   58MOL    C35 9269   4.740   1.187   0.497 -0.7406 -0.1495 -0.9877
   58MOL    N36 9270   4.737   1.175   0.644  0.1948 -1.6923 -0.5311
   58MOL    H37 9271   4.957   1.157   0.499 -0.0917  0.1039  1.1996
   58MOL    H38 9272   4.894   1.314   0.471  0.6601 -0.7354  0.3237
   58MOL    H39 9273   4.694   1.100   0.449 -0.2216 -1.5349  0.9579
   58MOL    H40 9274   4.644   1.142   0.664  0.0015 -0.3317  0.8740
   58MOL    H41 9275   4.801   1.099   0.666  0.0010 -1.4872  0.7953
   58MOL    C42 9276   4.652   1.305   0.455 -0.2874  0.2498 -0.1059
   58MOL    C43 9277   4.506   1.275   0.425 -0.0069  0.6780  0.6785
   58MOL    N44 9278   4.429   1.397   0.463  0.1323 -0.2309  0.3367
   58MOL    H45 9279   4.652   1.375   0.539 -1.0024  1.7623 -1.3436
   58MOL    H46 9280   4.696   1.358   0.371  0.8263 -2.6068 -1.3963
   58MOL    H47 9281   4.472   1.194   0.491  0.5584 -0.4216 -0.3645
   58MOL    H48 9282   4.335   1.393   0.427  1.1682 -1.8633 -2.3644
   58MOL    H49 9283   4.415   1.380   0.562 -2.0091 -1.0043 -0.0802
   58MOL    C50 9284   4.485   1.242   0.281  0.3094  0.8666  0.1012
   58MOL    C51 9285   4.360   1.157   0.255 -1.1162  0.6572 -0.4330
   58MOL    N52 9286   4.328   1.168   0.120  0.1421  0.2580  0.0916
   58MOL    H53 9287   4.489   1.339   0.232  1.1154  0.4017 -0.7676
   58MOL    H54 9288   4.565   1.189   0.230 -1.8605 -0.4792 -2.0314
   58MOL    H55 9289   4.267   1.189   0.303 -1.8319 -0.1569 -1.2722
   58MOL    H56 9290   4.283   1.254   0.094  0.9005  0.0696 -1.9538
   58MOL    H57 9291   4.269   1.092   0.089  0.3312 -1.0018  2.6930
   58MOL    C58 9292   4.381   1.005   0.284  0.1021 -0.4464  0.8394
   58MOL    C59 9293   4.350   0.951   0.422  1.0418 -0.5483  0.1359
   58MOL    N60 9294   4.203   0.961   0.441 -0.5911 -0.4567 -0.1175
   58MOL    H61 9295   4.315   0.941   0.225  0.2012 -0.1804  0.4418
   58MOL    H62 9296   4.477   0.970   0.247  0.5226  0.6583  0.8620
   58MOL    H63 9297   4.394   0.995   0.512  1.4043  0.9974 -0.7837
   58MOL    H64 9298   4.180   0.962   0.539 -1.3167  0.5449 -0.2907
   58MOL    H65 9299   4.150   1.023   0.381 -4.8364 -2.6521  1.2235
   58MOL    C66 9300   4.378   0.801   0.438 -0.3500  0.5281 -0.3613
   58MOL    C67 9301   4.386   0.759   0.589 -0.6453 -0.6898  0.0068
   58MOL    N68 9302   4.384   0.614   0.593  0.2542  0.2346 -0.0445
   58MOL    H69 9303   4.295   0.747   0.394  0.0208 -0.4311  0.1065
   58MOL    H70 9304   4.474   0.773   0.395 -0.0241 -0.5762  1.0447
   58MOL    H71 9305   4.312   0.807   0.652 -0.2897 -1.8747  1.3454
   58MOL    H72 9306   4.309   0.582   0.652 -0.2906 -0.7445 -1.2503
   58MOL    H73 9307   4.462   0.578   0.646  1.4019  2.4261 -0.1955
   58MOL    C74 9308   4.521   0.791   0.656 -0.3450  0.2167 -0.1334
   58MOL    C75 9309   4.527   0.792   0.808  1.3330  0.5987  0.1733
   58MOL    N76 9310   4.661   0.751   0.847 -0.3909  0.0169 -0.4243
   58MOL    H77 9311   4.595   0.721   0.617  2.4646  1.4052  2.7557
   58MOL    H78 9312   4.551   0.889   0.617  0.3242 -0.0727 -0.3563
   58MOL    H79 9313   4.465   0.708   0.840  1.9482 -0.0943 -0.4488
   58MOL    H80 9314   4.662   0.736   0.947 -0.2770  1.0955 -0.2608
   58MOL    H81 9315   4.692   0.664   0.806  0.4109  0.4739 -0.8139
   58MOL    C82 9316   4.497   0.936   0.877  0.4340  0.1438  0.2852
   58MOL    C83 9317   4.348   0.989   0.854 -0.5853  0.3367 -0.2050
   58MOL    N84 9318   4.248   0.904   0.928 -0.2346 -0.2473  0.1668
   58MOL    H85 9319   4.511   0.924   0.984  2.1987 -0.1722  0.0352
   58MOL    H86 9320   4.579   1.005   0.860  0.7962 -0.1681  0.7707
   58MOL    H87 9321   4.336   0.995   0.746  0.1061  1.1364 -0.2357
   58MOL    H88 9322   4.304   0.831   0.970  1.6385  1.4952  0.7719
   58MOL    H89 9323   4.183   0.862   0.863  1.0501 -0.0039 -1.2794
   58MOL    C90 9324   4.323   1.135   0.902  0.2935  0.0735  0.0553
   58MOL    C91 9325   4.371   1.243   0.809  0.6208  0.4072  0.7275
   58MOL    N92 9326   4.271   1.262   0.707 -0.0528  0.0491 -0.0175
   58MOL    H93 9327   4.217   1.152   0.920  0.6292  1.9938  0.3285
   58MOL    H94 9328   4.380   1.146   0.995  1.1088  2.5055 -0.6891
   58MOL    H95 9329   4.461   1.210   0.757 -0.6230 -0.0390 -1.1996
   58MOL    H96 9330   4.196   1.313   0.752 -0.7300  0.4731 -1.5585
   58MOL    H97 9331   4.231   1.169   0.695 -0.2736  0.3807 -2.0732
   58MOL    C98 9332   4.372   1.381   0.883 -0.0577  0.3247 -0.2174
   58MOL    C99 9333   4.516   1.426   0.926 -0.8644 -0.1042 -0.4764
   58MOL   N100 9334   4.483   1.560   0.975  0.3728 -0.4594 -0.4630
   58MOL   H101 9335   4.339   1.459   0.815 -1.1291  1.1278  1.2155
   58MOL   H102 9336   4.314   1.376   0.975  0.2147  1.7047  0.0342
   58MOL   H103 9337   4.585   1.432   0.842  1.3079  0.2653  1.2619
   58MOL   H104 9338   4.405   1.547   1.038  1.0905  1.0714  0.7654
   58MOL   H105 9339   4.433   1.608   0.901  0.4995 -0.3630 -0.4864
   58MOL   C106 9340   4.576   1.334   1.031 -0.3939  0.0212 -0.2343
   58MOL   C107 9341   4.719   1.373   1.059  0.1088 -0.1876 -0.6255
   58MOL   N108 9342   4.748   1.331   1.196  0.0356 -0.3782 -0.4960
   58MOL   H109 9343   4.514   1.338   1.121  0.9596 -2.2142  0.8341
   58MOL   H110 9344   4.571   1.229   1.002  2.6086  0.3354 -2.1163
   58MOL   H111 9345   4.724   1.482   1.053  1.3734 -0.3412 -3.7403
   58MOL   H112 9346   4.699   1.394   1.258  1.7605  0.6778 -0.1923
   58MOL   H113 9347   4.841   1.354   1.226 -0.6918  0.7924  0.9085
   58MOL   C114 9348   4.828   1.332   0.967 -0.2366  0.3958 -0.3384
   58MOL   C115 9349   4.919   1.204   0.999 -0.1559 -0.4844  0.1696
   58MOL   N116 9350   4.838   1.088   1.014  0.1361  0.3350 -0.5122
   58MOL   H117 9351   4.796   1.331   0.863  0.3470  0.2693 -0.5166
   58MOL   H118 9352   4.902   1.411   0.977  1.0207 -1.0126  2.1666
   58MOL   H119 9353   4.963   1.225   1.097 -0.5715 -1.0315  0.4759
   58MOL   H120 9354   4.772   1.120   1.084  0.2274 -1.3905  0.3816
   58MOL   H121 9355   4.780   1.082   0.931  1.5527 -0.4873 -1.4574
   58MOL   C122 9356   5.029   1.176   0.898 -0.0971 -0.4030  0.3641
   58MOL   C123 9357   5.141   1.276   0.877 -0.3829  0.2949  0.1452
   58MOL   N124 9358   5.176   1.329   1.009  0.1966 -0.9893 -0.0770
   58MOL   H125 9359   5.070   1.079   0.922 -1.6834 -1.1814  0.0026
   58MOL   H126 9360   4.985   1.159   0.800  2.3700 -0.6556 -0.7323
   58MOL   H127 9361   5.097   1.353   0.814 -1.0331 -0.9280 -0.9204
   58MOL   H128 9362   5.099   1.375   1.055  0.3022 -0.2924 -0.5905
   58MOL   H129 9363   5.215   1.265   1.077  0.5369 -1.2939 -0.5547
   58MOL   C130 9364   5.275   1.212   0.834  0.5429  1.1390 -0.2228
   58MOL   C131 9365   5.263   1.146   0.694  0.0501  0.5821  0.1172
   58MOL   N132 9366   5.248   1.247   0.588 -0.0564  0.3260 -0.5235
   58MOL   H133 9367   5.346   1.294   0.826  0.8633  0.7956 -0.9674
   58MOL   H134 9368   5.311   1.145   0.912  1.2912  3.2026  1.2415
   58MOL   H135 9369   5.173   1.085   0.687  0.1593  0.5714 -1.3573
   58MOL   H136 9370   5.154   1.267   0.558 -0.4175  1.0565  1.0833
   58MOL   H137 9371   5.283   1.334   0.624  0.8034 -0.3055  0.2191
   58MOL   C138 9372   5.381   1.031   0.677 -0.4476 -0.7761 -0.0295
   58MOL   C139 9373   5.529   1.065   0.719  0.4549  0.2563 -0.7968
   58MOL   N140 9374   5.615   0.945   0.711  0.2469 -0.4162  0.4656
   58MOL   H141 9375   5.343   0.957   0.747 -1.9162  0.0402  0.0623
   58MOL   H142 9376   5.405   0.986   0.581  2.3725  0.6428 -0.0221
   58MOL   H143 9377   5.514   1.112   0.816  0.1260 -0.7186 -0.3680
   58MOL   H144 9378   5.634   0.927   0.613  0.1899 -0.3815  0.4482
   58MOL   H145 9379   5.704   0.974   0.749  0.3021  0.1098 -0.0475
   58MOL   C146 9380   5.594   1.176   0.631 -1.3293  0.3311 -0.5809
   58MOL   C147 9381   5.701   1.265   0.704  0.3148  0.1261  0.7801
   58MOL   N148 9382   5.764   1.353   0.601  0.7412  0.3914 -0.2744
   58MOL   H149 9383   5.636   1.138   0.538  1.0446  0.5697  0.3653
   58MOL   H150 9384   5.512   1.241   0.601 -1.4925  1.6224  2.5281
   58MOL   H151 9385   5.784   1.202   0.734  1.7090  1.2133 -0.7115
   58MOL   H152 9386   5.833   1.410   0.647  1.2923 -1.7666  1.6437
   58MOL   H153 9387   5.816   1.303   0.530  1.1738  0.0674  0.2719
   58MOL   C154 9388   5.654   1.355   0.818 -0.9251  0.5421  0.0192
   58MOL   C155 9389   5.767   1.428   0.887  1.1535  0.1008 -0.0758
   58MOL   N156 9390   5.727   1.507   0.996  0.7638 -0.5184  0.0758
   58MOL   H157 9391   5.575   1.424   0.786  1.1365  2.6913 -0.5642
   58MOL   H158 9392   5.602   1.297   0.894  2.0893  0.2871  1.9650
   58MOL   H159 9393   5.822   1.496   0.822  4.0684 -3.3401 -1.3316
   58MOL   H160 9394   5.673   1.583   0.957 -0.7818 -1.2835  0.6626
   58MOL   H161 9395   5.806   1.523   1.056  0.0965  1.3391  0.4752
   58MOL   H162 9396   5.853   1.369   0.917  0.1093 -0.8160  1.1872
   59MOL     C1 9397   0.288   4.814   5.863 -0.0182  0.8735 -0.4852
   59MOL     C2 9398   0.309   4.819   5.713  0.8919  0.6572  0.0974
   59MOL     N3 9399   0.367   4.940   5.666  0.0547 -0.3776  0.1280
   59MOL     H4 9400   0.232   4.899   5.903 -0.6864 -0.0314  0.5222
   59MOL     H5 9401   0.382   4.805   5.917 -0.5260 -0.0099  0.2655
   59MOL     H6 9402   0.210   4.802   5.671  2.0655 -0.4130 -2.3973
   59MOL     H7 9403   0.372   4.944   5.566  2.3369  0.1053  0.2219
   59MOL     H8 9404   0.317   5.022   5.698 -1.3506 -1.8431  1.8358
   59MOL     H9 9405   0.234   4.725   5.895  1.0014  0.2816 -0.3623
   59MOL    C10 9406   0.401   4.709   5.656  0.9296  0.2883  0.4044
   59MOL    C11 9407   0.350   4.564   5.677  0.5135  0.3826  0.4259
   59MOL    N12 9408   0.220   4.548   5.607 -0.2338  0.3130  0.6179
   59MOL    H13 9409   0.407   4.720   5.548 -1.0404 -0.2805  0.2171
   59MOL    H14 9410   0.504   4.724   5.691 -0.0184  2.6456  2.3383
   59MOL    H15 9411   0.318   4.549   5.780 -0.4938 -0.0716  0.0552
   59MOL    H16 9412   0.147   4.618   5.605 -2.1866 -1.6518  0.8946
   59MOL    H17 9413   0.169   4.470   5.646  1.4006 -0.1126  1.9598
   59MOL    C18 9414   0.448   4.467   5.617  0.2424  0.8453 -0.0594
   59MOL    C19 9415   0.437   4.325   5.679  0.6924  0.1360  0.1444
   59MOL    N20 9416   0.533   4.245   5.602  0.7792 -0.1250 -0.9581
   59MOL    H21 9417   0.433   4.468   5.509 -0.4396  1.2210  0.0400
   59MOL    H22 9418   0.552   4.498   5.631  0.7402 -0.5217 -0.6734
   59MOL    H23 9419   0.335   4.287   5.665  0.3802  1.3213 -0.8409
   59MOL    H24 9420   0.479   4.164   5.573  1.0692 -1.3978  1.8605
   59MOL    H25 9421   0.549   4.287   5.511  0.9984  0.0124 -0.8565
   59MOL    C26 9422   0.475   4.323   5.830  0.1698  0.1609  0.1840
   59MOL    C27 9423   0.502   4.179   5.888 -0.0615 -0.4522  0.3000
   59MOL    N28 9424   0.533   4.192   6.032 -0.6152 -0.9784 -0.2188
   59MOL    H29 9425   0.565   4.384   5.835  1.3433 -1.5354  0.2103
   59MOL    H30 9426   0.406   4.380   5.892 -0.6818  0.4388 -0.9891
   59MOL    H31 9427   0.585   4.131   5.835 -0.3368 -0.7774  0.1667
   59MOL    H32 9428   0.581   4.108   6.060  0.3192 -1.0091 -1.9051
   59MOL    H33 9429   0.443   4.184   6.079  0.6355 -0.4039  2.3665
   59MOL    C34 9430   0.380   4.078   5.874 -0.6441 -0.1003 -0.6825
   59MOL    C35 9431   0.240   4.128   5.909  0.3536 -0.9813  0.0044
   59MOL    N36 9432   0.139   4.040   5.851 -0.2454 -0.1289  0.0890
   59MOL    H37 9433   0.357   4.039   5.775 -0.2519  0.0028 -0.8160
   59MOL    H38 9434   0.408   3.993   5.937 -1.7159  0.4174  0.5098
   59MOL    H39 9435   0.224   4.231   5.875  2.0952 -0.4255  0.8423
   59MOL    H40 9436   0.053   4.089   5.869  0.0791  0.6917 -0.4954
   59MOL    H41 9437   0.141   3.963   5.916  0.4779  0.0193  0.2561
   59MOL    C42 9438   0.218   4.148   6.062 -0.2166 -0.3595 -0.4066
   59MOL    C43 9439   0.079   4.210   6.095  0.3398 -0.0394 -0.1907
   59MOL    N44 9440   0.038   4.162   6.229 -0.0923 -0.2444  0.0148
   59MOL    H45 9441   0.235   4.056   6.118 -1.5394 -0.2397  0.2167
   59MOL    H46 9442   0.288   4.218   6.107  1.5592 -1.7705 -0.9522
   59MOL    H47 9443   0.003   4.170   6.028  0.5162 -1.4776  0.4455
   59MOL    H48 9444   7.220   4.189   6.255  0.9286  0.2122  3.4449
   59MOL    H49 9445   0.098   4.207   6.297  1.5616 -0.1137 -1.4857
   59MOL    C50 9446   0.081   4.368   6.084 -0.0838  0.2349  0.1728
   59MOL    C51 9447   7.215   4.426   6.053  0.0233  0.8104  1.2351
   59MOL    N52 9448   7.231   4.567   6.057 -0.2352 -0.3078 -0.9812
   59MOL    H53 9449   0.128   4.420   6.168 -2.9620  0.5779  1.6407
   59MOL    H54 9450   0.151   4.394   6.005  0.9379 -1.8181  0.3540
   59MOL    H55 9451   7.142   4.401   6.130  0.2278 -1.2779  0.7731
   59MOL    H56 9452   7.274   4.590   6.146 -1.9438 -1.5004  0.2033
   59MOL    H57 9453   7.139   4.607   6.067 -0.0453 -0.2120  0.5951
   59MOL    C58 9454   7.146   4.385   5.915  0.2758  0.4665 -0.4167
   59MOL    C59 9455   6.990   4.414   5.906 -0.5769  0.3581  0.4648
   59MOL    N60 9456   6.957   4.373   5.769  0.4096 -0.1661  0.6885
   59MOL    H61 9457   7.203   4.434   5.837 -0.8314  0.9783 -0.9205
   59MOL    H62 9458   7.161   4.279   5.898 -0.5482  0.5028 -1.4089
   59MOL    H63 9459   6.961   4.519   5.909  1.5414  0.9590  0.0508
   59MOL    H64 9460   6.857   4.379   5.758  0.3787 -1.1857  0.3454
   59MOL    H65 9461   6.991   4.439   5.701  0.9215 -1.5449 -0.4075
   59MOL    C66 9462   6.909   4.335   6.013  0.4183 -0.0008 -0.5987
   59MOL    C67 9463   6.857   4.425   6.130 -0.4568  0.0678 -0.1978
   59MOL    N68 9464   6.732   4.481   6.074 -0.0786  0.3277 -1.3989
   59MOL    H69 9465   6.823   4.292   5.960 -0.4223  0.4832  0.3480
   59MOL    H70 9466   6.969   4.251   6.048 -0.6356  0.5456  2.6472
   59MOL    H71 9467   6.922   4.507   6.160  1.3827 -1.4178  0.0200
   59MOL    H72 9468   6.749   4.556   6.009 -2.2957  0.6902 -1.5945
   59MOL    H73 9469   6.702   4.539   6.151 -1.4437  0.6964 -2.1890
   59MOL    C74 9470   6.818   4.333   6.251 -0.3014  0.4037  1.1850
   59MOL    C75 9471   6.940   4.311   6.348 -0.3883  0.5832 -0.0191
   59MOL    N76 9472   6.928   4.421   6.437  0.0230 -0.2246 -0.5325
   59MOL    H77 9473   6.733   4.369   6.309 -1.3108 -2.9530  1.8963
   59MOL    H78 9474   6.786   4.241   6.203  0.3731  1.4937 -1.4849
   59MOL    H79 9475   7.033   4.301   6.293 -0.3817  0.2813  0.0432
   59MOL    H80 9476   7.000   4.426   6.507 -0.0128  1.5358 -0.6081
   59MOL    H81 9477   6.836   4.422   6.478  0.8700  1.2587  1.3780
   59MOL    C82 9478   6.943   4.178   6.427 -0.0071  0.2844 -0.5665
   59MOL    C83 9479   6.977   4.057   6.328  0.7396  0.4676  0.0562
   59MOL    N84 9480   7.101   3.995   6.362 -0.4282  0.3147  0.5853
   59MOL    H85 9481   7.027   4.192   6.496  0.1663  0.1518 -0.7518
   59MOL    H86 9482   6.859   4.163   6.495  0.9937  4.1262  1.6795
   59MOL    H87 9483   6.974   4.088   6.223 -2.1661  0.4084  0.1061
   59MOL    H88 9484   7.087   3.905   6.405  0.4808  0.8136  1.9947
   59MOL    H89 9485   7.160   3.982   6.281 -0.7284 -1.0417  0.5829
   59MOL    C90 9486   6.882   3.945   6.345 -0.0642 -0.1765 -0.4105
   59MOL    C91 9487   6.735   3.959   6.284 -0.1915 -0.5271 -0.2886
   59MOL    N92 9488   6.769   3.973   6.141 -0.6775  0.6514  0.0300
   59MOL    H93 9489   6.923   3.849   6.313 -2.4118 -0.6094 -2.3162
   59MOL    H94 9490   6.866   3.940   6.453 -0.8221 -0.3632 -0.5284
   59MOL    H95 9491   6.694   4.051   6.327 -0.0526 -0.5355 -0.1385
   59MOL    H96 9492   6.695   4.025   6.096 -0.7702 -2.0019 -3.0439
   59MOL    H97 9493   6.850   4.034   6.143  1.7506 -2.4293 -0.8858
   59MOL    C98 9494   6.636   3.846   6.309 -0.0004  0.3747  0.4649
   59MOL    C99 9495   6.491   3.877   6.270 -0.0370 -0.2428  0.1880
   59MOL   N100 9496   6.469   3.837   6.132  0.0734 -0.3767 -0.0153
   59MOL   H101 9497   6.670   3.749   6.275 -0.2298  0.2000  0.7291
   59MOL   H102 9498   6.624   3.828   6.416 -2.2938  0.0884  0.1809
   59MOL   H103 9499   6.471   3.984   6.270 -0.4112 -0.3097 -0.0378
   59MOL   H104 9500   6.384   3.875   6.094 -0.6122 -2.1589 -0.3185
   59MOL   H105 9501   6.536   3.886   6.075 -2.0023  1.5676 -0.8286
   59MOL   C106 9502   6.382   3.805   6.353 -0.3100  0.3091  0.4488
   59MOL   C107 9503   6.331   3.889   6.476  0.0043  0.0458  0.0728
   59MOL   N108 9504   6.211   3.832   6.537  0.0839  0.0838  0.2113
   59MOL   H109 9505   6.294   3.801   6.289 -2.2333  0.1952  2.9970
   59MOL   H110 9506   6.403   3.701   6.378 -3.1817 -0.7172 -1.1830
   59MOL   H111 9507   6.306   3.983   6.427 -0.6435 -0.7545 -1.1711
   59MOL   H112 9508   6.231   3.735   6.555 -3.6531 -1.0662 -1.2849
   59MOL   H113 9509   6.129   3.832   6.477 -0.0760 -1.4352  0.4003
   59MOL   C114 9510   6.435   3.918   6.589 -0.5919 -0.2157 -0.0045
   59MOL   C115 9511   6.380   4.015   6.704  0.3803  0.2673 -0.0680
   59MOL   N116 9512   6.472   3.988   6.810 -0.0847 -0.4817  0.1721
   59MOL   H117 9513   6.449   3.821   6.638  1.9683 -0.9929 -2.1659
   59MOL   H118 9514   6.527   3.968   6.559 -0.6606  1.2171  2.0873
   59MOL   H119 9515   6.292   3.955   6.727  0.3804  0.0361 -0.6547
   59MOL   H120 9516   6.441   3.908   6.864 -2.2412  0.3101  0.1320
   59MOL   H121 9517   6.556   3.948   6.771  0.2184 -0.0763  0.4100
   59MOL   C122 9518   6.362   4.166   6.673 -1.1552 -0.3723  0.0724
   59MOL   C123 9519   6.234   4.212   6.603  0.1311 -0.8540 -0.2658
   59MOL   N124 9520   6.128   4.220   6.709  0.1858 -0.1468  0.0703
   59MOL   H125 9521   6.379   4.225   6.763 -1.1295  0.8210 -0.6966
   59MOL   H126 9522   6.445   4.187   6.606  0.8804 -1.5947  2.1633
   59MOL   H127 9523   6.198   4.143   6.526 -0.3517 -0.5161 -0.3462
   59MOL   H128 9524   6.045   4.246   6.659  1.6728 -1.2909 -3.1166
   59MOL   H129 9525   6.116   4.126   6.744 -0.1292 -0.5837 -1.1741
   59MOL   C130 9526   6.239   4.351   6.534 -0.1341 -0.1851  0.5380
   59MOL   C131 9527   6.321   4.379   6.405  0.4062  0.5344 -0.2714
   59MOL   N132 9528   6.454   4.395   6.446 -0.0764  0.2122  0.3150
   59MOL   H133 9529   6.139   4.382   6.506  0.9160  1.6714 -1.3772
   59MOL   H134 9530   6.263   4.429   6.606  2.3624 -1.1060  0.7619
   59MOL   H135 9531   6.278   4.468   6.359  0.3413  1.5095  1.6192
   59MOL   H136 9532   6.464   4.345   6.533  1.3028 -0.2840 -0.1163
   59MOL   H137 9533   6.473   4.489   6.477 -0.6664  0.4671 -0.0866
   59MOL   C138 9534   6.318   4.262   6.309 -0.3447 -0.1942 -0.2331
   59MOL   C139 9535   6.371   4.304   6.170  0.4742  0.2223  0.5809
   59MOL   N140 9536   6.510   4.252   6.161  0.7251  0.2663  0.3745
   59MOL   H141 9537   6.380   4.182   6.348  1.3014  0.0669 -2.2245
   59MOL   H142 9538   6.214   4.232   6.297 -1.0246  1.9246  0.1571
   59MOL   H143 9539   6.372   4.411   6.150  1.7593  0.3442  1.2035
   59MOL   H144 9540   6.541   4.255   6.257  3.3822  0.7385 -0.4561
   59MOL   H145 9541   6.565   4.324   6.117 -0.4064 -1.3471 -3.9496
   59MOL   C146 9542   6.267   4.246   6.065 -0.1401  0.2941  0.3508
   59MOL   C147 9543   6.127   4.309   6.059 -0.4168 -1.0127  0.6719
   59MOL   N148 9544   6.101   4.408   5.957  0.4245  0.1807  0.6638
   59MOL   H149 9545   6.304   4.259   5.963 -0.6375  1.2253  0.2790
   59MOL   H150 9546   6.266   4.137   6.066  0.7154  0.2423 -1.6936
   59MOL   H151 9547   6.117   4.373   6.147  1.5510 -0.2530  0.3635
   59MOL   H152 9548   6.169   4.482   5.971  0.1212  0.3886  1.0120
   59MOL   H153 9549   6.014   4.447   5.989  1.3433  0.3768  2.9886
   59MOL   C154 9550   6.019   4.197   6.051  0.1072  0.0616  0.2506
   59MOL   C155 9551   5.874   4.243   6.044 -0.6871  0.4078  0.6768
   59MOL   N156 9552   5.791   4.127   6.010 -0.6164 -0.5941 -0.1894
   59MOL   H157 9553   6.024   4.127   5.967 -1.2651 -0.0079  0.2070
   59MOL   H158 9554   6.027   4.148   6.148  1.8772  1.4648  0.8323
   59MOL   H159 9555   5.866   4.309   5.957 -0.9665 -1.1957 -0.5289
   59MOL   H160 9556   5.698   4.151   5.979  0.9708  1.4543 -3.5776
   59MOL   H161 9557   5.838   4.087   5.931  0.3090  0.5410 -0.2276
   59MOL   H162 9558   5.857   4.301   6.135  3.7631  1.9098  0.7006
   60MOL     C1 9559   6.378   1.761   5.974  0.0932  0.0010  0.3329
   60MOL     C2 9560   6.480   1.684   5.890  1.0543  0.2096  1.0401
   60MOL     N3 9561   6.419   1.641   5.767 -0.0570 -0.2156  0.6885
   60MOL     H4 9562   6.412   1.777   6.076 -0.9158  1.8786  0.4074
   60MOL     H5 9563   6.285   1.705   5.980  0.2742 -0.2736  0.5951
   60MOL     H6 9564   6.490   1.590   5.943  1.0889 -0.7115 -0.5745
   60MOL     H7 9565   6.325   1.609   5.786 -0.3817 -0.4341 -1.2364
   60MOL     H8 9566   6.401   1.728   5.719 -0.8623 -1.5691 -1.5354
   60MOL     H9 9567   6.349   1.857   5.931 -1.4007 -0.6753 -0.2119
   60MOL    C10 9568   6.616   1.756   5.885 -0.1067  0.2166 -0.2661
   60MOL    C11 9569   6.682   1.796   6.023  0.9770 -0.3129  0.3695
   60MOL    N12 9570   6.711   1.683   6.108 -0.1119  0.5642  0.5074
   60MOL    H13 9571   6.696   1.695   5.843  0.1030  1.2730 -1.4403
   60MOL    H14 9572   6.607   1.839   5.814 -0.8902 -1.5300 -2.2720
   60MOL    H15 9573   6.613   1.861   6.078 -2.4090 -1.8864 -1.8595
   60MOL    H16 9574   6.633   1.620   6.118  0.3354  0.2001  1.8059
   60MOL    H17 9575   6.777   1.633   6.050  0.4056  1.7670  0.0324
   60MOL    C18 9576   6.816   1.881   6.005 -0.5581  0.7470 -0.0742
   60MOL    C19 9577   6.798   2.019   5.940 -0.4674 -0.0433  0.1653
   60MOL    N20 9578   6.706   2.088   6.024  0.2222 -0.2203  0.8308
   60MOL    H21 9579   6.857   1.886   6.106 -2.9911 -1.3064  1.0710
   60MOL    H22 9580   6.886   1.817   5.952  1.1572  1.8872  0.7498
   60MOL    H23 9581   6.767   2.009   5.836  1.7715 -1.6705 -0.3819
   60MOL    H24 9582   6.739   2.180   6.049  0.9403 -1.0325  2.9363
   60MOL    H25 9583   6.626   2.111   5.966 -1.2176 -2.1377  2.0007
   60MOL    C26 9584   6.929   2.102   5.925  0.3394  0.4199 -0.0873
   60MOL    C27 9585   6.928   2.209   5.818 -0.0436 -0.8940  0.2220
   60MOL    N28 9586   6.867   2.338   5.866 -0.2498  0.3506 -0.4758
   60MOL    H29 9587   6.960   2.142   6.022  1.2070  0.0766 -0.2202
   60MOL    H30 9588   7.009   2.031   5.904 -0.9281 -1.0505 -0.0120
   60MOL    H31 9589   6.879   2.170   5.728  0.7841 -0.2483 -0.5197
   60MOL    H32 9590   6.911   2.365   5.952 -0.6084 -1.4016  0.2702
   60MOL    H33 9591   6.904   2.398   5.794  0.0052 -0.0037 -0.6424
   60MOL    C34 9592   7.068   2.234   5.774  0.1427  0.7253  0.0104
   60MOL    C35 9593   7.083   2.303   5.631  0.1235 -0.3389 -0.8519
   60MOL    N36 9594   7.020   2.436   5.635  0.5577  0.5248 -0.7073
   60MOL    H37 9595   7.114   2.297   5.850 -1.7526 -0.2497  2.0134
   60MOL    H38 9596   7.126   2.141   5.780  0.7888  1.1760  0.8071
   60MOL    H39 9597   7.026   2.254   5.552  0.5709 -0.1139 -1.3225
   60MOL    H40 9598   7.016   2.487   5.548 -0.6359 -2.4434 -2.4878
   60MOL    H41 9599   7.077   2.495   5.694  2.2289 -0.4595 -1.3018
   60MOL    C42 9600   7.226   2.308   5.579 -0.1042  0.3472 -0.6332
   60MOL    C43 9601   0.007   2.168   5.541  0.6078  0.7524  0.4844
   60MOL    N44 9602   7.238   2.140   5.407  0.0668  0.3742  0.4920
   60MOL    H45 9603   7.237   2.383   5.501 -0.6700 -0.5716 -1.6135
   60MOL    H46 9604   0.009   2.339   5.665 -0.3161 -1.4922  0.1927
   60MOL    H47 9605   7.265   2.093   5.618  0.5362  0.5204  0.2431
   60MOL    H48 9606   7.137   2.141   5.407  0.0484 -0.5861 -0.2515
   60MOL    H49 9607   7.262   2.043   5.391  0.7564  0.1684  2.6290
   60MOL    C50 9608   0.150   2.176   5.533 -0.2305 -1.1991 -0.0221
   60MOL    C51 9609   0.243   2.172   5.663  0.9857  0.5091 -0.4492
   60MOL    N52 9610   0.238   2.037   5.716  0.2125  0.3367 -0.5122
   60MOL    H53 9611   0.187   2.092   5.475 -2.7204 -1.1874 -1.7028
   60MOL    H54 9612   0.177   2.262   5.471  1.5282 -1.7212 -0.0016
   60MOL    H55 9613   0.217   2.242   5.742 -2.1010 -1.2342  0.1413
   60MOL    H56 9614   0.231   1.981   5.632  0.5296 -0.1911 -0.1906
   60MOL    H57 9615   0.328   2.015   5.757  0.5510  0.7961 -1.0011
   60MOL    C58 9616   0.392   2.203   5.619  0.4103  0.5117  0.1741
   60MOL    C59 9617   0.459   2.314   5.708  0.7925 -0.4656  1.0590
   60MOL    N60 9618   0.596   2.320   5.697  0.3547 -0.1659 -0.4266
   60MOL    H61 9619   0.455   2.114   5.611 -0.2356 -0.2999  3.5439
   60MOL    H62 9620   0.391   2.241   5.517 -0.8847 -2.0535 -0.8132
   60MOL    H63 9621   0.425   2.300   5.811  1.8976 -1.7574  1.2668
   60MOL    H64 9622   0.637   2.230   5.718  0.2466 -0.4810 -1.5298
   60MOL    H65 9623   0.630   2.392   5.760 -0.4612 -0.9463  0.9322
   60MOL    C66 9624   0.415   2.458   5.672 -0.0883  0.0048  1.1577
   60MOL    C67 9625   0.270   2.494   5.704 -0.3920  0.4059 -0.4064
   60MOL    N68 9626   0.237   2.511   5.851 -0.6215  0.4581  0.8440
   60MOL    H69 9627   0.479   2.531   5.722  1.1040 -0.2131 -0.0287
   60MOL    H70 9628   0.435   2.477   5.567  0.9999 -1.0657  1.1656
   60MOL    H71 9629   0.211   2.411   5.667 -0.1000 -0.5859  1.2814
   60MOL    H72 9630   0.326   2.512   5.898 -0.9336  0.8645  1.4262
   60MOL    H73 9631   0.190   2.425   5.877  2.9944 -2.1038 -0.7461
   60MOL    C74 9632   0.221   2.630   5.642  0.7182  0.5290 -0.3395
   60MOL    C75 9633   0.208   2.634   5.490 -0.1153  1.1826  0.3785
   60MOL    N76 9634   0.076   2.674   5.448 -0.1943 -0.2582  0.1455
   60MOL    H77 9635   0.126   2.652   5.692 -0.2121  0.9553 -2.2524
   60MOL    H78 9636   0.296   2.702   5.677 -0.8990  1.2787  1.7187
   60MOL    H79 9637   0.210   2.531   5.453  1.7517  1.7199 -1.0694
   60MOL    H80 9638   0.064   2.769   5.416 -2.7869 -0.5497  0.1729
   60MOL    H81 9639   0.064   2.625   5.360 -1.2113  0.6500 -0.2272
   60MOL    C82 9640   0.317   2.729   5.420  0.4170  0.4236  0.2529
   60MOL    C83 9641   0.352   2.706   5.276 -0.1114 -0.3044  0.0519
   60MOL    N84 9642   0.375   2.837   5.210 -0.3410  0.1122 -0.5331
   60MOL    H85 9643   0.288   2.832   5.444 -0.7347  0.2166 -0.1858
   60MOL    H86 9644   0.407   2.719   5.480 -0.4221  0.7611  1.5784
   60MOL    H87 9645   0.273   2.659   5.216  1.7825 -2.0586 -1.1442
   60MOL    H88 9646   0.415   2.908   5.269  1.2622  0.1424 -1.5990
   60MOL    H89 9647   0.419   2.844   5.119  0.5482  1.3074 -0.0344
   60MOL    C90 9648   0.480   2.618   5.259 -0.3280 -0.0230 -0.0250
   60MOL    C91 9649   0.462   2.514   5.141  0.4584 -0.1810 -0.0280
   60MOL    N92 9650   0.592   2.458   5.107 -0.3473  0.0896 -0.0029
   60MOL    H93 9651   0.571   2.677   5.254 -0.0886 -0.1419  2.4565
   60MOL    H94 9652   0.497   2.555   5.347  2.8600 -0.5420 -0.9567
   60MOL    H95 9653   0.421   2.570   5.057  2.2436  0.0518 -0.7692
   60MOL    H96 9654   0.591   2.387   5.036  0.1962  0.0048  0.0732
   60MOL    H97 9655   0.647   2.527   5.057 -0.8814  1.1763  0.8663
   60MOL    C98 9656   0.371   2.401   5.186 -0.3219 -0.2601  0.4282
   60MOL    C99 9657   0.291   2.335   5.071  0.8729 -0.4414  0.3500
   60MOL   N100 9658   0.378   2.244   4.996 -0.0734 -0.6038 -0.3274
   60MOL   H101 9659   0.427   2.330   5.246 -2.2786 -0.6694  1.8233
   60MOL   H102 9660   0.306   2.443   5.263 -0.1487  1.6932 -0.4572
   60MOL   H103 9661   0.266   2.399   4.986  0.0447 -0.9349  0.2207
   60MOL   H104 9662   0.452   2.300   4.957  0.4619  1.5200  3.4759
   60MOL   H105 9663   0.335   2.202   4.915  1.6187  0.3701 -1.7547
   60MOL   C106 9664   0.175   2.246   5.117  0.2471 -0.2868  0.4942
   60MOL   C107 9665   0.030   2.306   5.122  0.1833  0.3402  0.4013
   60MOL   N108 9666   0.021   2.398   5.228 -0.0648  0.2816 -0.4915
   60MOL   H109 9667   0.159   2.149   5.071  1.0026 -0.0856 -0.1886
   60MOL   H110 9668   0.197   2.210   5.217  1.6340 -1.7061 -0.3145
   60MOL   H111 9669   7.234   2.231   5.153 -2.4362  1.9324 -1.5883
   60MOL   H112 9670   7.199   2.410   5.248 -0.0528 -4.1608  3.2632
   60MOL   H113 9671   0.042   2.339   5.308 -0.4539  0.6317 -0.1367
   60MOL   C114 9672   7.260   2.381   4.991 -0.0867  0.1342 -0.2440
   60MOL   C115 9673   7.275   2.301   4.854  0.0971  0.8858 -0.5540
   60MOL   N116 9674   7.194   2.171   4.858 -0.7898 -0.1157  0.1052
   60MOL   H117 9675   7.156   2.404   5.015  0.3926 -0.3101  2.3855
   60MOL   H118 9676   0.041   2.474   4.993  2.4755 -1.3891  1.0736
   60MOL   H119 9677   0.102   2.268   4.841  0.2519  1.2436 -0.2495
   60MOL   H120 9678   7.215   2.125   4.770  0.9533 -0.7849  0.8562
   60MOL   H121 9679   7.245   2.108   4.918  0.1892  0.2470 -0.3443
   60MOL   C122 9680   7.231   2.388   4.731 -0.0899 -0.8191 -0.4744
   60MOL   C123 9681   7.232   2.318   4.593 -0.7766  0.6809  0.5710
   60MOL   N124 9682   7.182   2.406   4.488 -0.4876  0.1903  0.5978
   60MOL   H125 9683   7.128   2.418   4.747 -0.1297 -1.3658  0.3187
   60MOL   H126 9684   0.010   2.483   4.731 -0.2262 -0.6968  1.8274
   60MOL   H127 9685   7.162   2.236   4.608  0.6517 -0.4039  1.5432
   60MOL   H128 9686   7.229   2.380   4.403 -0.2337  0.7302  0.5656
   60MOL   H129 9687   7.220   2.496   4.515  2.0740 -0.4511 -0.7647
   60MOL   C130 9688   0.096   2.265   4.558 -0.4370  0.2025  0.8611
   60MOL   C131 9689   0.101   2.178   4.434 -0.8615  0.0494  0.6601
   60MOL   N132 9690   0.136   2.273   4.328  0.1267 -0.3477  0.0779
   60MOL   H133 9691   0.172   2.343   4.560 -1.0098  0.8370 -1.0218
   60MOL   H134 9692   0.129   2.198   4.638  0.0557  0.5318  0.9396
   60MOL   H135 9693   0.014   2.114   4.417  1.5121 -2.9025 -0.8835
   60MOL   H136 9694   0.151   2.205   4.256 -0.9409 -1.2767  0.7120
   60MOL   H137 9695   0.064   2.331   4.285  0.5504  0.1626  0.0524
   60MOL   C138 9696   0.217   2.071   4.436  0.5259 -0.5853  0.2118
   60MOL   C139 9697   0.181   1.942   4.512  0.1635 -0.4118 -0.9151
   60MOL   N140 9698   0.124   1.851   4.419 -0.3987 -0.0028  0.4182
   60MOL   H141 9699   0.262   2.042   4.341 -1.5808  1.3483 -1.4419
   60MOL   H142 9700   0.291   2.125   4.495  0.1204 -1.1210  1.2185
   60MOL   H143 9701   0.100   1.962   4.582 -0.3047 -1.6739 -1.0700
   60MOL   H144 9702   0.192   1.811   4.355 -0.5342  2.5427 -1.4270
   60MOL   H145 9703   0.060   1.897   4.355 -0.3334  1.9359  1.7215
   60MOL   C146 9704   0.295   1.870   4.577 -0.0828 -0.3922 -0.0899
   60MOL   C147 9705   0.382   1.949   4.685  0.3648  0.5405 -0.1016
   60MOL   N148 9706   0.301   1.954   4.802  0.1373 -0.4695  0.5137
   60MOL   H149 9707   0.269   1.780   4.633 -1.2488 -0.6743 -1.0658
   60MOL   H150 9708   0.362   1.836   4.498 -1.5331  1.5596 -2.2129
   60MOL   H151 9709   0.404   2.052   4.656  2.5250  0.2912  0.5692
   60MOL   H152 9710   0.346   1.952   4.892  0.3424 -1.0363  0.4031
   60MOL   H153 9711   0.261   1.863   4.821 -1.0828 -0.1356 -0.3847
   60MOL   C154 9712   0.520   1.901   4.719  0.8474 -0.1570  0.4902
   60MOL   C155 9713   0.538   1.752   4.704 -0.0637 -0.0886  0.7009
   60MOL   N156 9714   0.660   1.700   4.753  0.4207  0.3433  0.1457
   60MOL   H157 9715   0.588   1.954   4.652  0.2564  1.3491  1.0425
   60MOL   H158 9716   0.552   1.940   4.816 -2.9354 -0.4076  1.9435
   60MOL   H159 9717   0.535   1.726   4.599  0.0279 -1.0529  0.9325
   60MOL   H160 9718   0.649   1.600   4.764 -0.7721  0.1390 -2.5514
   60MOL   H161 9719   0.674   1.735   4.847 -0.3857 -0.2984  0.5097
   60MOL   H162 9720   0.453   1.701   4.750 -0.8674  1.7798  1.3365
   61MOL     C1 9721   2.009   3.478   5.019 -0.5439 -0.2046  0.9166
   61MOL     C2 9722   1.861   3.453   5.034 -0.1573  0.5018 -0.4900
   61MOL     N3 9723   1.829   3.435   5.176  0.2349  0.1455 -0.3969
   61MOL     H4 9724   2.059   3.384   5.045  0.1953  0.1867  0.9315
   61MOL     H5 9725   2.044   3.550   5.092  0.9039 -0.2673  0.3019
   61MOL     H6 9726   1.850   3.353   4.990  1.5612  0.2928 -0.4793
   61MOL     H7 9727   1.823   3.524   5.224  0.6634 -0.0098 -0.0502
   61MOL     H8 9728   1.894   3.376   5.227 -1.1134  0.8869  2.3062
   61MOL     H9 9729   2.028   3.516   4.918 -0.6119 -0.1846  0.9104
   61MOL    C10 9730   1.775   3.566   4.970 -0.3251  0.0679 -0.0972
   61MOL    C11 9731   1.729   3.532   4.828  0.0777  0.5208  0.3838
   61MOL    N12 9732   1.636   3.641   4.793  0.1907 -0.2467  0.7387
   61MOL    H13 9733   1.684   3.580   5.028 -0.4793 -0.1710 -0.2811
   61MOL    H14 9734   1.836   3.656   4.977  2.1962 -1.3730 -2.0578
   61MOL    H15 9735   1.670   3.442   4.846  0.5310  0.3573  1.0384
   61MOL    H16 9736   1.563   3.621   4.860  0.9179 -2.4002  0.9200
   61MOL    H17 9737   1.594   3.627   4.702 -0.1121  0.9163  0.6955
   61MOL    C18 9738   1.838   3.515   4.722 -0.2783  0.0884  0.5721
   61MOL    C19 9739   1.905   3.378   4.706  0.3932  0.2873  0.6702
   61MOL    N20 9740   1.805   3.269   4.684 -0.7085  0.2312 -0.8263
   61MOL    H21 9741   1.799   3.544   4.624  1.1058  0.2247  0.0536
   61MOL    H22 9742   1.918   3.587   4.737 -0.1826  0.3054 -0.8746
   61MOL    H23 9743   1.948   3.351   4.803 -0.8451 -1.6776  0.6886
   61MOL    H24 9744   1.727   3.271   4.748 -1.0264  0.9391 -1.2178
   61MOL    H25 9745   1.849   3.181   4.703 -1.9722 -0.1161  0.5997
   61MOL    C26 9746   2.010   3.364   4.590  0.1055  0.2785 -0.2957
   61MOL    C27 9747   2.137   3.447   4.618  0.3586 -0.3042 -0.1239
   61MOL    N28 9748   2.243   3.360   4.646  0.5306 -0.2362 -0.0756
   61MOL    H29 9749   2.034   3.259   4.570  1.7155  0.7930 -1.1978
   61MOL    H30 9750   1.973   3.406   4.496  1.4644  0.3123 -0.8279
   61MOL    H31 9751   2.112   3.495   4.712 -1.4782 -1.4874  0.0217
   61MOL    H32 9752   2.235   3.281   4.584  2.4639 -0.2106 -0.4037
   61MOL    H33 9753   2.252   3.312   4.735 -1.5239 -0.4186  0.0493
   61MOL    C34 9754   2.181   3.548   4.502  1.3841 -0.6442  0.1677
   61MOL    C35 9755   2.259   3.666   4.548 -0.6073  0.1519 -0.1609
   61MOL    N36 9756   2.358   3.721   4.452  0.0188 -0.2948 -0.2187
   61MOL    H37 9757   2.253   3.508   4.431 -0.5028 -2.3448 -0.8363
   61MOL    H38 9758   2.099   3.587   4.441 -0.5087 -0.5524  2.6849
   61MOL    H39 9759   2.317   3.639   4.637  0.3842  0.9698 -0.5458
   61MOL    H40 9760   2.422   3.778   4.505 -1.1779 -1.4810  2.6200
   61MOL    H41 9761   2.317   3.782   4.382 -2.6002 -1.4806  0.2014
   61MOL    C42 9762   2.157   3.771   4.591 -0.5764  0.1721  0.4853
   61MOL    C43 9763   2.203   3.872   4.700 -0.5331  0.8119 -0.0328
   61MOL    N44 9764   2.135   3.997   4.681  0.1404 -0.5085 -0.0356
   61MOL    H45 9765   2.114   3.816   4.502  3.3068  2.5632 -0.3281
   61MOL    H46 9766   2.072   3.716   4.631  1.5872 -1.5600  2.9826
   61MOL    H47 9767   2.310   3.893   4.693 -0.4413  0.4964  0.4350
   61MOL    H48 9768   2.035   3.982   4.681 -0.1946  1.5731 -0.5120
   61MOL    H49 9769   2.153   4.006   4.582  0.7647 -0.3472  0.0885
   61MOL    C50 9770   2.167   3.821   4.844 -0.2652  0.2436  0.0640
   61MOL    C51 9771   2.242   3.897   4.951 -0.6280  0.0151 -0.0085
   61MOL    N52 9772   2.160   3.982   5.039 -0.3668  0.2999 -0.2178
   61MOL    H53 9773   2.058   3.825   4.848 -0.4290 -1.0903 -2.1683
   61MOL    H54 9774   2.179   3.712   4.848 -0.6394  0.2144  0.4210
   61MOL    H55 9775   2.306   3.974   4.909  2.4632 -0.9107  2.8349
   61MOL    H56 9776   2.111   3.927   5.108 -2.1879  3.7806  1.3685
   61MOL    H57 9777   2.098   4.039   4.984 -1.0010 -0.7193 -0.5793
   61MOL    C58 9778   2.320   3.806   5.038 -0.0865  0.5686 -0.5066
   61MOL    C59 9779   2.440   3.744   4.961 -0.5087  0.2139 -0.2781
   61MOL    N60 9780   2.559   3.831   4.974 -0.6254 -0.2077  0.1141
   61MOL    H61 9781   2.355   3.862   5.125  0.7990 -1.5398  0.5147
   61MOL    H62 9782   2.253   3.728   5.072 -3.3663  3.0600 -0.9655
   61MOL    H63 9783   2.411   3.726   4.857 -2.5988  1.4712  0.0544
   61MOL    H64 9784   2.633   3.782   4.925  0.5918  0.5143  1.2064
   61MOL    H65 9785   2.553   3.914   4.917  2.8109 -0.1761 -0.3151
   61MOL    C66 9786   2.472   3.609   5.042 -0.4054 -0.7695 -0.6423
   61MOL    C67 9787   2.577   3.516   4.976  0.6383 -0.4771 -0.1067
   61MOL    N68 9788   2.602   3.404   5.067  0.4227  0.1114  0.2130
   61MOL    H69 9789   2.502   3.633   5.144 -1.4140 -0.7259 -0.3503
   61MOL    H70 9790   2.384   3.546   5.053  0.0587 -1.1621  1.0236
   61MOL    H71 9791   2.678   3.554   4.961  1.3319 -2.0412  0.4913
   61MOL    H72 9792   2.643   3.436   5.154 -1.2970 -1.5210  1.6483
   61MOL    H73 9793   2.518   3.358   5.098  0.6819 -1.1866 -0.9675
   61MOL    C74 9794   2.521   3.470   4.838  0.0318  0.5103 -0.0056
   61MOL    C75 9795   2.614   3.369   4.768 -0.8182 -0.6793 -0.2854
   61MOL    N76 9796   2.561   3.338   4.638  0.3170  0.4150 -0.6101
   61MOL    H77 9797   2.424   3.421   4.850  0.8827 -1.6470 -1.4345
   61MOL    H78 9798   2.503   3.550   4.767  1.6138 -1.6596 -3.0048
   61MOL    H79 9799   2.610   3.276   4.824 -1.6398 -0.2448  0.3933
   61MOL    H80 9800   2.462   3.319   4.646 -0.0679  3.0767  1.6622
   61MOL    H81 9801   2.552   3.427   4.591 -2.6029  1.0061  0.9272
   61MOL    C82 9802   2.764   3.415   4.757  0.8984 -0.1858  0.1789
   61MOL    C83 9803   2.865   3.334   4.673  0.0501  0.3712 -0.9324
   61MOL    N84 9804   2.988   3.414   4.643  0.5800 -0.0894  0.2679
   61MOL    H85 9805   2.770   3.511   4.705 -1.1181 -1.8173 -3.3050
   61MOL    H86 9806   2.806   3.428   4.856  0.0191 -0.1964  0.5532
   61MOL    H87 9807   2.820   3.312   4.576 -1.3240 -1.6137  0.1335
   61MOL    H88 9808   3.044   3.341   4.601 -0.0789 -0.7495  0.5286
   61MOL    H89 9809   2.961   3.462   4.558  0.7545  0.3971  0.4820
   61MOL    C90 9810   2.917   3.210   4.744  0.3438 -0.1783  0.1302
   61MOL    C91 9811   2.803   3.106   4.763  0.6896 -0.6526  0.6143
   61MOL    N92 9812   2.726   3.092   4.641  0.2867  0.2919  0.3676
   61MOL    H93 9813   3.007   3.167   4.699  0.0924 -1.1962  0.5746
   61MOL    H94 9814   2.957   3.241   4.840  1.3710 -1.1720  0.0331
   61MOL    H95 9815   2.740   3.146   4.842  1.3996 -0.7434  1.2305
   61MOL    H96 9816   2.656   3.021   4.656  1.2937 -0.8288 -0.1116
   61MOL    H97 9817   2.686   3.179   4.610 -0.4841  0.2803  1.3030
   61MOL    C98 9818   2.850   2.970   4.808  0.1710 -0.8090  0.0469
   61MOL    C99 9819   2.827   2.936   4.954  0.4232 -0.0688 -0.4665
   61MOL   N100 9820   2.884   2.798   4.974  0.8470  0.4047 -0.6313
   61MOL   H101 9821   2.795   2.894   4.753 -0.0199 -0.5904 -0.0630
   61MOL   H102 9822   2.951   2.958   4.767 -0.2333 -1.9622 -0.6406
   61MOL   H103 9823   2.721   2.925   4.975  0.2858 -0.0672 -1.1358
   61MOL   H104 9824   2.982   2.779   4.956  0.7034 -0.2955 -0.6909
   61MOL   H105 9825   2.831   2.730   4.921 -1.8397  1.3703  0.7099
   61MOL   C106 9826   2.897   3.033   5.051  0.4783  1.1740 -0.1083
   61MOL   C107 9827   2.867   3.000   5.195  0.1323  0.3985 -0.1912
   61MOL   N108 9828   2.948   3.080   5.284  0.6854  0.0285  0.5010
   61MOL   H109 9829   3.004   3.025   5.033  0.0848 -2.8224 -1.1822
   61MOL   H110 9830   2.866   3.136   5.036 -0.2912  1.3402  2.4495
   61MOL   H111 9831   2.903   2.899   5.212  0.0827  0.7959  2.4680
   61MOL   H112 9832   2.919   3.065   5.379  1.6287  1.4621  1.0351
   61MOL   H113 9833   2.936   3.180   5.271 -0.5267  0.0234  1.5087
   61MOL   C114 9834   2.716   3.029   5.238 -0.6195 -0.6403 -0.2430
   61MOL   C115 9835   2.675   2.995   5.386  0.3587  0.2400 -0.5483
   61MOL   N116 9836   2.573   3.085   5.426  0.5803  0.6752 -0.4095
   61MOL   H117 9837   2.692   3.134   5.224 -0.1228 -0.2894  1.4078
   61MOL   H118 9838   2.643   2.984   5.171 -0.4379 -0.4547 -0.5673
   61MOL   H119 9839   2.765   3.001   5.448  0.7022  0.6001 -1.0799
   61MOL   H120 9840   2.489   3.071   5.373 -0.2334  1.5456  0.6339
   61MOL   H121 9841   2.611   3.179   5.429 -2.7675  2.0573  0.5624
   61MOL   C122 9842   2.617   2.845   5.400 -0.3616  0.1347 -0.2361
   61MOL   C123 9843   2.708   2.716   5.370  0.3898  0.1607 -0.1785
   61MOL   N124 9844   2.717   2.713   5.225 -0.0601  0.4184  0.6587
   61MOL   H125 9845   2.580   2.837   5.502  1.8286  1.6939  0.7300
   61MOL   H126 9846   2.530   2.835   5.336 -0.1492  0.6810 -0.6139
   61MOL   H127 9847   2.651   2.627   5.395  2.5512 -1.5006 -1.0579
   61MOL   H128 9848   2.782   2.777   5.182 -0.8298  0.8654  0.1404
   61MOL   H129 9849   2.769   2.628   5.206 -1.0805  0.5062 -3.0185
   61MOL   C130 9850   2.846   2.720   5.442  0.0829 -0.2931 -0.0680
   61MOL   C131 9851   2.859   2.659   5.580  0.1833  0.0690  0.1756
   61MOL   N132 9852   2.999   2.680   5.605  0.4894  0.5285 -0.6281
   61MOL   H133 9853   2.917   2.665   5.380  0.0829  0.0216 -0.3487
   61MOL   H134 9854   2.881   2.823   5.453  0.1068 -0.1720 -1.2824
   61MOL   H135 9855   2.839   2.552   5.576 -1.3338  0.3714 -0.5402
   61MOL   H136 9856   3.034   2.749   5.540 -0.0033  1.5246  0.1428
   61MOL   H137 9857   3.042   2.592   5.583  2.5434  1.6252 -1.1728
   61MOL   C138 9858   2.776   2.727   5.691 -0.0975 -0.2540  0.2656
   61MOL   C139 9859   2.642   2.649   5.718  0.0702 -0.1652  0.3899
   61MOL   N140 9860   2.669   2.516   5.757  0.0068 -1.3386  0.3593
   61MOL   H141 9861   2.835   2.734   5.783  0.3847  0.3312 -0.0876
   61MOL   H142 9862   2.755   2.829   5.661  2.7735  0.4723  0.5229
   61MOL   H143 9863   2.593   2.655   5.621  3.5925  2.3621 -1.3588
   61MOL   H144 9864   2.691   2.463   5.674 -1.7968  1.6765 -2.1477
   61MOL   H145 9865   2.744   2.506   5.825 -0.6736  0.2148  1.3799
   61MOL   C146 9866   2.549   2.717   5.818  0.0655 -0.3799  0.6376
   61MOL   C147 9867   2.409   2.656   5.830  0.2905 -1.0880 -0.3791
   61MOL   N148 9868   2.347   2.725   5.947 -0.0277  0.0396  0.0717
   61MOL   H149 9869   2.597   2.708   5.915  1.6217  1.4231  0.0731
   61MOL   H150 9870   2.534   2.823   5.797  0.9357 -0.2410  0.6967
   61MOL   H151 9871   2.425   2.553   5.860 -1.9473 -0.9978  1.2525
   61MOL   H152 9872   2.425   2.719   6.012 -0.6888  2.1149  1.1087
   61MOL   H153 9873   2.281   2.655   5.978 -0.6971  0.4316 -0.4516
   61MOL   C154 9874   2.318   2.659   5.705  0.0456  0.1493  0.1272
   61MOL   C155 9875   2.313   2.530   5.631 -0.2092  0.4430  0.2700
   61MOL   N156 9876   2.219   2.523   5.524  0.0162 -0.0937  0.0154
   61MOL   H157 9877   2.218   2.695   5.727  0.1769  1.2631 -1.0123
   61MOL   H158 9878   2.347   2.737   5.635 -2.2116  2.5147  1.7490
   61MOL   H159 9879   2.281   2.453   5.701 -0.5853 -1.4187 -1.9081
   61MOL   H160 9880   2.206   2.426   5.501 -1.2113  0.0410  0.1126
   61MOL   H161 9881   2.129   2.538   5.568 -0.2492  0.4009 -0.6934
   61MOL   H162 9882   2.405   2.482   5.600 -0.1793  0.0104  1.0298
   62MOL     C1 9883   5.224   2.155   6.205  0.5335 -0.5349  0.8857
   62MOL     C2 9884   5.293   2.290   6.195 -0.4681  0.7706 -0.1083
   62MOL     N3 9885   5.364   2.279   6.068 -0.1574 -0.0768  0.3680
   62MOL     H4 9886   5.279   2.067   6.174 -0.5328  0.0173 -2.8168
   62MOL     H5 9887   5.137   2.158   6.139  1.3722  1.2844 -0.1822
   62MOL     H6 9888   5.368   2.294   6.274 -1.3542  0.5255  0.7558
   62MOL     H7 9889   5.451   2.331   6.065  0.1768 -0.5549  1.3811
   62MOL     H8 9890   5.407   2.187   6.068 -0.0474 -0.0263  0.1029
   62MOL     H9 9891   5.200   2.130   6.308  1.1710  0.2832  1.2395
   62MOL    C10 9892   5.194   2.401   6.197 -0.6586 -0.7747  0.7612
   62MOL    C11 9893   5.257   2.544   6.227 -0.2220 -0.0527 -0.9676
   62MOL    N12 9894   5.161   2.648   6.188 -0.5590 -0.0008  0.2810
   62MOL    H13 9895   5.148   2.405   6.099 -1.2317  1.6553  1.1116
   62MOL    H14 9896   5.117   2.368   6.268  0.0321 -2.1402  0.9102
   62MOL    H15 9897   5.351   2.557   6.173 -0.5733  0.1379 -1.5440
   62MOL    H16 9898   5.165   2.676   6.091 -1.9192  0.1778  0.2710
   62MOL    H17 9899   5.184   2.728   6.245 -0.7549  0.4231 -0.2238
   62MOL    C18 9900   5.287   2.567   6.380  0.1070  0.7776  0.3403
   62MOL    C19 9901   5.438   2.554   6.416  0.7160  0.4435 -0.2386
   62MOL    N20 9902   5.498   2.682   6.390  0.0548  0.2787  0.3216
   62MOL    H21 9903   5.253   2.667   6.409  0.8296  0.9259  0.6799
   62MOL    H22 9904   5.229   2.491   6.432  0.1203 -0.4815 -1.4273
   62MOL    H23 9905   5.481   2.486   6.342  0.6436 -0.8628  0.9022
   62MOL    H24 9906   5.589   2.672   6.432  0.1854 -0.1995 -0.0684
   62MOL    H25 9907   5.449   2.755   6.439  0.4534  3.6754 -3.9959
   62MOL    C26 9908   5.461   2.510   6.568  0.3263 -0.0275 -0.3191
   62MOL    C27 9909   5.462   2.355   6.593  0.3692  0.1167  0.0138
   62MOL    N28 9910   5.596   2.311   6.608  0.0517 -0.3832 -0.0560
   62MOL    H29 9911   5.556   2.556   6.595 -0.6169  1.8127 -0.0385
   62MOL    H30 9912   5.385   2.560   6.627 -1.6718 -2.8492 -0.3784
   62MOL    H31 9913   5.412   2.293   6.518  1.2813 -0.9921  0.3203
   62MOL    H32 9914   5.602   2.223   6.659  2.2433 -0.7082 -0.8146
   62MOL    H33 9915   5.641   2.286   6.521  1.4420  2.9865 -0.3511
   62MOL    C34 9916   5.398   2.316   6.726 -0.2167  0.7371  0.3235
   62MOL    C35 9917   5.362   2.165   6.735  0.1458 -0.3363  0.9299
   62MOL    N36 9918   5.342   2.134   6.875 -0.2864 -0.1508 -0.1106
   62MOL    H37 9919   5.450   2.356   6.814 -0.3798  0.5248  0.5178
   62MOL    H38 9920   5.300   2.359   6.748  0.7191  2.9840  0.2853
   62MOL    H39 9921   5.448   2.105   6.707  0.3107  0.2106  0.2679
   62MOL    H40 9922   5.323   2.035   6.887 -3.1514  0.2948 -0.5628
   62MOL    H41 9923   5.431   2.155   6.918 -0.7806  0.3765  0.6732
   62MOL    C42 9924   5.245   2.119   6.642  0.0638  0.1417  0.2505
   62MOL    C43 9925   5.265   1.979   6.573  0.0609 -0.1441  0.2932
   62MOL    N44 9926   5.147   1.947   6.497  0.5975  0.3010 -0.0132
   62MOL    H45 9927   5.147   2.135   6.686  0.7097  0.5790  1.5933
   62MOL    H46 9928   5.241   2.187   6.557 -0.6266 -2.2158 -1.6167
   62MOL    H47 9929   5.270   1.908   6.655  0.9205 -0.0879  0.2951
   62MOL    H48 9930   5.114   2.038   6.467 -0.3148  0.3854  1.2250
   62MOL    H49 9931   5.076   1.919   6.563  3.8020 -3.0804  2.1703
   62MOL    C50 9932   5.392   1.956   6.488 -0.1297  0.8490  0.0092
   62MOL    C51 9933   5.424   1.810   6.451 -0.0610  0.3603 -0.6181
   62MOL    N52 9934   5.353   1.772   6.330  0.1522  0.2549  0.2158
   62MOL    H53 9935   5.408   2.022   6.402 -0.5175 -2.5761 -2.7921
   62MOL    H54 9936   5.476   1.989   6.549  1.0432  1.1375 -1.7080
   62MOL    H55 9937   5.374   1.756   6.532 -0.4227  2.6200  0.6982
   62MOL    H56 9938   5.263   1.817   6.339  1.0798  2.1702  0.0360
   62MOL    H57 9939   5.328   1.676   6.312 -1.3767  0.7957 -0.6501
   62MOL    C58 9940   5.565   1.753   6.439  0.5852 -0.3365  0.7642
   62MOL    C59 9941   5.656   1.770   6.572  0.4674 -0.6768  0.6850
   62MOL    N60 9942   5.687   1.639   6.630 -0.3572 -0.1321 -0.4205
   62MOL    H61 9943   5.552   1.647   6.418 -0.8168  0.0630 -0.4327
   62MOL    H62 9944   5.614   1.803   6.356  2.7646  0.0732  2.2393
   62MOL    H63 9945   5.597   1.817   6.651  1.0279 -0.3884  0.9362
   62MOL    H64 9946   5.614   1.584   6.588 -1.0362  1.7348 -1.7358
   62MOL    H65 9947   5.655   1.647   6.726  0.5831  0.2121 -0.1331
   62MOL    C66 9948   5.781   1.846   6.545 -0.0280 -0.1352 -0.6096
   62MOL    C67 9949   5.853   1.889   6.674 -0.3660  0.3991 -0.8175
   62MOL    N68 9950   5.981   1.942   6.627  0.1439  0.3867 -0.1812
   62MOL    H69 9951   5.837   1.779   6.480 -1.7379 -0.2508 -2.0084
   62MOL    H70 9952   5.758   1.931   6.482  2.3397  0.7532 -0.3167
   62MOL    H71 9953   5.862   1.803   6.739  1.0524  1.6120  0.6384
   62MOL    H72 9954   6.047   1.980   6.693 -0.2894  1.3828 -0.3089
   62MOL    H73 9955   6.033   1.872   6.576  3.4235  2.6037 -0.0367
   62MOL    C74 9956   5.772   2.003   6.742  0.0929  0.1651  0.5580
   62MOL    C75 9957   5.793   2.008   6.895 -0.1655 -0.7907  0.2451
   62MOL    N76 9958   5.751   2.138   6.956 -0.1484  0.3690  0.2239
   62MOL    H77 9959   5.784   2.097   6.688 -2.6925  0.8514  1.0511
   62MOL    H78 9960   5.664   1.996   6.733  0.0992  2.8842 -2.7408
   62MOL    H79 9961   5.900   1.987   6.903 -0.7485 -3.2563  2.0441
   62MOL    H80 9962   5.790   2.212   6.900  0.9025 -0.7638 -0.5784
   62MOL    H81 9963   5.821   2.142   7.028  0.1632 -0.0674 -0.0488
   62MOL    C82 9964   5.722   1.884   6.966 -0.0445  0.3979 -0.4890
   62MOL    C83 9965   5.774   1.844   7.107 -0.1787  0.2301 -0.4289
   62MOL    N84 9966   5.680   1.743   7.147  0.2754 -0.6033 -0.2694
   62MOL    H85 9967   5.619   1.919   6.958  0.5407  2.3482  0.0506
   62MOL    H86 9968   5.729   1.790   6.912 -1.5998  0.3521 -0.6357
   62MOL    H87 9969   5.761   1.935   7.165  3.4920 -0.1173  1.0835
   62MOL    H88 9970   5.698   1.700   7.236  0.8069  2.2223  1.0350
   62MOL    H89 9971   5.600   1.799   7.174  1.6981  1.4596 -0.2010
   62MOL    C90 9972   5.917   1.786   7.120 -0.1923 -0.0439  0.1656
   62MOL    C91 9973   6.027   1.890   7.129 -0.1071  0.4443 -0.2882
   62MOL    N92 9974   6.058   1.919   7.268 -0.6134  0.2223  0.1113
   62MOL    H93 9975   5.928   1.740   7.218 -0.5580 -1.8500 -0.6278
   62MOL    H94 9976   5.935   1.700   7.055 -1.6647 -0.4601  0.2898
   62MOL    H95 9977   5.988   1.983   7.086 -0.9066  0.2381  0.0021
   62MOL    H96 9978   5.970   1.904   0.039 -0.7361  0.7050  0.0338
   62MOL    H97 9979   6.080   2.018   7.275 -1.0013  0.3859 -0.9589
   62MOL    C98 9980   6.155   1.834   7.079  0.0384 -0.1259  0.1804
   62MOL    C99 9981   6.163   1.817   6.920 -0.0918 -0.4327 -0.0063
   62MOL   N100 9982   6.216   1.939   6.857 -0.8142 -0.2033 -0.0182
   62MOL   H101 9983   6.240   1.898   7.105  0.3687 -0.1983 -0.7047
   62MOL   H102 9984   6.187   1.747   7.135 -2.2754 -2.2715 -1.7477
   62MOL   H103 9985   6.061   1.813   6.883  0.0445 -0.0483 -0.4249
   62MOL   H104 9986   6.236   1.904   6.765  0.8172 -0.0333  0.2529
   62MOL   H105 9987   6.313   1.942   6.887 -0.2162 -0.6012 -1.8517
   62MOL   C106 9988   6.240   1.695   6.871  0.6414  0.1103 -0.6855
   62MOL   C107 9989   6.146   1.569   6.849 -0.6711  0.4750  0.3857
   62MOL   N108 9990   6.198   1.492   6.738 -0.0920  0.0074  0.5163
   62MOL   H109 9991   6.276   1.720   6.771 -0.6161  1.4921 -0.8047
   62MOL   H110 9992   6.321   1.667   6.940  0.4381  3.0862  0.8457
   62MOL   H111 9993   6.047   1.606   6.822 -0.9185  0.9993  1.9354
   62MOL   H112 9994   6.155   1.523   6.652  0.0239 -1.6361 -0.1464
   62MOL   H113 9995   6.294   1.521   6.726  0.5883 -2.5706 -0.6489
   62MOL   C114 9996   6.133   1.474   6.974  1.2729  0.0199  0.0991
   62MOL   C115 9997   6.006   1.384   6.978  0.1644 -0.3688  0.2927
   62MOL   N116 9998   6.025   1.279   6.875  0.1731  0.4455 -0.0885
   62MOL   H117 9999   6.229   1.424   6.987  1.4187  0.8498  2.5219
   62MOL   H11810000   6.127   1.533   7.066  1.3777 -1.4468  1.0565
   62MOL   H11910001   5.916   1.443   6.963  0.5561  0.5128  1.3449
   62MOL   H12010002   6.078   1.205   6.919 -1.0268  0.5545  1.5744
   62MOL   H12110003   6.080   1.329   6.807 -0.4564  0.7639 -0.3659
   62MOL   C12210004   5.982   1.307   7.113  0.0957  0.0019 -0.2504
   62MOL   C12310005   5.909   1.383   7.226 -0.0548 -0.2059 -0.0761
   62MOL   N12410006   5.767   1.376   7.206  0.4996  0.3428 -0.6570
   62MOL   H12510007   5.926   1.214   7.099 -1.7725  0.9750  0.5087
   62MOL   H12610008   6.076   1.266   7.148  0.2203 -0.2921 -0.9204
   62MOL   H12710009   5.917   1.490   7.205 -3.9025  0.3621  0.9024
   62MOL   H12810010   5.725   1.436   7.275  0.2345  0.1111 -0.6145
   62MOL   H12910011   5.735   1.397   7.113 -2.9767  2.8545  0.9998
   62MOL   C13010012   5.948   1.364   0.100 -0.9519 -0.4221  0.3102
   62MOL   C13110013   6.091   1.416   0.140 -0.4568 -0.1004 -0.3965
   62MOL   N13210014   6.077   1.562   0.149 -0.0957 -0.1596  0.1340
   62MOL   H13310015   5.868   1.392   0.169 -1.1340 -1.5087  0.5426
   62MOL   H13410016   5.946   1.256   0.110  0.5819 -0.6775 -1.7787
   62MOL   H13510017   6.161   1.394   0.059  0.0169 -0.5585  0.1278
   62MOL   H13610018   6.165   1.611   0.154 -1.4939  2.5868 -0.6108
   62MOL   H13710019   6.035   1.595   0.063 -0.8455 -0.3090  0.4361
   62MOL   C13810020   6.130   1.349   0.271  0.2861  1.6627 -0.0770
   62MOL   C13910021   6.146   1.194   0.272  0.6217  0.2723 -0.3274
   62MOL   N14010022   6.269   1.164   0.196 -0.2408 -0.5905  0.1855
   62MOL   H14110023   6.223   1.398   0.299  0.8261  0.2230  0.6540
   62MOL   H14210024   6.060   1.393   0.343  0.0601  1.9549 -0.4768
   62MOL   H14310025   6.061   1.138   0.232  0.0243  0.9716 -0.0468
   62MOL   H14410026   6.337   1.236   0.215 -0.6901  0.1229 -0.8421
   62MOL   H14510027   6.245   1.187   0.100 -0.4264 -1.6828 -0.0445
   62MOL   C14610028   6.158   1.135   0.421 -0.5845  0.6074  0.6470
   62MOL   C14710029   6.051   1.167   0.521  0.1191  0.5052  0.0257
   62MOL   N14810030   5.923   1.101   0.481 -0.3632  0.0929  0.2185
   62MOL   H14910031   6.153   1.027   0.403 -0.6304  0.6799  0.2228
   62MOL   H15010032   6.252   1.154   0.473  0.1000 -1.0533  0.0714
   62MOL   H15110033   6.046   1.276   0.532 -0.8996  0.6326 -1.4486
   62MOL   H15210034   5.923   1.112   0.380  0.4841 -0.3161  0.1623
   62MOL   H15310035   5.932   1.003   0.501 -0.3692  0.2857  1.1914
   62MOL   C15410036   6.072   1.118   0.671 -0.4762  0.1721  0.0796
   62MOL   C15510037   6.167   1.203   0.741 -0.6356  0.2429 -0.4524
   62MOL   N15610038   6.184   1.141   0.874 -0.2889 -0.5113 -0.4045
   62MOL   H15710039   5.977   1.127   0.723 -1.0762 -0.2022 -0.9341
   62MOL   H15810040   6.104   1.014   0.670 -1.9223 -0.2931 -1.2851
   62MOL   H15910041   6.131   1.304   0.757  0.5349  0.5513  0.3677
   62MOL   H16010042   6.230   1.202   0.940  0.3555 -0.2092 -1.1192
   62MOL   H16110043   6.096   1.119   0.919  0.3373 -1.4104  0.3813
   62MOL   H16210044   6.264   1.205   0.691  1.3726 -0.3388  3.1776
   63MOL     C110045   2.141   1.350   0.443  0.0188  0.0878  0.3654
   63MOL     C210046   1.993   1.351   0.444  0.6717 -0.2272 -0.2240
   63MOL     N310047   1.963   1.325   0.584 -0.3453  0.4139 -0.6441
   63MOL     H410048   2.199   1.427   0.494  3.1481 -1.1451 -1.1877
   63MOL     H510049   2.175   1.341   0.340 -2.7817  2.5379 -0.8513
   63MOL     H610050   1.961   1.263   0.388 -1.7470  0.6076 -0.2116
   63MOL     H710051   2.008   1.236   0.598 -2.3776 -0.5049  0.2796
   63MOL     H810052   2.021   1.379   0.647 -2.7986  0.4264  1.6803
   63MOL     H910053   2.185   1.257   0.479 -0.1629  0.9776  3.0125
   63MOL    C1010054   1.938   1.493   0.411 -0.3488 -0.9601 -0.1631
   63MOL    C1110055   1.802   1.539   0.460  0.2233 -0.1849  0.0671
   63MOL    N1210056   1.816   1.679   0.465  0.4962 -0.2039  0.8911
   63MOL    H1310057   2.008   1.572   0.438 -0.9886 -0.6839  0.7121
   63MOL    H1410058   1.943   1.492   0.302  0.9502 -2.0071 -0.1076
   63MOL    H1510059   1.786   1.499   0.560 -1.7216  2.4277  0.8580
   63MOL    H1610060   1.902   1.705   0.512  1.7622  0.0886 -1.4835
   63MOL    H1710061   1.738   1.713   0.519  0.5704  0.1284  0.7942
   63MOL    C1810062   1.684   1.499   0.366 -0.1026  0.6014  0.7062
   63MOL    C1910063   1.686   1.355   0.306 -0.1363  0.1988  0.2180
   63MOL    N2010064   1.669   1.257   0.407  0.4604  0.5951 -0.0252
   63MOL    H2110065   1.592   1.512   0.424 -0.3483 -1.5558  0.8172
   63MOL    H2210066   1.672   1.576   0.290 -0.2624  1.6646  1.7816
   63MOL    H2310067   1.783   1.337   0.260 -1.1902 -0.8105 -1.6761
   63MOL    H2410068   1.742   1.263   0.476  0.9367  0.6626 -0.5356
   63MOL    H2510069   1.586   1.283   0.460 -1.4348 -0.6964 -2.2569
   63MOL    C2610070   1.588   1.334   0.184  0.3584  1.4320 -1.2386
   63MOL    C2710071   1.607   1.425   0.061  0.6790  0.0612  0.6906
   63MOL    N2810072   1.731   1.393   7.268  0.2804  0.2554  0.1191
   63MOL    H2910073   1.576   1.231   0.151  2.3040  0.3744  1.2336
   63MOL    H3010074   1.488   1.355   0.223  0.8353  1.0775  0.1925
   63MOL    H3110075   1.626   1.528   0.093 -1.1758  0.7808 -0.4604
   63MOL    H3210076   1.737   1.423   7.172  0.6988 -1.0214 -0.2692
   63MOL    H3310077   1.823   1.400   0.034  0.1283 -1.6865  0.8612
   63MOL    C3410078   1.488   1.423   7.233 -0.3315  0.5486  0.4084
   63MOL    C3510079   1.342   1.467   0.004  0.0642 -0.1365 -0.4485
   63MOL    N3610080   1.322   1.617   7.274 -0.0492 -0.1255  0.1478
   63MOL    H3710081   1.525   1.471   7.142  1.3927  0.4366  1.0374
   63MOL    H3810082   1.473   1.319   7.205 -2.6946  1.2281 -1.0257
   63MOL    H3910083   1.322   1.440   0.107  2.0426  0.2754  0.0515
   63MOL    H4010084   1.361   1.665   7.194  1.1708 -0.6130  0.4352
   63MOL    H4110085   1.365   1.663   0.078  3.2139  0.2074 -1.6927
   63MOL    C4210086   1.232   1.405   7.184  0.1317  0.7226 -0.4090
   63MOL    C4310087   1.214   1.253   7.190  0.5945  0.3393  0.4029
   63MOL    N4410088   1.299   1.186   7.096 -0.6856 -0.6661  0.1868
   63MOL    H4510089   1.137   1.449   7.214 -0.3081 -1.5729  1.7554
   63MOL    H4610090   1.270   1.435   7.087  0.4672  0.7814 -0.2620
   63MOL    H4710091   1.108   1.241   7.164  0.5652 -1.5787  1.2663
   63MOL    H4810092   1.238   1.134   7.035 -0.8484 -1.9288  1.4228
   63MOL    H4910093   1.335   1.260   7.036  0.0525  0.2066  1.6748
   63MOL    C5010094   1.236   1.181   0.056  0.2290 -0.1440  0.7657
   63MOL    C5110095   1.117   1.098   0.111  0.6192 -0.1545 -0.4179
   63MOL    N5210096   1.088   0.984   0.027 -0.4485 -0.0615 -0.1709
   63MOL    H5310097   1.330   1.124   0.059  0.3862  0.1227  0.9477
   63MOL    H5410098   1.257   1.255   0.133  0.7485  0.9491 -0.4221
   63MOL    H5510099   1.028   1.160   0.107  0.2377 -0.6977 -0.4227
   63MOL    H5610100   1.178   0.939   0.018 -0.3149  0.4310 -1.3556
   63MOL    H5710101   1.029   0.922   0.082  0.3072  1.4726  2.4804
   63MOL    C5810102   1.133   1.049   0.254  1.0375 -0.1630  0.5827
   63MOL    C5910103   1.135   1.169   0.357  0.6303  0.5357  0.0931
   63MOL    N6010104   1.048   1.124   0.466 -0.4823  0.0939 -0.0413
   63MOL    H6110105   1.046   0.989   0.279  0.1332  1.0968  0.5149
   63MOL    H6210106   1.218   0.983   0.271 -0.8700 -3.0136 -0.5274
   63MOL    H6310107   1.095   1.255   0.304 -0.5712 -0.9089 -1.4040
   63MOL    H6410108   1.080   1.034   0.498 -0.3054  0.7323  1.6331
   63MOL    H6510109   1.078   1.180   0.544  0.2613  1.5080 -1.3191
   63MOL    C6610110   1.265   1.209   0.416  0.0841  0.0707  0.4686
   63MOL    C6710111   1.258   1.325   0.520 -0.0127 -0.0069 -0.4937
   63MOL    N6810112   1.394   1.322   0.569  0.7102 -0.7917 -0.5336
   63MOL    H6910113   1.320   1.122   0.451 -2.9488 -1.6605  1.2008
   63MOL    H7010114   1.324   1.250   0.334 -1.3050  0.3615 -0.4084
   63MOL    H7110115   1.199   1.301   0.608 -0.1012  2.5213  0.1523
   63MOL    H7210116   1.389   1.260   0.649 -3.2850  0.7802  0.5570
   63MOL    H7310117   1.412   1.411   0.613 -1.4739 -1.0280  0.9472
   63MOL    C7410118   1.207   1.461   0.463  0.2750  0.3468  1.0666
   63MOL    C7510119   1.055   1.491   0.490  0.3424 -1.0419  0.3079
   63MOL    N7610120   1.040   1.527   0.630 -0.7610  0.4838  0.4427
   63MOL    H7710121   1.272   1.543   0.494  1.4510 -1.2844  3.0630
   63MOL    H7810122   1.218   1.463   0.355  0.1211  0.6727  1.0563
   63MOL    H7910123   0.985   1.411   0.465 -1.2442  0.0945  1.0369
   63MOL    H8010124   0.979   1.608   0.623 -0.1145  0.9422  0.0319
   63MOL    H8110125   0.975   1.462   0.671 -1.2730  0.0506 -1.0302
   63MOL    C8210126   1.011   1.622   0.411 -0.2623  0.5111  0.3918
   63MOL    C8310127   1.015   1.618   0.256  0.8085  0.2364 -0.6322
   63MOL    N8410128   0.943   1.506   0.194  0.7632 -0.7495 -0.1994
   63MOL    H8510129   0.913   1.655   0.445 -0.3796  0.5267  0.0422
   63MOL    H8610130   1.076   1.708   0.429 -0.4714  0.4104  1.6614
   63MOL    H8710131   1.120   1.614   0.225 -0.1454 -0.1987 -3.9846
   63MOL    H8810132   0.959   1.500   0.094  1.3407 -0.1267 -0.1542
   63MOL    H8910133   0.843   1.512   0.200  0.8518 -0.9061  1.5967
   63MOL    C9010134   0.967   1.752   0.196  0.5612 -0.3720 -0.1881
   63MOL    C9110135   1.013   1.803   0.059  0.1075  0.1097 -0.6479
   63MOL    N9210136   1.018   1.692   7.242 -0.5289 -0.3279  0.4270
   63MOL    H9310137   0.859   1.751   0.210  1.0132  2.1062  4.1637
   63MOL    H9410138   0.979   1.833   0.267  0.4348 -0.0809 -0.4934
   63MOL    H9510139   1.116   1.836   0.066  0.6052 -1.8835  2.3908
   63MOL    H9610140   1.063   1.725   7.157 -0.9717 -0.1787  0.2490
   63MOL    H9710141   1.096   1.639   0.003  0.0518 -1.2825 -2.0711
   63MOL    C9810142   0.915   1.910   7.274  0.2687 -1.2859 -0.2556
   63MOL    C9910143   0.918   2.042   0.078  0.5613  0.0642  0.5231
   63MOL   N10010144   0.991   2.148   0.009 -0.0323  0.1026  0.4878
   63MOL   H10110145   0.927   1.932   7.168 -0.7768  2.6934  0.3673
   63MOL   H10210146   0.815   1.866   7.272 -0.3658  0.0741  0.4659
   63MOL   H10310147   0.964   2.038   0.177  1.1444 -0.3675  0.2358
   63MOL   H10410148   1.089   2.125   7.272 -0.3408 -0.7855 -0.4151
   63MOL   H10510149   0.981   2.233   0.061 -1.8053  2.0744 -2.9025
   63MOL   C10610150   0.781   2.095   0.105 -0.4532 -0.1118 -0.1164
   63MOL   C10710151   0.690   2.008   0.196 -0.0992  0.3519  0.0749
   63MOL   N10810152   0.734   2.015   0.338 -0.1464 -0.1988 -1.0724
   63MOL   H10910153   0.793   2.191   0.156  0.0486 -0.4370  0.3891
   63MOL   H11010154   0.737   2.123   0.009  0.6484  1.8880 -0.0638
   63MOL   H11110155   0.695   1.903   0.165 -0.9651  0.6434 -1.0654
   63MOL   H11210156   0.687   1.941   0.388  0.4859  0.6232  0.7738
   63MOL   H11310157   0.833   2.015   0.356 -0.6262  0.4323  1.7514
   63MOL   C11410158   0.555   2.064   0.184  0.1392  0.5536  0.6388
   63MOL   C11510159   0.443   1.959   0.178 -0.1917 -0.3993 -0.1168
   63MOL   N11610160   0.321   2.044   0.192  0.2502  0.3789 -0.0071
   63MOL   H11710161   0.544   2.146   0.256  0.5541 -0.1739  1.5354
   63MOL   H11810162   0.546   2.128   0.096 -0.3791 -0.0064  0.2846
   63MOL   H11910163   0.465   1.888   0.258  1.4206  0.9722  0.6777
   63MOL   H12010164   0.318   2.091   0.281  3.0442  0.2845  0.1805
   63MOL   H12110165   0.310   2.114   0.121  1.3090  2.2979  1.6630
   63MOL   C12210166   0.433   1.891   0.042 -0.2909 -0.1608  0.3059
   63MOL   C12310167   0.499   1.751   0.020 -0.3944 -0.7616 -0.3243
   63MOL   N12410168   0.463   1.665   0.128 -0.3693 -0.7255  0.3161
   63MOL   H12510169   0.330   1.887   0.006 -0.7094 -0.2979  1.5017
   63MOL   H12610170   0.477   1.956   7.241  2.2670 -0.8728  1.1084
   63MOL   H12710171   0.606   1.761   0.038 -0.6742  0.1865  0.8369
   63MOL   H12810172   0.512   1.577   0.113 -0.5669 -0.4085 -2.5803
   63MOL   H12910173   0.368   1.636   0.114  0.3122 -2.3155 -1.2464
   63MOL   C13010174   0.453   1.683   7.168 -0.1100  0.0244 -0.0530
   63MOL   C13110175   0.493   1.751   7.035  0.4655 -0.0675 -0.4665
   63MOL   N13210176   0.537   1.659   6.935 -0.6611 -0.0466 -0.4326
   63MOL   H13310177   0.490   1.581   7.161  1.6872  0.6550  0.1492
   63MOL   H13410178   0.345   1.666   7.175  0.0504  0.0129  2.8459
   63MOL   H13510179   0.569   1.827   7.056 -0.9583  0.9316  1.2269
   63MOL   H13610180   0.612   1.606   6.978 -0.7016 -1.0857 -1.6154
   63MOL   H13710181   0.589   1.710   6.864 -1.3783 -1.3981 -1.9567
   63MOL   C13810182   0.362   1.829   6.981  0.3890  0.2741 -0.1559
   63MOL   C13910183   0.386   1.892   6.837  0.5525 -0.0907  0.7167
   63MOL   N14010184   0.257   1.941   6.785  0.9605  0.1552  0.1697
   63MOL   H14110185   0.273   1.767   6.965 -0.1103  0.9883 -0.1754
   63MOL   H14210186   0.324   1.903   7.051 -0.6142  0.6345 -1.0589
   63MOL   H14310187   0.421   1.812   6.772 -0.3901 -0.0931  0.2080
   63MOL   H14410188   0.272   1.989   6.697  0.5930  0.5375  0.3165
   63MOL   H14510189   0.219   2.009   6.848 -0.6151  0.6440 -1.2716
   63MOL   C14610190   0.494   1.999   6.826 -0.0521 -0.1289  0.0752
   63MOL   C14710191   0.638   1.947   6.783 -0.6943  0.4316  0.4401
   63MOL   N14810192   0.641   1.888   6.648 -0.0965  0.2333  0.0582
   63MOL   H14910193   0.467   2.068   6.746  3.4099 -2.0364 -2.9175
   63MOL   H15010194   0.486   2.053   6.920  1.0510 -0.8400  0.5888
   63MOL   H15110195   0.672   1.864   6.845  0.9371  1.2086  0.6040
   63MOL   H15210196   0.585   1.804   6.641 -1.6053  1.1519  0.8815
   63MOL   H15310197   0.736   1.853   6.637 -0.3230 -0.5472  0.5344
   63MOL   C15410198   0.752   2.058   6.808 -0.0763 -0.4753 -0.8397
   63MOL   C15510199   0.789   2.049   6.955 -0.3115  0.1269  0.2603
   63MOL   N15610200   0.898   2.144   6.982  0.1860  0.0946 -0.1994
   63MOL   H15710201   0.836   2.026   6.747  0.4316 -0.2456 -0.2656
   63MOL   H15810202   0.711   2.156   6.782 -2.1257 -0.6534  1.5403
   63MOL   H15910203   0.833   1.957   6.993  2.5560  0.1792 -2.6967
   63MOL   H16010204   0.924   2.149   7.080 -2.3735  1.4010  0.4489
   63MOL   H16110205   0.974   2.128   6.917  2.1192  4.4944  0.7615
   63MOL   H16210206   0.701   2.067   7.016  0.4583  2.0585  0.8494
   64MOL     C110207   2.701   6.661   2.234  0.5145 -0.3734 -0.1324
   64MOL     C210208   2.691   6.515   2.195  0.3709 -0.1657 -0.3587
   64MOL     N310209   2.563   6.485   2.138 -0.5100 -0.1346 -0.1185
   64MOL     H410210   2.668   6.727   2.154 -1.6141 -0.7523  0.4033
   64MOL     H510211   2.799   6.681   2.277  0.4562 -0.4986  0.0567
   64MOL     H610212   2.701   6.458   2.287 -1.0269 -2.4389 -1.5624
   64MOL     H710213   2.538   6.546   2.061  2.5068  2.7744  1.0532
   64MOL     H810214   2.496   6.497   2.212 -0.7418 -1.0795 -0.1758
   64MOL     H910215   2.629   6.682   2.313 -0.2109 -1.1737 -0.5604
   64MOL    C1010216   2.803   6.476   2.093 -0.1320 -0.1991 -0.5165
   64MOL    C1110217   2.940   6.444   2.171 -0.3805  0.6015 -0.4803
   64MOL    N1210218   2.947   6.304   2.197 -0.0571 -0.3364 -0.9516
   64MOL    H1310219   2.788   6.387   2.033 -0.8064 -1.7388  1.8694
   64MOL    H1410220   2.826   6.555   2.021  1.8807 -0.0817  0.2344
   64MOL    H1510221   2.949   6.506   2.260 -1.3013 -1.7215  1.2746
   64MOL    H1610222   2.908   6.300   2.290  1.0683  0.5817 -0.4246
   64MOL    H1710223   3.043   6.294   2.227 -0.2285 -0.2474 -0.3666
   64MOL    C1810224   3.057   6.484   2.079  0.5336 -0.8683  0.6420
   64MOL    C1910225   3.103   6.631   2.089  0.6114  1.1533  0.4070
   64MOL    N2010226   3.192   6.646   2.203  0.3749 -0.0995  0.0958
   64MOL    H2110227   3.145   6.420   2.088  0.5034 -1.3212 -1.8993
   64MOL    H2210228   3.031   6.463   1.975  1.4123 -0.3669  0.3190
   64MOL    H2310229   3.017   6.691   2.119  0.8077  1.0056  1.3029
   64MOL    H2410230   3.232   6.555   2.221  1.7771  0.0169 -2.3339
   64MOL    H2510231   3.138   6.681   2.281  1.1777 -1.7689  1.4349
   64MOL    C2610232   3.189   6.678   1.972  0.0603 -0.2707  0.4130
   64MOL    C2710233   3.119   6.695   1.837 -0.2934  0.0456 -0.1816
   64MOL    N2810234   3.015   6.800   1.846 -0.0511 -0.6051  0.2403
   64MOL    H2910235   3.240   6.770   2.000  2.4175 -1.6077  0.6101
   64MOL    H3010236   3.259   6.594   1.964 -1.1704 -1.2950  0.1890
   64MOL    H3110237   3.074   6.601   1.806  1.3369 -0.7315 -0.2237
   64MOL    H3210238   2.981   6.815   1.752  0.7428  0.3109  0.0839
   64MOL    H3310239   2.940   6.781   1.910 -1.0178  0.3932 -0.5795
   64MOL    C3410240   3.213   6.738   1.724 -0.5122  0.1995 -0.5313
   64MOL    C3510241   3.311   6.621   1.681 -0.1650  0.0026 -0.3974
   64MOL    N3610242   3.232   6.527   1.594  0.0522 -0.3975  0.0887
   64MOL    H3710243   3.158   6.764   1.633 -1.6590  0.3650  0.2039
   64MOL    H3810244   3.272   6.826   1.749  1.7582 -1.1690 -0.8989
   64MOL    H3910245   3.343   6.561   1.766 -2.3178  1.8828  1.8085
   64MOL    H4010246   3.288   6.518   1.511 -0.0521  0.9541 -0.1498
   64MOL    H4110247   3.246   6.434   1.631  0.7737 -0.6219 -0.7386
   64MOL    C4210248   3.434   6.662   1.590 -0.5485  0.1154  0.2955
   64MOL    C4310249   3.550   6.748   1.652  0.2800 -0.0329  0.0389
   64MOL    N4410250   3.639   6.673   1.743 -0.3792 -0.5188 -0.1561
   64MOL    H4510251   3.487   6.571   1.560  0.4523 -0.2249  2.9588
   64MOL    H4610252   3.398   6.700   1.495  1.2712  0.3579 -0.3161
   64MOL    H4710253   3.502   6.835   1.698 -0.4195 -0.8547  0.8857
   64MOL    H4810254   3.584   6.635   1.818 -2.0378  0.4711 -0.8416
   64MOL    H4910255   3.706   6.742   1.773  0.3279  0.3597 -3.5116
   64MOL    C5010256   3.640   6.811   1.547  0.1953 -1.3130 -0.5829
   64MOL    C5110257   3.573   6.934   1.483  0.4176 -0.1458  0.1717
   64MOL    N5210258   3.587   7.049   1.575  0.2335  0.7387  0.0405
   64MOL    H5310259   3.734   6.837   1.594 -0.7195  2.0818 -0.4938
   64MOL    H5410260   3.668   6.732   1.477  2.4384  0.2339 -1.4543
   64MOL    H5510261   3.466   6.917   1.472  0.4473  0.8178 -1.8895
   64MOL    H5610262   3.674   7.089   1.544  0.3086 -0.9517 -2.0371
   64MOL    H5710263   3.611   7.013   1.667  0.0323 -1.1808 -0.6453
   64MOL    C5810264   3.620   6.979   1.344 -0.0859 -0.4351  0.5401
   64MOL    C5910265   3.573   6.894   1.226 -0.1205 -0.8176  0.1996
   64MOL    N6010266   3.547   6.985   1.113  0.2203 -0.1737  0.2873
   64MOL    H6110267   3.571   7.075   1.332 -2.5302 -1.8182 -1.1667
   64MOL    H6210268   3.727   6.996   1.348 -0.1340 -0.0626  0.2496
   64MOL    H6310269   3.477   6.853   1.259 -1.0391  0.1027 -1.2579
   64MOL    H6410270   3.533   6.922   1.035 -1.4849 -1.3514  1.5061
   64MOL    H6510271   3.463   7.040   1.125  0.7490  0.2655  2.1394
   64MOL    C6610272   3.672   6.784   1.185 -0.4045  0.1987  0.7567
   64MOL    C6710273   3.634   6.679   1.079 -0.3998 -0.4770  0.0775
   64MOL    N6810274   3.753   6.617   1.020  0.0725 -0.1700 -0.3393
   64MOL    H6910275   3.774   6.819   1.166 -0.7659  0.9186  0.1406
   64MOL    H7010276   3.693   6.725   1.275  0.7013  0.9868  1.0276
   64MOL    H7110277   3.577   6.731   1.001  3.2608  3.4673 -0.1957
   64MOL    H7210278   3.811   6.692   0.986 -0.8493  0.1013 -1.3300
   64MOL    H7310279   3.725   6.568   0.937  0.1616  1.1386 -1.1497
   64MOL    C7410280   3.552   6.564   1.145 -0.3855  0.3209  0.0857
   64MOL    C7510281   3.430   6.517   1.062 -0.2708 -0.4236  0.0640
   64MOL    N7610282   3.419   6.374   1.057 -1.0395 -0.1531 -1.0065
   64MOL    H7710283   3.620   6.480   1.152  1.1361  1.6900  2.4045
   64MOL    H7810284   3.522   6.593   1.245 -0.7539  0.6004 -0.1044
   64MOL    H7910285   3.453   6.549   0.960 -2.6569  0.5007 -0.2307
   64MOL    H8010286   3.323   6.349   1.036 -0.9169 -1.5367 -0.0263
   64MOL    H8110287   3.463   6.332   0.977  2.0040  2.0279 -0.5502
   64MOL    C8210288   3.296   6.591   1.082  0.2527 -0.2373 -0.4714
   64MOL    C8310289   3.203   6.599   0.954 -0.3707  0.2727  0.3553
   64MOL    N8410290   3.065   6.585   0.995  0.6453  0.1847 -0.2769
   64MOL    H8510291   3.250   6.534   1.162  1.8573 -1.3296 -0.3008
   64MOL    H8610292   3.321   6.692   1.115 -0.1447 -0.1139 -0.5518
   64MOL    H8710293   3.203   6.512   0.890 -0.0252  1.5676 -1.4286
   64MOL    H8810294   3.055   6.638   1.080 -0.1359  0.5351 -0.5851
   64MOL    H8910295   3.070   6.490   1.028  2.3970 -0.2673 -1.7168
   64MOL    C9010296   3.207   6.739   0.880 -0.9167 -0.6444 -0.1267
   64MOL    C9110297   3.312   6.740   0.766 -0.2767  0.1222  0.1649
   64MOL    N9210298   3.266   6.655   0.656 -0.0785 -0.1201  0.3332
   64MOL    H9310299   3.110   6.758   0.833 -0.6822 -0.4191 -0.5144
   64MOL    H9410300   3.220   6.822   0.949 -0.1195 -0.9501  0.0950
   64MOL    H9510301   3.405   6.694   0.800  0.2533  1.4827  0.5770
   64MOL    H9610302   3.343   6.604   0.614 -0.2797 -1.5278  1.6301
   64MOL    H9710303   3.206   6.582   0.692 -1.2684  0.5709 -0.2162
   64MOL    C9810304   3.343   6.877   0.712  0.6071  0.2808 -0.5615
   64MOL    C9910305   3.444   6.960   0.791  0.5238 -0.0235 -0.2080
   64MOL   N10010306   3.573   6.907   0.775 -0.6061  0.2006 -0.5667
   64MOL   H10110307   3.373   6.875   0.607 -0.5018 -0.3947 -0.8798
   64MOL   H10210308   3.249   6.932   0.709  1.1899  1.3839  0.8140
   64MOL   H10310309   3.416   6.953   0.896 -1.5390 -3.1664 -0.8904
   64MOL   H10410310   3.584   6.811   0.805 -0.0440  0.8233  1.2233
   64MOL   H10510311   3.619   6.908   0.685  1.3201  1.7698  0.3963
   64MOL   C10610312   3.449   7.109   0.735 -0.5832 -0.6479 -0.3490
   64MOL   C10710313   3.327   7.198   0.778 -0.3045 -0.0917  0.4759
   64MOL   N10810314   3.340   7.234   0.913  0.0919  0.3785 -0.2994
   64MOL   H10910315   3.544   7.151   0.769 -0.7665 -0.8976  0.4934
   64MOL   H11010316   3.452   7.119   0.627  0.0543  0.5846 -0.2328
   64MOL   H11110317   3.242   7.130   0.769 -0.2712 -0.0163 -0.5214
   64MOL   H11210318   3.310   7.159   0.973 -2.6859  0.4261 -1.5358
   64MOL   H11310319   3.436   7.261   0.930  0.8277 -2.2200 -0.1347
   64MOL   C11410320   3.335   0.045   0.683 -0.1410 -0.3383 -0.1961
   64MOL   C11510321   3.221   0.146   0.691 -0.1891 -0.1759 -0.2443
   64MOL   N11610322   3.250   0.225   0.811  0.5623  0.5721 -0.3963
   64MOL   H11710323   3.434   0.091   0.689 -0.4297  0.1351  1.0256
   64MOL   H11810324   3.332   7.274   0.585  0.5526  0.7824 -0.7668
   64MOL   H11910325   3.130   0.088   0.708 -0.1860 -0.5843 -1.6332
   64MOL   H12010326   3.229   0.155   0.881 -0.6549  0.8364 -0.4794
   64MOL   H12110327   3.350   0.220   0.803  0.6337 -0.5201  0.9977
   64MOL   C12210328   3.217   0.240   0.570 -0.3082 -0.6792  0.3084
   64MOL   C12310329   3.190   0.189   0.426  0.1436 -0.4920  0.7037
   64MOL   N12410330   3.316   0.133   0.371  0.8022  0.3040 -0.3045
   64MOL   H12510331   3.132   0.305   0.590  0.6270  0.7730 -0.3857
   64MOL   H12610332   3.305   0.305   0.572 -1.1063  0.4370 -0.1735
   64MOL   H12710333   3.156   0.268   0.359  1.0451 -0.2258  0.5426
   64MOL   H12810334   3.348   0.203   0.305 -1.5476  0.3193 -1.4964
   64MOL   H12910335   3.385   0.115   0.443 -0.0258  0.9054  0.6519
   64MOL   C13010336   3.087   0.078   0.410  0.4941 -0.2994  0.1525
   64MOL   C13110337   2.943   0.101   0.467 -0.4059  0.3932 -0.3659
   64MOL   N13210338   2.897   0.219   0.401 -0.4873 -0.4609  0.3777
   64MOL   H13310339   3.074   0.062   0.303  0.0119 -1.2382  0.3403
   64MOL   H13410340   3.132   7.266   0.457 -0.1665 -1.5151 -1.4250
   64MOL   H13510341   2.947   0.108   0.575 -0.4187 -0.3861 -0.3128
   64MOL   H13610342   2.920   0.299   0.457  2.0534  0.0339 -1.2855
   64MOL   H13710343   2.797   0.224   0.385 -1.0375 -1.4504  3.2749
   64MOL   C13810344   2.845   7.256   0.443  0.5285  0.3634  0.4210
   64MOL   C13910345   2.888   7.125   0.519 -0.2280 -0.1437  0.3847
   64MOL   N14010346   2.813   7.113   0.640 -0.5257 -0.1581 -0.1444
   64MOL   H14110347   2.740   0.004   0.461  0.4527  0.8265 -0.6268
   64MOL   H14210348   2.838   7.240   0.336  0.5311  2.6622  0.0504
   64MOL   H14310349   2.989   7.136   0.560  0.1417 -1.5227 -0.1407
   64MOL   H14410350   2.718   7.091   0.611 -0.4585 -0.7771  0.0928
   64MOL   H14510351   2.799   7.205   0.678 -1.4582  0.0054 -0.8676
   64MOL   C14610352   2.872   6.997   0.442  0.5443 -1.1066 -0.7484
   64MOL   C14710353   2.991   6.963   0.344  0.7048 -0.0663 -0.6019
   64MOL   N14810354   3.076   6.875   0.419 -1.0547  0.3378  0.4441
   64MOL   H14910355   2.858   6.913   0.510  1.8622 -0.8993 -0.1950
   64MOL   H15010356   2.774   7.001   0.394 -0.9077 -1.2304  2.0801
   64MOL   H15110357   3.059   7.047   0.331  1.6318 -0.8717 -0.9771
   64MOL   H15210358   3.044   6.779   0.420  0.2412 -0.1728 -1.8135
   64MOL   H15310359   3.079   6.896   0.518  1.3131 -1.5509  0.8319
   64MOL   C15410360   2.952   6.898   0.207 -0.4996  0.1943 -0.2441
   64MOL   C15510361   2.893   6.989   0.098 -0.2827 -0.3255  0.6229
   64MOL   N15610362   2.894   6.920   7.252 -0.0310 -0.1528 -0.5353
   64MOL   H15710363   3.041   6.850   0.166  0.3827  0.0481  1.7831
   64MOL   H15810364   2.871   6.827   0.226  1.4642 -1.2965  3.1317
   64MOL   H15910365   2.954   7.079   0.095  0.5509 -0.8251  1.9678
   64MOL   H16010366   2.838   6.837   7.264  0.1986 -0.7275 -3.2519
   64MOL   H16110367   2.840   6.973   7.185 -0.5016 -0.0379 -0.0690
   64MOL   H16210368   2.792   7.010   0.132 -0.1196 -0.8835  1.4724
   65MOL     C110369   4.448   4.006   1.710  0.2735 -0.2276  0.3698
   65MOL     C210370   4.576   4.088   1.757 -0.2757 -0.2116 -0.6294
   65MOL     N310371   4.680   3.987   1.800  0.1688  0.3958  0.8526
   65MOL     H410372   4.463   3.943   1.622  3.0639 -0.6653  1.0861
   65MOL     H510373   4.381   4.087   1.681  0.6704  0.7294  2.0478
   65MOL     H610374   4.551   4.141   1.848  1.7652  0.1037 -0.2163
   65MOL     H710375   4.754   4.046   1.834  1.0937  1.5478 -2.8879
   65MOL     H810376   4.707   3.944   1.713  0.0354  1.5316  0.2385
   65MOL     H910377   4.412   3.936   1.785  0.6211 -1.9924 -1.0734
   65MOL    C1010378   4.626   4.188   1.650  0.4332 -0.1667 -0.5534
   65MOL    C1110379   4.644   4.127   1.508  0.6671  0.2738  0.0342
   65MOL    N1210380   4.649   4.238   1.424 -0.4156 -0.1591  0.0727
   65MOL    H1310381   4.554   4.270   1.656 -2.5011 -2.7381  1.8231
   65MOL    H1410382   4.721   4.225   1.687  0.0010  1.6578 -1.2059
   65MOL    H1510383   4.550   4.076   1.489 -0.1542  2.0069 -0.6278
   65MOL    H1610384   4.558   4.283   1.432 -0.1218  0.6687 -1.0893
   65MOL    H1710385   4.645   4.212   1.327  0.3625  0.4374 -0.1213
   65MOL    C1810386   4.772   4.034   1.495  0.3574 -0.9541 -0.1889
   65MOL    C1910387   4.803   3.970   1.352 -0.0231 -0.0839  0.2277
   65MOL    N2010388   4.940   3.921   1.356  0.0570  0.3920 -0.0496
   65MOL    H2110389   4.859   4.088   1.532  1.1712 -1.7940 -0.8787
   65MOL    H2210390   4.752   3.953   1.564 -0.2675  1.0863  2.0966
   65MOL    H2310391   4.803   4.040   1.268  0.7658 -0.2477  0.0885
   65MOL    H2410392   4.976   3.908   1.262 -2.1424 -0.0048 -0.8610
   65MOL    H2510393   5.008   3.970   1.412  0.1632 -0.0658  0.2227
   65MOL    C2610394   4.707   3.854   1.311  0.0702  0.9632  0.4127
   65MOL    C2710395   4.581   3.910   1.254 -0.3016 -0.1456  0.2420
   65MOL    N2810396   4.596   3.887   1.112  0.3035  0.5627 -0.2600
   65MOL    H2910397   4.750   3.774   1.250 -3.8553 -0.3761 -0.7388
   65MOL    H3010398   4.677   3.797   1.399 -1.9099 -0.4727 -1.1346
   65MOL    H3110399   4.581   4.018   1.272  1.5778 -0.1453  0.3104
   65MOL    H3210400   4.669   3.941   1.068  0.3725  0.3014 -0.4660
   65MOL    H3310401   4.512   3.908   1.060  0.1727 -0.8112 -0.6319
   65MOL    C3410402   4.449   3.843   1.315  0.2757 -0.1254 -0.1094
   65MOL    C3510403   4.319   3.904   1.260  0.2207 -0.7916 -0.4655
   65MOL    N3610404   4.215   3.823   1.310 -0.1782  0.3130  0.0182
   65MOL    H3710405   4.449   3.735   1.296  0.5673 -0.1061 -0.2290
   65MOL    H3810406   4.451   3.856   1.423 -0.0063  0.4862 -0.1802
   65MOL    H3910407   4.329   3.896   1.151  1.5367 -1.1895 -0.3204
   65MOL    H4010408   4.135   3.885   1.312 -2.8052 -2.9328  0.4507
   65MOL    H4110409   4.196   3.760   1.233  1.1650  1.3046 -1.1555
   65MOL    C4210410   4.287   4.048   1.306  0.0543  0.1878 -0.2517
   65MOL    C4310411   4.156   4.113   1.250 -0.2828  0.5532 -0.3227
   65MOL    N4410412   4.090   4.208   1.340 -0.6626 -0.1586  0.7775
   65MOL    H4510413   4.272   4.043   1.413 -0.7173 -2.3955 -0.4533
   65MOL    H4610414   4.367   4.120   1.284  0.0354 -0.2222 -1.7497
   65MOL    H4710415   4.088   4.031   1.228  0.1970  0.4255 -1.3352
   65MOL    H4810416   3.991   4.206   1.320 -0.4709  1.1873 -0.3529
   65MOL    H4910417   4.085   4.166   1.432 -0.3982 -0.2373  0.7551
   65MOL    C5010418   4.187   4.207   1.126 -0.5558 -1.0589 -1.0155
   65MOL    C5110419   4.261   4.131   1.013 -0.3776  0.6315 -0.1400
   65MOL    N5210420   4.164   4.044   0.944  0.1288 -0.6263 -0.2694
   65MOL    H5310421   4.103   4.267   1.092 -1.9010 -1.6774  1.1388
   65MOL    H5410422   4.249   4.286   1.167 -1.4357  0.0104 -1.7156
   65MOL    H5510423   4.345   4.069   1.044  0.0413  1.2373 -0.0573
   65MOL    H5610424   4.201   3.993   0.865 -2.5174 -2.6256 -0.3039
   65MOL    H5710425   4.152   3.977   1.019 -0.5306  0.5298  0.6805
   65MOL    C5810426   4.323   4.224   0.907 -0.0151  1.0254  0.5549
   65MOL    C5910427   4.447   4.172   0.828  0.1572  0.0895  0.0886
   65MOL    N6010428   4.470   4.261   0.717  0.5153 -0.9705  0.0025
   65MOL    H6110429   4.236   4.243   0.844 -1.6043 -0.0705  2.3917
   65MOL    H6210430   4.359   4.320   0.945 -0.4979  1.6697 -0.5881
   65MOL    H6310431   4.413   4.074   0.794 -1.2454  0.3206  0.7463
   65MOL    H6410432   4.532   4.231   0.643 -0.9155  0.4284 -1.8249
   65MOL    H6510433   4.385   4.270   0.664  0.5042 -0.6279  0.0781
   65MOL    C6610434   4.576   4.172   0.918 -0.0702 -0.1472 -0.2939
   65MOL    C6710435   4.705   4.107   0.855  0.5916  0.0880 -0.0192
   65MOL    N6810436   4.786   4.083   0.973 -0.1511 -0.5924  0.0782
   65MOL    H6910437   4.597   4.275   0.946  2.8572 -0.2551 -1.8830
   65MOL    H7010438   4.551   4.120   1.010  0.8437 -0.7542 -0.3806
   65MOL    H7110439   4.760   4.172   0.787  1.0540  1.2469  1.4559
   65MOL    H7210440   4.818   4.168   1.016 -0.5225 -0.5726  0.3176
   65MOL    H7310441   4.872   4.038   0.945  0.6677 -0.6396  2.4973
   65MOL    C7410442   4.663   3.974   0.778 -0.2543 -0.2965  0.2018
   65MOL    C7510443   4.775   3.887   0.741  0.0801 -0.1846  0.6076
   65MOL    N7610444   4.709   3.761   0.708  0.1460  0.1936 -0.1270
   65MOL    H7710445   4.593   3.915   0.838  1.9211 -1.0691  2.0659
   65MOL    H7810446   4.610   4.001   0.687 -1.8106 -1.4062  0.7477
   65MOL    H7910447   4.843   3.882   0.826  0.3261  0.1777  0.4333
   65MOL    H8010448   4.771   3.707   0.648  0.0132  0.6812 -0.7005
   65MOL    H8110449   4.707   3.716   0.799 -0.4829  0.6494  0.0785
   65MOL    C8210450   4.860   3.937   0.623 -0.1529 -0.4038  0.5578
   65MOL    C8310451   4.991   4.006   0.678 -0.8749 -0.5634  0.3317
   65MOL    N8410452   5.088   3.898   0.711  0.5544 -0.2515  0.1999
   65MOL    H8510453   4.883   3.871   0.540  0.2681  0.2415  0.1664
   65MOL    H8610454   4.803   4.015   0.572  0.4016 -0.8742 -0.8041
   65MOL    H8710455   4.978   4.071   0.764 -0.9044  0.0648 -0.1409
   65MOL    H8810456   5.046   3.833   0.776  3.2177 -1.7971  0.4456
   65MOL    H8910457   5.160   3.936   0.770  1.0515  0.0128 -0.5710
   65MOL    C9010458   5.044   4.103   0.564 -0.0788  0.2488  0.3504
   65MOL    C9110459   4.998   4.248   0.576  0.0832  0.1697  0.2805
   65MOL    N9210460   5.107   4.344   0.587 -0.4104  0.4026  1.1548
   65MOL    H9310461   5.153   4.105   0.557 -0.0938  1.9442  0.3902
   65MOL    H9410462   5.007   4.071   0.467 -1.0069 -0.1637  0.8358
   65MOL    H9510463   4.942   4.254   0.670 -0.7481  1.0816 -0.2564
   65MOL    H9610464   5.190   4.293   0.616 -0.2664  0.3701  0.6989
   65MOL    H9710465   5.128   4.382   0.496  0.0512  0.5606  1.3220
   65MOL    C9810466   4.901   4.293   0.459  0.1611  0.7923  0.2820
   65MOL    C9910467   4.750   4.299   0.497  0.6261 -1.0010  0.1198
   65MOL   N10010468   4.720   4.409   0.578  0.2646  0.2401 -0.0220
   65MOL   H10110469   4.945   4.380   0.411  2.9128 -0.8938 -0.3987
   65MOL   H10210470   4.908   4.219   0.379 -0.0919  0.5200  0.5128
   65MOL   H10310471   4.742   4.225   0.577  1.4367  0.7364  1.8346
   65MOL   H10410472   4.733   4.494   0.526  0.1798 -0.5716 -1.4212
   65MOL   H10510473   4.625   4.403   0.610  0.4290 -1.7667  0.2007
   65MOL   C10610474   4.648   4.268   0.383 -0.2518 -0.0516 -0.7478
   65MOL   C10710475   4.677   4.300   0.233 -0.1572 -0.6164  0.5348
   65MOL   N10810476   4.592   4.213   0.164  0.4088  0.1536 -0.8939
   65MOL   H10910477   4.637   4.162   0.403 -1.4047  0.1859 -0.1433
   65MOL   H11010478   4.553   4.312   0.414 -0.3044 -0.9901  0.4161
   65MOL   H11110479   4.781   4.288   0.200 -0.3657  1.8122 -1.1611
   65MOL   H11210480   4.593   4.229   0.064 -0.3750 -0.3796 -0.9953
   65MOL   H11310481   4.618   4.116   0.176  1.7583  0.5780 -0.3247
   65MOL   C11410482   4.639   4.443   0.186 -0.3333 -0.4264  0.7804
   65MOL   C11510483   4.719   4.551   0.252 -1.2133  0.2669 -0.1887
   65MOL   N11610484   4.836   4.576   0.169  0.2031  0.3522  0.1917
   65MOL   H11710485   4.649   4.455   0.078 -2.8620 -2.5705  0.2441
   65MOL   H11810486   4.532   4.462   0.201 -0.5720 -0.8283 -0.3995
   65MOL   H11910487   4.746   4.521   0.353  3.9435  1.5293 -1.0957
   65MOL   H12010488   4.866   4.495   0.116 -2.1079  0.9298 -2.0883
   65MOL   H12110489   4.909   4.596   0.236  0.0779 -1.5072  0.9043
   65MOL   C12210490   4.628   4.671   0.281  0.4665  0.2372  0.0325
   65MOL   C12310491   4.538   4.662   0.408 -0.1770  0.3662 -0.9699
   65MOL   N12410492   4.615   4.708   0.522  0.5444  0.0549 -0.2942
   65MOL   H12510493   4.680   4.766   0.289 -1.5025  1.1563  2.7787
   65MOL   H12610494   4.560   4.681   0.196  0.7987  0.7233 -0.1784
   65MOL   H12710495   4.509   4.559   0.427 -0.5439  0.4118 -1.2790
   65MOL   H12810496   4.653   4.801   0.512  0.6265  0.2375  1.5518
   65MOL   H12910497   4.560   4.704   0.607  1.5483 -3.0422  0.2773
   65MOL   C13010498   4.420   4.756   0.402  0.2475 -0.6443  0.2424
   65MOL   C13110499   4.308   4.700   0.323 -0.0301  0.0869 -0.0709
   65MOL   N13210500   4.258   4.577   0.382 -0.7702 -0.2092 -0.3410
   65MOL   H13310501   4.386   4.791   0.499  2.1991 -1.3518  1.1816
   65MOL   H13410502   4.452   4.848   0.352  0.1580 -1.8806 -2.1686
   65MOL   H13510503   4.350   4.678   0.224  3.1266  1.0385  1.0085
   65MOL   H13610504   4.334   4.512   0.393  0.3372  1.5658  3.2779
   65MOL   H13710505   4.190   4.532   0.322 -1.7516  2.1158 -1.0196
   65MOL   C13810506   4.194   4.802   0.300  0.1200  0.4208  0.3852
   65MOL   C13910507   4.224   4.920   0.201 -0.3267  0.0748  0.7404
   65MOL   N14010508   4.167   4.894   0.075 -0.2263  0.3482  0.4854
   65MOL   H14110509   4.105   4.754   0.260  0.4335  2.3377 -2.8285
   65MOL   H14210510   4.170   4.849   0.395  0.9689  1.5388  0.0625
   65MOL   H14310511   4.330   4.939   0.184 -0.1129 -0.4913  1.3906
   65MOL   H14410512   4.176   4.982   0.026  1.5686 -0.9429 -1.6376
   65MOL   H14510513   4.069   4.873   0.083 -0.3139 -1.6618 -4.0948
   65MOL   C14610514   4.163   5.052   0.248  0.5162 -0.0823  0.0534
   65MOL   C14710515   4.230   5.122   0.364  0.2906 -0.6369 -0.5478
   65MOL   N14810516   4.325   5.224   0.312 -0.0463  0.6303 -0.5470
   65MOL   H14910517   4.154   5.121   0.163  1.5771  0.2551  0.2065
   65MOL   H15010518   4.062   5.032   0.283  0.6255  0.7924  0.9047
   65MOL   H15110519   4.301   5.049   0.405 -0.8272 -1.7714 -0.6254
   65MOL   H15210520   4.413   5.191   0.350  0.1738  2.3862  0.4932
   65MOL   H15310521   4.342   5.204   0.214  1.5769  0.0698 -0.1753
   65MOL   C15410522   4.144   5.180   0.475 -0.3321  0.6931  0.4326
   65MOL   C15510523   4.083   5.071   0.569  0.3752 -0.2473 -0.7836
   65MOL   N15610524   4.030   5.131   0.684  0.0874 -0.1721 -0.5833
   65MOL   H15710525   4.218   5.236   0.532  0.6197  1.8193 -1.8389
   65MOL   H15810526   4.076   5.258   0.441 -0.7760  1.4997  3.1220
   65MOL   H15910527   4.153   4.992   0.595  0.8144 -0.0592 -1.3811
   65MOL   H16010528   4.099   5.158   0.753 -0.6001  0.4668 -0.1453
   65MOL   H16110529   3.989   5.059   0.742  0.2755  1.7323  1.9749
   65MOL   H16210530   3.991   5.034   0.523 -0.4672 -3.3304  3.0718
   66MOL     C110531   2.475   5.015   6.546  0.4078 -0.3561 -0.4946
   66MOL     C210532   2.408   5.143   6.587  0.5552 -0.6492  0.4999
   66MOL     N310533   2.514   5.242   6.601  0.2838 -0.7878  0.2102
   66MOL     H410534   2.517   5.016   6.445  3.6423  2.4781  0.7640
   66MOL     H510535   2.409   4.929   6.539  0.0089 -0.2243  1.3966
   66MOL     H610536   2.357   5.115   6.680  0.4633  0.7759  0.8836
   66MOL     H710537   2.574   5.250   6.520 -0.3561  2.4495 -0.0199
   66MOL     H810538   2.574   5.208   6.674 -0.4842 -1.9081  0.3193
   66MOL     H910539   2.557   4.997   6.615  1.2038 -0.0898 -1.3617
   66MOL    C1010540   2.309   5.203   6.487  0.5347 -0.6064  0.4528
   66MOL    C1110541   2.170   5.126   6.480 -0.4047  0.0274  0.2932
   66MOL    N1210542   2.111   5.142   6.613  0.3790 -0.1950 -0.4808
   66MOL    H1310543   2.277   5.301   6.523  0.4330 -0.5056  0.0914
   66MOL    H1410544   2.360   5.214   6.391  0.2549 -1.1568  0.2365
   66MOL    H1510545   2.188   5.019   6.467 -0.5228 -0.0225  0.5267
   66MOL    H1610546   2.041   5.069   6.624  0.3630 -0.5137 -2.4551
   66MOL    H1710547   2.182   5.126   6.683  2.4641  1.2862 -2.1768
   66MOL    C1810548   2.069   5.184   6.378  0.2071  0.3979  0.1086
   66MOL    C1910549   2.052   5.096   6.250  0.3526 -0.5768 -0.5801
   66MOL    N2010550   1.951   5.160   6.162  0.0919  0.7452  0.3951
   66MOL    H2110551   1.968   5.180   6.418  0.2758  1.7310  0.4499
   66MOL    H2210552   2.100   5.285   6.349  1.2047 -0.3708 -1.5688
   66MOL    H2310553   2.007   5.002   6.284  0.1695  0.3688  1.9310
   66MOL    H2410554   1.996   5.243   6.128  0.7875  0.4759  0.6467
   66MOL    H2510555   1.881   5.194   6.227  0.1191  0.4833  0.5634
   66MOL    C2610556   2.188   5.077   6.171  0.5055  0.5153 -0.1685
   66MOL    C2710557   2.185   5.000   6.047 -0.3485 -0.4787 -0.1836
   66MOL    N2810558   2.322   5.013   5.993 -0.2388  1.0368  0.3054
   66MOL    H2910559   2.236   5.173   6.155 -0.0594  0.6199 -1.3327
   66MOL    H3010560   2.255   5.026   6.240 -0.2769 -0.1024  0.1565
   66MOL    H3110561   2.114   5.057   5.987 -0.7246  1.8057  2.3400
   66MOL    H3210562   2.385   4.975   6.062 -2.3054 -1.6216  0.8075
   66MOL    H3310563   2.327   4.951   5.913 -0.0925  1.3899  0.0387
   66MOL    C3410564   2.155   4.845   6.064 -0.3305  0.0052 -0.2100
   66MOL    C3510565   2.120   4.765   5.940  0.1392 -0.2874 -0.8900
   66MOL    N3610566   2.129   4.619   5.969  0.5566 -0.7851  0.1677
   66MOL    H3710567   2.240   4.799   6.115  0.5381  2.5586  0.7091
   66MOL    H3810568   2.069   4.843   6.130 -2.1274 -0.2413 -2.4866
   66MOL    H3910569   2.208   4.769   5.875  0.6739 -0.7703 -0.2086
   66MOL    H4010570   2.041   4.589   6.008 -0.2715 -0.1097 -1.1423
   66MOL    H4110571   2.128   4.576   5.877 -2.4954 -1.0196  0.2637
   66MOL    C4210572   1.988   4.793   5.865 -0.2007 -0.1992 -0.1893
   66MOL    C4310573   1.991   4.921   5.773  0.0639 -0.2377 -0.5970
   66MOL    N4410574   2.081   4.884   5.660 -0.1600 -0.2794 -0.2583
   66MOL    H4510575   1.944   4.715   5.802  1.5745  1.0326 -3.0690
   66MOL    H4610576   1.908   4.819   5.934 -0.3481  0.5347 -0.6265
   66MOL    H4710577   2.032   5.003   5.832 -0.2696 -0.2890 -0.2906
   66MOL    H4810578   2.178   4.897   5.685 -0.0126  3.6264 -2.5509
   66MOL    H4910579   2.068   4.792   5.620  2.2809 -0.9722  0.4379
   66MOL    C5010580   1.848   4.956   5.725  0.9558 -0.3847  0.5071
   66MOL    C5110581   1.769   5.027   5.837 -0.3916 -0.4558 -0.1821
   66MOL    N5210582   1.820   5.161   5.861 -0.4440  0.4802 -0.0015
   66MOL    H5310583   1.848   5.014   5.633  0.0026 -0.5896  0.3727
   66MOL    H5410584   1.804   4.861   5.692  1.1909 -1.1425  2.3004
   66MOL    H5510585   1.775   4.975   5.933 -1.6195 -1.5231 -0.6634
   66MOL    H5610586   1.895   5.156   5.929 -0.5648  1.9891  0.2765
   66MOL    H5710587   1.756   5.204   5.926 -0.9177  0.5445 -0.5074
   66MOL    C5810588   1.614   5.043   5.803 -0.5696  1.1643 -0.4493
   66MOL    C5910589   1.536   4.911   5.812  0.1235 -0.6953 -0.5051
   66MOL    N6010590   1.484   4.902   5.947  0.0110 -0.0016  0.5121
   66MOL    H6110591   1.575   5.107   5.882 -0.5047  2.1157 -1.1705
   66MOL    H6210592   1.601   5.085   5.703 -0.9778  0.2380 -0.7883
   66MOL    H6310593   1.588   4.821   5.778  1.7885  0.0524  0.0651
   66MOL    H6410594   1.438   4.992   5.958 -2.0071 -1.0750  1.1564
   66MOL    H6510595   1.568   4.892   6.003  0.1817 -2.1873 -0.1074
   66MOL    C6610596   1.409   4.908   5.721 -0.4856 -0.0522 -0.1956
   66MOL    C6710597   1.431   4.835   5.582  0.2549 -0.6513 -0.4228
   66MOL    N6810598   1.306   4.813   5.505 -0.4055 -0.5985  0.1640
   66MOL    H6910599   1.329   4.853   5.771  0.2906 -2.3787 -1.4598
   66MOL    H7010600   1.360   5.002   5.698 -2.2792 -0.4927  1.6857
   66MOL    H7110601   1.482   4.741   5.608 -1.0263 -0.9695  0.9964
   66MOL    H7210602   1.335   4.763   5.422  0.4192 -2.4747  1.5298
   66MOL    H7310603   1.241   4.758   5.559 -2.3262  1.7103  0.2889
   66MOL    C7410604   1.533   4.899   5.481 -0.1937  0.2753 -0.5711
   66MOL    C7510605   1.593   4.800   5.382  0.0331  0.5583  0.8764
   66MOL    N7610606   1.645   4.867   5.266 -0.2863  0.1031 -0.1617
   66MOL    H7710607   1.465   4.966   5.428 -1.1614 -1.1263 -1.1243
   66MOL    H7810608   1.614   4.957   5.527 -0.9799  0.2150  0.9502
   66MOL    H7910609   1.506   4.742   5.352  1.1911 -0.8925  0.2336
   66MOL    H8010610   1.577   4.930   5.224  0.4355  0.1876 -1.2256
   66MOL    H8110611   1.730   4.921   5.272  1.2100 -2.0833 -1.1022
   66MOL    C8210612   1.707   4.720   5.445  1.1843 -0.5115  0.4508
   66MOL    C8310613   1.763   4.599   5.367 -0.0110  0.0265 -0.5414
   66MOL    N8410614   1.883   4.555   5.433 -0.2696 -0.0672  0.3299
   66MOL    H8510615   1.784   4.791   5.473  0.0760  0.3695  1.3522
   66MOL    H8610616   1.667   4.678   5.538 -0.7675 -1.5612 -0.8001
   66MOL    H8710617   1.774   4.634   5.264  2.1281 -3.2852 -1.5223
   66MOL    H8810618   1.949   4.632   5.426 -1.0715  0.5981 -0.0096
   66MOL    H8910619   1.920   4.478   5.378 -0.1825 -0.8148  1.4375
   66MOL    C9010620   1.666   4.481   5.378 -0.0208  0.0998  0.8736
   66MOL    C9110621   1.611   4.440   5.244 -0.2779  0.2716  0.4906
   66MOL    N9210622   1.552   4.312   5.254 -0.0964 -0.3171  0.6931
   66MOL    H9310623   1.723   4.397   5.419  2.1802  1.7126  1.2232
   66MOL    H9410624   1.585   4.512   5.444  0.8194  2.4378  0.8616
   66MOL    H9510625   1.689   4.421   5.170 -0.4331 -0.7543  0.5806
   66MOL    H9610626   1.484   4.303   5.328 -0.6868 -2.1117 -0.0471
   66MOL    H9710627   1.508   4.277   5.170  2.0297 -0.5152 -0.3808
   66MOL    C9810628   1.519   4.545   5.175  0.1671  0.4265  0.4769
   66MOL    C9910629   1.477   4.520   5.025 -0.3949  0.0191  0.4225
   66MOL   N10010630   1.347   4.580   5.003 -0.4128  0.1655  0.3789
   66MOL   H10110631   1.422   4.549   5.225  0.0009 -0.7897  0.2659
   66MOL   H10210632   1.563   4.644   5.179  0.8387  0.2568 -2.2419
   66MOL   H10310633   1.448   4.415   5.027 -0.0130 -0.1342 -1.1709
   66MOL   H10410634   1.271   4.563   5.068 -0.1249 -0.5063  0.5513
   66MOL   H10510635   1.358   4.680   4.998  0.2238  0.3093  3.5500
   66MOL   C10610636   1.585   4.538   4.921 -1.0139 -0.1325  0.0594
   66MOL   C10710637   1.529   4.540   4.775 -0.7757 -1.2476  0.2037
   66MOL   N10810638   1.633   4.604   4.687  0.1426 -0.3134 -0.2179
   66MOL   H10910639   1.642   4.629   4.940 -1.4076  0.7992 -2.9286
   66MOL   H11010640   1.661   4.460   4.917  0.3284  1.1672 -0.3944
   66MOL   H11110641   1.437   4.598   4.769 -0.9670 -1.0761  3.9460
   66MOL   H11210642   1.717   4.548   4.695  0.3170  0.0020  0.1888
   66MOL   H11310643   1.670   4.689   4.727  1.5206 -0.5518 -0.9588
   66MOL   C11410644   1.505   4.406   4.706  0.3070  0.7286 -0.6459
   66MOL   C11510645   1.432   4.298   4.791  0.1235  0.7465  0.1737
   66MOL   N11610646   1.303   4.348   4.830 -0.6128 -0.0011 -0.2070
   66MOL   H11710647   1.445   4.438   4.621 -0.2065  1.5755  0.0298
   66MOL   H11810648   1.594   4.362   4.660  0.2771  0.8266 -0.7954
   66MOL   H11910649   1.494   4.263   4.873  1.1162  1.0429 -0.4499
   66MOL   H12010650   1.314   4.428   4.891  2.5908 -0.5351  0.0329
   66MOL   H12110651   1.255   4.273   4.879  2.9701 -1.7716  0.7797
   66MOL   C12210652   1.404   4.170   4.701  0.0672  0.4609  0.1938
   66MOL   C12310653   1.488   4.047   4.739 -0.2751 -0.0651 -0.1140
   66MOL   N12410654   1.439   3.925   4.667 -0.3959 -0.2348  0.5554
   66MOL   H12510655   1.299   4.144   4.703 -1.1682  4.9556  1.1182
   66MOL   H12610656   1.416   4.199   4.597 -1.7330 -0.8884 -0.4024
   66MOL   H12710657   1.467   4.020   4.843  1.8972 -0.9844  0.1229
   66MOL   H12810658   1.338   3.926   4.669 -0.5123 -2.5104 -1.7693
   66MOL   H12910659   1.468   3.841   4.716  1.0275  1.8662  3.4542
   66MOL   C13010660   1.641   4.062   4.706  0.0728  0.8349  0.5308
   66MOL   C13110661   1.744   3.992   4.801 -0.3951 -0.1460 -0.6171
   66MOL   N13210662   1.810   3.887   4.732  0.0675 -0.1564  0.0060
   66MOL   H13310663   1.662   4.024   4.606 -0.4102 -1.5157  1.2912
   66MOL   H13410664   1.665   4.168   4.703 -0.2118  0.9133  0.9621
   66MOL   H13510665   1.680   3.956   4.882  0.1502  2.9352  1.2429
   66MOL   H13610666   1.837   3.823   4.804  1.5766 -0.4853 -0.8280
   66MOL   H13710667   1.740   3.830   4.687  1.2108 -1.9951  0.5221
   66MOL   C13810668   1.852   4.089   4.856  0.3437  0.5026  0.2786
   66MOL   C13910669   1.806   4.207   4.942 -0.3613 -0.0996 -0.4426
   66MOL   N14010670   1.764   4.170   5.077 -0.0226 -0.0923  0.6796
   66MOL   H14110671   1.921   4.032   4.919 -2.4693 -0.5238  2.5795
   66MOL   H14210672   1.912   4.129   4.774  1.0085 -1.1278 -0.0453
   66MOL   H14310673   1.722   4.263   4.898 -0.6704 -0.3274 -0.1439
   66MOL   H14410674   1.725   4.248   5.127  1.4367  0.5153  0.9029
   66MOL   H14510675   1.700   4.092   5.067  2.3266 -1.9944 -0.0037
   66MOL   C14610676   1.918   4.312   4.960  0.0393 -0.0882 -0.8226
   66MOL   C14710677   1.969   4.393   4.834 -0.7565 -0.3570 -0.5092
   66MOL   N14810678   1.903   4.517   4.842 -0.2510  0.8193 -0.4084
   66MOL   H14910679   1.879   4.378   5.036  2.0053  0.3493 -0.1794
   66MOL   H15010680   1.993   4.248   5.006 -0.6535  1.5790  2.7338
   66MOL   H15110681   1.950   4.351   4.735 -0.5984  2.6659 -1.8531
   66MOL   H15210682   1.935   4.590   4.780  2.0200 -0.1289 -0.3711
   66MOL   H15310683   1.902   4.551   4.937 -0.2873 -1.2387  0.3557
   66MOL   C15410684   2.112   4.433   4.834 -0.1953  0.4569 -0.2843
   66MOL   C15510685   2.204   4.311   4.835 -0.1763 -0.0845 -0.2404
   66MOL   N15610686   2.328   4.363   4.789  0.3246 -0.1918  0.0157
   66MOL   H15710687   2.124   4.496   4.746  2.7754 -0.8143 -0.8101
   66MOL   H15810688   2.143   4.496   4.917  0.1979  0.5465 -0.5019
   66MOL   H15910689   2.163   4.234   4.768 -0.4167  0.1666 -0.3863
   66MOL   H16010690   2.394   4.287   4.781 -0.3499 -0.9495  1.5677
   66MOL   H16110691   2.364   4.431   4.855  0.5944 -0.6244  0.3194
   66MOL   H16210692   2.209   4.266   4.934 -1.0319  2.3974  0.9750
   67MOL     C110693   2.355   2.018   5.686 -0.6771  0.0456  0.0641
   67MOL     C210694   2.250   2.081   5.597  0.0767 -0.7238  0.4944
   67MOL     N310695   2.189   2.194   5.667  0.3907  0.1332 -0.0406
   67MOL     H410696   2.440   2.085   5.703 -0.3646  0.0878 -1.5962
   67MOL     H510697   2.395   1.927   5.641 -0.6488  0.3234 -0.4720
   67MOL     H610698   2.173   2.005   5.581  0.5171 -1.1904  0.5877
   67MOL     H710699   2.100   2.220   5.626  0.7532  2.5974  0.6396
   67MOL     H810700   2.179   2.174   5.765  1.2420  0.0572  0.0344
   67MOL     H910701   2.312   1.981   5.779 -0.6770 -1.3186 -0.4689
   67MOL    C1010702   2.305   2.130   5.462 -0.4393  0.1428  0.4749
   67MOL    C1110703   2.347   2.008   5.380 -1.1061 -0.1728 -1.4305
   67MOL    N1210704   2.241   1.946   5.308  0.7165  0.5145  0.3502
   67MOL    H1310705   2.220   2.177   5.412  0.6918 -0.4971 -2.1359
   67MOL    H1410706   2.385   2.200   5.486  0.1512 -0.3391 -0.0802
   67MOL    H1510707   2.391   1.933   5.445 -1.6717  0.6952 -0.0312
   67MOL    H1610708   2.290   1.915   5.226  2.8213 -0.9397  2.0979
   67MOL    H1710709   2.235   1.863   5.366 -1.5137  0.3870 -0.0303
   67MOL    C1810710   2.457   2.053   5.273 -0.4625 -0.2656 -0.1745
   67MOL    C1910711   2.523   1.950   5.177  0.1560 -0.4529 -0.6382
   67MOL    N2010712   2.613   2.010   5.079 -0.4319  0.0199  0.4045
   67MOL    H2110713   2.401   2.123   5.212  1.6876 -0.5536 -2.5804
   67MOL    H2210714   2.532   2.108   5.331  0.8970  0.3580 -2.4490
   67MOL    H2310715   2.438   1.920   5.115 -1.2697  0.9112  0.6010
   67MOL    H2410716   2.712   1.999   5.098 -0.3625  0.1178  0.0984
   67MOL    H2510717   2.590   1.976   4.986 -1.7127  0.1750  0.6552
   67MOL    C2610718   2.584   1.835   5.252 -0.6736  0.0244  0.1151
   67MOL    C2710719   2.660   1.732   5.174  0.2658 -0.2475 -0.4418
   67MOL    N2810720   2.756   1.662   5.263  0.5918  0.0698  0.4943
   67MOL    H2910721   2.644   1.882   5.330 -2.7803  0.5888  1.4313
   67MOL    H3010722   2.503   1.786   5.307 -0.0951 -5.2039 -3.3712
   67MOL    H3110723   2.736   1.788   5.119  0.7327  3.1672  3.4471
   67MOL    H3210724   2.815   1.734   5.301  0.1468  0.3947  0.5677
   67MOL    H3310725   2.808   1.593   5.210  1.7962  0.5947  0.9765
   67MOL    C3410726   2.592   1.629   5.084  0.6621 -0.7065 -0.0563
   67MOL    C3510727   2.547   1.685   4.950 -0.3861 -0.0388 -0.3536
   67MOL    N3610728   2.663   1.748   4.887 -0.3221  0.6868  0.2501
   67MOL    H3710729   2.662   1.546   5.070  1.6834 -0.0551  1.0133
   67MOL    H3810730   2.508   1.580   5.132 -0.0227  0.0246 -0.5081
   67MOL    H3910731   2.474   1.762   4.973  0.8487  0.7824  0.8983
   67MOL    H4010732   2.636   1.800   4.804 -0.4455  2.4126  1.3454
   67MOL    H4110733   2.725   1.678   4.847  0.0065  1.6934 -1.0575
   67MOL    C4210734   2.481   1.581   4.853 -0.3965 -0.7885 -0.2948
   67MOL    C4310735   2.355   1.518   4.911 -0.3527 -0.3969  0.3193
   67MOL    N4410736   2.256   1.624   4.931  0.0761 -0.3406 -0.2458
   67MOL    H4510737   2.463   1.626   4.756  0.0934  0.2011  0.0718
   67MOL    H4610738   2.545   1.494   4.835 -0.9343 -1.2682  0.0811
   67MOL    H4710739   2.388   1.467   5.002  1.1343  0.5660  0.3390
   67MOL    H4810740   2.198   1.645   4.852 -0.4524  1.6126  0.6485
   67MOL    H4910741   2.306   1.710   4.948 -1.4402  0.2413  1.5059
   67MOL    C5010742   2.285   1.420   4.815  0.0516 -0.0086 -0.0174
   67MOL    C5110743   2.352   1.281   4.808  0.0894  0.4737 -0.3080
   67MOL    N5210744   2.326   1.203   4.928  0.3675 -0.2615  0.1857
   67MOL    H5310745   2.186   1.400   4.856 -0.7307 -0.8938 -2.2840
   67MOL    H5410746   2.269   1.471   4.720  0.9427 -0.8251 -0.6201
   67MOL    H5510747   2.458   1.283   4.782  0.6840  3.4414  2.0431
   67MOL    H5610748   2.372   1.249   5.005 -1.4627  1.4832  0.2901
   67MOL    H5710749   2.367   1.111   4.917 -2.3120 -1.3434 -1.1651
   67MOL    C5810750   2.280   1.195   4.703  0.2323  0.1956 -0.0713
   67MOL    C5910751   2.311   1.226   4.552 -0.6357 -0.6614 -0.5965
   67MOL    N6010752   2.447   1.193   4.514  0.1125 -0.4165 -0.6290
   67MOL    H6110753   2.324   1.096   4.711  1.3415  0.5895 -1.1556
   67MOL    H6210754   2.172   1.194   4.717  0.1031  3.3034 -0.4407
   67MOL    H6310755   2.289   1.326   4.517 -1.8980 -0.6034  0.3345
   67MOL    H6410756   2.506   1.230   4.586 -1.6980 -1.1599  1.3028
   67MOL    H6510757   2.480   1.228   4.426 -0.7148  2.1945  0.0763
   67MOL    C6610758   2.225   1.134   4.454  0.4803  0.4507  0.3745
   67MOL    C6710759   2.066   1.125   4.463 -0.4846 -0.5099 -0.3902
   67MOL    N6810760   2.007   1.239   4.400  0.3668  0.0488  0.3514
   67MOL    H6910761   2.250   1.147   4.349 -1.5609  0.5695 -0.1179
   67MOL    H7010762   2.263   1.035   4.479 -0.1322 -0.1957 -1.2051
   67MOL    H7110763   2.028   1.134   4.564  0.0208  0.4746 -0.2710
   67MOL    H7210764   1.917   1.223   4.358 -0.1515  0.9656  1.0773
   67MOL    H7310765   2.056   1.273   4.319 -1.0423 -0.8957 -0.9063
   67MOL    C7410766   1.997   1.001   4.403 -0.1045 -0.5657  0.8532
   67MOL    C7510767   2.039   0.863   4.462 -0.1109  0.7246  0.3146
   67MOL    N7610768   2.005   0.862   4.605  0.2056 -0.6675 -0.0890
   67MOL    H7710769   1.889   1.014   4.410 -0.2279 -0.5490 -0.7146
   67MOL    H7810770   2.022   0.996   4.296  0.7878  0.8882  0.9730
   67MOL    H7910771   2.145   0.844   4.449 -0.0880 -1.9406  3.7635
   67MOL    H8010772   2.058   0.782   4.636 -2.6354 -1.9853  1.6169
   67MOL    H8110773   2.043   0.943   4.652  0.3632 -0.2536 -0.9111
   67MOL    C8210774   1.972   0.758   4.374  0.4192 -0.0598  0.8390
   67MOL    C8310775   2.068   0.692   4.267  0.1503  0.6127 -0.1566
   67MOL    N8410776   2.163   0.601   4.325  0.0080 -0.0184  0.4887
   67MOL    H8510777   1.938   0.680   4.441  0.5148  0.4450  1.4771
   67MOL    H8610778   1.881   0.792   4.324  0.5098 -0.9430  0.0630
   67MOL    H8710779   2.120   0.772   4.215  2.1102  0.1829  1.1183
   67MOL    H8810780   2.126   0.565   4.412 -3.3811  1.5457 -0.2240
   67MOL    H8910781   2.166   0.523   4.261 -1.7140  1.7178 -1.8002
   67MOL    C9010782   1.977   0.615   4.164 -0.2039  0.3878 -0.2524
   67MOL    C9110783   1.908   0.684   4.044  0.0693 -0.2650 -0.2979
   67MOL    N9210784   1.790   0.767   4.084 -0.0795  0.3240 -0.8771
   67MOL    H9310785   2.040   0.538   4.119  0.1257  1.1128 -1.0389
   67MOL    H9410786   1.902   0.557   4.218  1.6747  0.9397  3.1285
   67MOL    H9510787   1.875   0.606   3.976  0.2879 -1.3160  0.7767
   67MOL    H9610788   1.705   0.714   4.097 -0.2234  0.3635 -1.6457
   67MOL    H9710789   1.757   0.817   4.003  0.2701  0.3637 -0.9988
   67MOL    C9810790   2.007   0.770   3.965  0.4435  0.0978 -0.1708
   67MOL    C9910791   1.975   0.785   3.812  0.4059  0.6715 -0.0440
   67MOL   N10010792   2.057   0.894   3.767 -0.1617 -0.2512  0.4854
   67MOL   H10110793   2.004   0.868   4.011 -5.1752  0.4383 -0.9036
   67MOL   H10210794   2.108   0.731   3.984  1.0726  1.4313 -0.7317
   67MOL   H10310795   1.871   0.820   3.811  0.4099  0.7097  0.5709
   67MOL   H10410796   2.145   0.869   3.810  0.7335  3.5921  1.0821
   67MOL   H10510797   2.034   0.977   3.820 -1.1787 -1.6502  2.2856
   67MOL   C10610798   1.991   0.661   3.722  0.0735  0.7688  0.0572
   67MOL   C10710799   1.897   0.665   3.600 -0.6214 -0.0212 -1.0304
   67MOL   N10810800   1.938   0.557   3.513  0.4963 -0.0692 -0.1357
   67MOL   H10910801   2.094   0.649   3.688 -0.0443  2.7224 -1.0226
   67MOL   H11010802   1.968   0.578   3.789  2.1423  1.1390  1.2816
   67MOL   H11110803   1.907   0.765   3.557  0.7006  1.0781  1.7337
   67MOL   H11210804   1.880   0.550   3.430 -2.0416 -1.3141  1.6927
   67MOL   H11310805   2.029   0.580   3.475  0.8499 -0.4818  0.4545
   67MOL   C11410806   1.755   0.638   3.639  0.7223 -0.1211 -0.4661
   67MOL   C11510807   1.639   0.687   3.548 -0.0806  0.0713  0.5522
   67MOL   N11610808   1.511   0.702   3.609  0.0801  0.1239  0.7411
   67MOL   H11710809   1.752   0.529   3.646  1.5695 -0.1099  0.1405
   67MOL   H11810810   1.735   0.677   3.739 -2.5822 -1.3797 -0.5784
   67MOL   H11910811   1.633   0.618   3.464 -0.4128  1.1011 -0.2971
   67MOL   H12010812   1.459   0.781   3.574  0.0948 -0.2650 -0.1940
   67MOL   H12110813   1.532   0.731   3.703  0.3227  0.8231  0.4719
   67MOL   C12210814   1.656   0.829   3.490  0.6642  0.4590  0.7335
   67MOL   C12310815   1.543   0.888   3.392 -0.1205  0.1080 -0.0399
   67MOL   N12410816   1.421   0.922   3.466  0.6361 -0.8329  0.2848
   67MOL   H12510817   1.667   0.907   3.565 -3.7584  0.0379  1.9118
   67MOL   H12610818   1.746   0.825   3.429 -0.6111  1.1485 -1.2250
   67MOL   H12710819   1.514   0.809   3.324  1.9859  0.1611 -1.0332
   67MOL   H12810820   1.352   0.963   3.405  0.2631 -1.1756  0.4753
   67MOL   H12910821   1.415   0.990   3.541  3.3084 -0.9588  0.6847
   67MOL   C13010822   1.593   1.017   3.321 -0.0364  0.3101  0.7777
   67MOL   C13110823   1.688   1.005   3.206 -0.8883  0.1403 -0.5261
   67MOL   N13210824   1.609   0.961   3.087 -0.3353  0.2639  0.0034
   67MOL   H13310825   1.511   1.083   3.294  0.0651 -0.1259 -0.6164
   67MOL   H13410826   1.641   1.082   3.394  1.5156  0.0097  0.0431
   67MOL   H13510827   1.760   0.926   3.226 -1.1684  0.0931  0.3167
   67MOL   H13610828   1.547   1.037   3.063 -0.9589 -1.1945 -3.2148
   67MOL   H13710829   1.553   0.878   3.100  1.1758 -0.6601  0.6588
   67MOL   C13810830   1.742   1.145   3.161 -0.7420  0.3105 -0.0950
   67MOL   C13910831   1.871   1.204   3.224 -0.2255 -0.8197 -0.5204
   67MOL   N14010832   1.890   1.336   3.164 -0.8271  0.0980  0.3120
   67MOL   H14110833   1.741   1.151   3.052 -1.0803  0.6649 -0.0750
   67MOL   H14210834   1.659   1.215   3.174 -1.1050 -0.2338  0.6111
   67MOL   H14310835   1.962   1.155   3.190  1.5794  1.7095  0.4642
   67MOL   H14410836   1.908   1.319   3.066 -2.2556 -0.4683  0.1367
   67MOL   H14510837   1.982   1.373   3.181 -0.3285 -1.5010  1.2332
   67MOL   C14610838   1.879   1.220   3.377  0.2743  0.6996 -0.4598
   67MOL   C14710839   2.024   1.236   3.434  0.1149  0.6768 -0.0162
   67MOL   N14810840   2.023   1.344   3.527  0.5124 -0.1041  0.3162
   67MOL   H14910841   1.816   1.301   3.416 -0.1200 -0.2219  0.8608
   67MOL   H15010842   1.833   1.130   3.417  0.4655  0.4639 -0.7764
   67MOL   H15110843   2.092   1.288   3.366 -1.2048  1.4820 -0.7566
   67MOL   H15210844   1.935   1.346   3.575  0.5101  1.2357  0.2741
   67MOL   H15310845   2.017   1.429   3.472  0.7733 -0.1783  0.1737
   67MOL   C15410846   2.100   1.116   3.493  0.4380  0.0510 -0.3673
   67MOL   C15510847   2.120   1.002   3.399  0.3018  0.1054 -0.2885
   67MOL   N15610848   2.166   0.881   3.462  0.8321 -0.1127  0.2174
   67MOL   H15710849   2.198   1.146   3.530  1.0062 -2.8261  0.6258
   67MOL   H15810850   2.049   1.079   3.582 -0.7550  2.7123  0.1044
   67MOL   H15910851   2.198   1.028   3.328  0.0041 -0.3266 -0.7823
   67MOL   H16010852   2.247   0.914   3.512  0.7750  2.4797 -1.3282
   67MOL   H16110853   2.100   0.865   3.537 -0.0650  1.7815 -0.1425
   67MOL   H16210854   2.036   0.978   3.332  1.0401 -0.7801 -0.9029
   68MOL     C110855   5.222   0.857   4.233 -0.0234 -0.0731 -0.2155
   68MOL     C210856   5.292   0.790   4.121 -0.1591 -0.0938 -0.0031
   68MOL     N310857   5.429   0.773   4.147 -0.3044 -0.1392  0.0210
   68MOL     H410858   5.272   0.949   4.262  2.0192 -0.5449 -2.0895
   68MOL     H510859   5.210   0.796   4.322  0.2328  0.4685  0.1926
   68MOL     H610860   5.285   0.852   4.031 -1.2974 -1.4431 -0.8751
   68MOL     H710861   5.470   0.687   4.115 -0.7591 -0.7617  1.0857
   68MOL     H810862   5.464   0.853   4.096 -0.9415  1.9188  2.6845
   68MOL     H910863   5.117   0.873   4.208 -0.2175  1.2947  1.3934
   68MOL    C1010864   5.237   0.650   4.075  0.1937 -0.5676 -0.5315
   68MOL    C1110865   5.270   0.597   3.935 -0.0225  0.2246 -0.1167
   68MOL    N1210866   5.218   0.467   3.936  0.2920  0.3176  0.0085
   68MOL    H1310867   5.270   0.583   4.154  1.8020  0.9206  0.1003
   68MOL    H1410868   5.129   0.659   4.089  0.2186  0.4395 -0.9156
   68MOL    H1510869   5.378   0.611   3.928 -0.0859 -0.2283 -2.2644
   68MOL    H1610870   5.203   0.438   3.841 -2.1440  0.5324  0.2982
   68MOL    H1710871   5.287   0.403   3.974 -0.2670  0.6391  1.6316
   68MOL    C1810872   5.199   0.677   3.819 -0.0845  0.7058  0.2053
   68MOL    C1910873   5.277   0.654   3.689 -0.4832  0.0020  0.6804
   68MOL    N2010874   5.192   0.704   3.583  0.7131 -0.0930  0.8424
   68MOL    H2110875   5.095   0.644   3.815 -0.0189  0.0380  2.9233
   68MOL    H2210876   5.181   0.782   3.840  1.4835  0.8103  1.1233
   68MOL    H2310877   5.292   0.547   3.675  2.1958  0.4886 -0.5456
   68MOL    H2410878   5.243   0.687   3.497 -2.6983  0.9858 -1.4867
   68MOL    H2510879   5.114   0.641   3.582 -1.1526  2.1244  1.7560
   68MOL    C2610880   5.415   0.716   3.689 -0.3002 -0.0805  0.9675
   68MOL    C2710881   5.498   0.685   3.563 -0.0110  0.1937  0.2658
   68MOL    N2810882   5.551   0.807   3.510 -0.6242  0.3706  0.2261
   68MOL    H2910883   5.390   0.822   3.703 -3.2693 -0.3144 -1.8993
   68MOL    H3010884   5.477   0.708   3.778  0.3276 -1.1337  0.4353
   68MOL    H3110885   5.432   0.638   3.490 -1.2083 -0.1676  1.5598
   68MOL    H3210886   5.467   0.849   3.473 -0.3396  0.9195  0.1821
   68MOL    H3310887   5.569   0.861   3.594 -0.5169  0.2123  0.3049
   68MOL    C3410888   5.622   0.595   3.579 -0.2179 -0.3430 -0.2796
   68MOL    C3510889   5.604   0.448   3.633 -0.3174  0.2510 -0.3131
   68MOL    N3610890   5.539   0.372   3.535 -0.5055  0.5647 -0.3427
   68MOL    H3710891   5.672   0.585   3.482 -1.1138  2.2314 -1.0614
   68MOL    H3810892   5.684   0.631   3.660 -1.1601 -1.2558  0.8597
   68MOL    H3910893   5.541   0.454   3.722 -2.4601 -0.1958 -1.7560
   68MOL    H4010894   5.604   0.315   3.482  0.0518  1.7489 -0.9619
   68MOL    H4110895   5.495   0.430   3.464  0.3149  0.9100 -0.5802
   68MOL    C4210896   5.720   0.375   3.684 -0.1165 -0.4051 -0.0133
   68MOL    C4310897   5.835   0.451   3.758 -0.1545 -0.1618 -0.1568
   68MOL    N4410898   5.906   0.361   3.846 -0.2969 -0.5637 -0.2860
   68MOL    H4510899   5.681   0.304   3.757  1.6106 -3.0644 -1.6040
   68MOL    H4610900   5.772   0.316   3.608 -0.6052  0.3755 -0.9679
   68MOL    H4710901   5.791   0.532   3.815  1.0857  0.2257  0.2653
   68MOL    H4810902   5.897   0.271   3.800  1.1029 -2.3589  2.7971
   68MOL    H4910903   5.859   0.349   3.935  0.3212  0.5467  0.1941
   68MOL    C5010904   5.936   0.507   3.653  0.5024 -0.4916  0.7266
   68MOL    C5110905   6.048   0.606   3.698 -0.4985  0.0528 -0.3196
   68MOL    N5210906   6.139   0.633   3.586  0.3979 -0.7446 -0.1714
   68MOL    H5310907   5.974   0.422   3.597  3.3980  1.3219 -0.1845
   68MOL    H5410908   5.870   0.556   3.581  2.2283  1.3729  0.3651
   68MOL    H5510909   6.117   0.553   3.764 -0.3082 -1.6659 -1.8380
   68MOL    H5610910   6.165   0.543   3.548  0.8682 -0.7075  0.0598
   68MOL    H5710911   6.099   0.696   3.518 -1.5405 -3.0601 -1.2159
   68MOL    C5810912   5.992   0.735   3.754  0.3904 -0.4875 -0.1657
   68MOL    C5910913   5.962   0.737   3.909 -0.4178 -0.3780  0.4044
   68MOL    N6010914   6.090   0.750   3.977 -0.7910  0.2843 -0.3470
   68MOL    H6110915   6.048   0.824   3.723  0.5342 -1.5820 -3.2322
   68MOL    H6210916   5.902   0.755   3.696 -0.0042 -2.0822 -0.1068
   68MOL    H6310917   5.921   0.640   3.937  0.5399 -0.6052  1.0306
   68MOL    H6410918   6.130   0.841   3.987  2.6783 -1.4954  3.1638
   68MOL    H6510919   6.164   0.705   3.925  0.8806  1.5676  0.9014
   68MOL    C6610920   5.872   0.854   3.953  0.3900 -0.4559  0.2710
   68MOL    C6710921   5.726   0.845   3.907  0.3336  0.4337  0.2931
   68MOL    N6810922   5.669   0.727   3.964 -0.2411  0.3798  0.0427
   68MOL    H6910923   5.881   0.862   4.061 -0.8906 -0.9972  0.4302
   68MOL    H7010924   5.921   0.943   3.913 -1.8264  0.6022 -0.2060
   68MOL    H7110925   5.718   0.827   3.799  0.3453 -1.3047  0.5650
   68MOL    H7210926   5.688   0.736   4.062 -1.2922 -2.3083  0.5379
   68MOL    H7310927   5.727   0.651   3.931 -1.2027  0.3612 -1.7002
   68MOL    C7410928   5.634   0.964   3.943 -0.5727 -0.0913  0.4549
   68MOL    C7510929   5.660   1.092   3.860 -1.0475  0.0536  0.4324
   68MOL    N7610930   5.602   1.097   3.724 -0.7504 -0.0748  0.0355
   68MOL    H7710931   5.529   0.936   3.931 -0.5652 -0.2431  0.7467
   68MOL    H7810932   5.643   0.984   4.049  0.9140  0.1198  0.2916
   68MOL    H7910933   5.768   1.106   3.863 -0.9196 -0.9869  0.9307
   68MOL    H8010934   5.669   1.125   3.655  0.4996 -3.2959 -0.1017
   68MOL    H8110935   5.536   1.174   3.720  0.0805  0.6472 -0.0854
   68MOL    C8210936   5.612   1.229   3.929 -0.1387 -0.0589  0.6832
   68MOL    C8310937   5.686   1.255   4.062  0.7090  0.4220 -0.3717
   68MOL    N8410938   5.816   1.313   4.027 -0.2731 -0.2540  0.1961
   68MOL    H8510939   5.618   1.304   3.850 -0.4924 -0.8404 -0.1050
   68MOL    H8610940   5.505   1.219   3.942 -0.2200 -0.5087 -0.2519
   68MOL    H8710941   5.704   1.161   4.114 -0.0184  0.8893  0.7342
   68MOL    H8810942   5.877   1.321   4.107  1.3897 -0.0041 -1.0612
   68MOL    H8910943   5.862   1.257   3.955  0.2901 -2.4027  2.1675
   68MOL    C9010944   5.623   1.355   4.159  0.2864  0.0487  0.5834
   68MOL    C9110945   5.465   1.341   4.186 -1.0208  0.4745  0.9108
   68MOL    N9210946   5.424   1.205   4.230 -0.0641 -0.3024  0.0897
   68MOL    H9310947   5.678   1.347   4.252 -0.3933 -0.6740  0.9255
   68MOL    H9410948   5.651   1.454   4.121 -1.6456 -0.1282 -1.4134
   68MOL    H9510949   5.405   1.375   4.101  0.4468 -0.3444 -0.4790
   68MOL    H9610950   5.324   1.197   4.242  0.0411 -0.7384  0.6664
   68MOL    H9710951   5.452   1.148   4.151  2.1891  1.9875 -0.8548
   68MOL    C9810952   5.413   1.445   4.286 -0.6815 -0.5468  0.2136
   68MOL    C9910953   5.419   1.595   4.246  0.1176  0.5901 -0.0199
   68MOL   N10010954   5.301   1.627   4.166 -0.4196  0.1421  0.0309
   68MOL   H10110955   5.310   1.424   4.316 -0.0223 -1.0380  2.2554
   68MOL   H10210956   5.472   1.421   4.374 -0.5149  0.3738  0.3599
   68MOL   H10310957   5.505   1.622   4.185  0.9764  2.4755  1.9512
   68MOL   H10410958   5.249   1.541   4.155 -1.0264  0.1756  2.4045
   68MOL   H10510959   5.354   1.626   4.080  1.0257 -1.4793  0.9047
   68MOL   C10610960   5.416   1.678   4.380 -0.4730 -0.1622 -0.1519
   68MOL   C10710961   5.458   1.823   4.361 -0.3656 -0.1159 -0.8165
   68MOL   N10810962   5.435   1.899   4.481 -0.2872  0.6131  0.2115
   68MOL   H10910963   5.324   1.669   4.437 -0.4718 -2.3522 -0.4431
   68MOL   H11010964   5.485   1.633   4.451 -0.2923 -1.8028 -1.3320
   68MOL   H11110965   5.397   1.862   4.280 -1.0365  0.4627 -0.0523
   68MOL   H11210966   5.486   1.986   4.481 -0.4937  0.7482  1.5486
   68MOL   H11310967   5.338   1.928   4.481 -0.3446  0.4515 -0.5918
   68MOL   C11410968   5.605   1.840   4.337 -0.3174  0.2231  0.3193
   68MOL   C11510969   5.624   1.944   4.223 -0.3021  0.3049  0.2459
   68MOL   N11610970   5.766   1.968   4.233 -0.4971 -0.5430  0.1453
   68MOL   H11710971   5.659   1.873   4.425  1.5391 -0.0141 -0.7069
   68MOL   H11810972   5.651   1.746   4.307 -0.2368  0.2377  0.3980
   68MOL   H11910973   5.582   2.042   4.242  1.6413  1.2156  0.0507
   68MOL   H12010974   5.784   2.044   4.298 -1.1391  0.9723 -1.4011
   68MOL   H12110975   5.790   2.030   4.157 -0.9034 -0.6475 -0.0674
   68MOL   C12210976   5.592   1.897   4.083 -0.1116  0.5041 -0.2024
   68MOL   C12310977   5.617   1.990   3.960 -0.0489 -0.2666 -0.8882
   68MOL   N12410978   5.611   1.914   3.837  0.0875  0.1249  0.1285
   68MOL   H12510979   5.628   1.796   4.062 -1.4101  0.3071 -1.5729
   68MOL   H12610980   5.484   1.884   4.083  0.1106 -1.6183  1.3167
   68MOL   H12710981   5.713   2.036   3.981 -0.2085 -0.8917  1.2979
   68MOL   H12810982   5.532   1.851   3.839 -1.1433  1.6067 -0.4446
   68MOL   H12910983   5.583   1.982   3.768  0.2221 -0.1939 -0.2407
   68MOL   C13010984   5.519   2.100   3.954  0.6438  1.0583 -0.7894
   68MOL   C13110985   5.557   2.222   3.870  0.7501 -0.0092 -0.1933
   68MOL   N13210986   5.438   2.286   3.808 -0.2562 -0.5938 -0.2026
   68MOL   H13310987   5.426   2.065   3.911 -1.0886  0.1129  3.5204
   68MOL   H13410988   5.488   2.131   4.054 -2.2736 -0.2683 -1.2451
   68MOL   H13510989   5.621   2.195   3.786  1.0272 -1.2336  0.4047
   68MOL   H13610990   5.426   2.226   3.728  1.0865 -1.1631  0.0170
   68MOL   H13710991   5.478   2.371   3.771  1.6987 -0.3669  2.2654
   68MOL   C13810992   5.623   2.338   3.949 -0.1315 -0.5131 -0.2774
   68MOL   C13910993   5.750   2.302   4.022 -0.4255 -0.1537  0.3663
   68MOL   N14010994   5.857   2.274   3.931 -0.6278 -0.1971  0.0123
   68MOL   H14110995   5.651   2.424   3.888 -1.3599  0.7365  0.8670
   68MOL   H14210996   5.542   2.382   4.008  0.4027 -0.6628  0.5685
   68MOL   H14310997   5.730   2.214   4.083  0.5038  0.1519  1.1189
   68MOL   H14410998   5.943   2.259   3.982 -1.9647 -0.4039  2.2529
   68MOL   H14510999   5.836   2.181   3.897 -0.1148 -0.3300  0.0501
   68MOL   C14611000   5.796   2.411   4.124  0.5216 -0.6677 -0.1183
   68MOL   C14711001   5.781   2.384   4.278 -0.7058  0.0188 -0.2313
   68MOL   N14811002   5.839   2.252   4.314 -0.0983 -0.0122  0.2549
   68MOL   H14911003   5.902   2.433   4.113  0.3170  0.3353 -0.1703
   68MOL   H15011004   5.751   2.509   4.107  2.4574  0.7071  2.3605
   68MOL   H15111005   5.674   2.375   4.298 -0.8507 -0.9025 -1.3641
   68MOL   H15211006   5.851   2.248   4.414 -2.8419 -1.0921  0.5689
   68MOL   H15311007   5.931   2.254   4.272  0.8161  2.6161  2.2435
   68MOL   C15411008   5.852   2.493   4.363 -0.6644  0.4708  1.1050
   68MOL   C15511009   5.776   2.520   4.498  0.6493  0.1996  0.0203
   68MOL   N15611010   5.820   2.648   4.555 -0.3238  0.0184  0.0472
   68MOL   H15711011   5.959   2.475   4.375 -0.4554  0.5633 -0.4467
   68MOL   H15811012   5.864   2.585   4.306  0.0793  0.5841  1.4402
   68MOL   H15911013   5.807   2.431   4.552  0.2296 -0.2942 -0.5398
   68MOL   H16011014   5.915   2.669   4.527  0.7613 -0.0362  3.4500
   68MOL   H16111015   5.842   2.629   4.652  2.5163 -0.1003 -0.5588
   68MOL   H16211016   5.668   2.532   4.483  0.3866  1.4077  2.6501
   69MOL     C111017   2.072   1.301   6.362 -0.0929 -0.3145 -0.1364
   69MOL     C211018   1.930   1.364   6.382 -0.4213 -0.2097  0.6729
   69MOL     N311019   1.913   1.403   6.523 -0.1061  0.1164 -0.5275
   69MOL     H411020   2.086   1.302   6.254 -0.8517 -1.2714 -0.2564
   69MOL     H511021   2.094   1.203   6.405  2.6747  0.2702 -0.1558
   69MOL     H611022   1.851   1.306   6.335  0.1450 -0.4769  0.0200
   69MOL     H711023   1.836   1.462   6.553  0.5658 -0.1784  1.9116
   69MOL     H811024   1.912   1.319   6.579 -1.8373  0.4509 -0.0060
   69MOL     H911025   2.146   1.361   6.414 -0.1433  0.3575 -0.8293
   69MOL    C1011026   1.909   1.491   6.305 -0.4396 -0.1323 -0.1623
   69MOL    C1111027   1.907   1.495   6.150  0.4298  0.0808  0.1721
   69MOL    N1211028   1.818   1.382   6.098 -0.6888 -0.2219  0.3791
   69MOL    H1311029   1.811   1.528   6.335  0.6271  0.0399  3.4520
   69MOL    H1411030   1.984   1.563   6.339 -0.6842 -0.1414  0.4142
   69MOL    H1511031   2.005   1.481   6.105 -0.7128 -2.4125 -1.6882
   69MOL    H1611032   1.830   1.381   5.998  1.7804  1.5707  0.6018
   69MOL    H1711033   1.828   1.290   6.138  0.7196 -0.1031  0.3297
   69MOL    C1811034   1.846   1.620   6.085  0.1996  0.5078 -0.4361
   69MOL    C1911035   1.946   1.736   6.063 -0.2690 -0.2766 -0.0025
   69MOL    N2011036   2.040   1.704   5.962 -0.3321 -0.3049 -0.6637
   69MOL    H2111037   1.799   1.614   5.987 -2.0988  2.7787  0.4871
   69MOL    H2211038   1.758   1.655   6.138 -0.3719  2.5547 -2.6751
   69MOL    H2311039   2.000   1.759   6.155 -0.6462 -0.4054  0.2501
   69MOL    H2411040   2.053   1.779   5.896 -2.0861  2.2606  1.7916
   69MOL    H2511041   2.021   1.629   5.897  1.1588 -0.6147 -0.7722
   69MOL    C2611042   1.874   1.872   6.024  0.3003  0.4504  0.1879
   69MOL    C2711043   1.870   1.983   6.125  0.4063  0.1253  0.1542
   69MOL    N2811044   1.791   2.098   6.071  0.4548  0.2373 -0.3984
   69MOL    H2911045   1.912   1.909   5.928 -0.0955 -0.5014 -0.3300
   69MOL    H3011046   1.768   1.854   6.011 -0.0755  1.6204  1.4212
   69MOL    H3111047   1.973   2.015   6.140 -0.0433  0.9402  1.6120
   69MOL    H3211048   1.782   2.173   6.138  0.2058  0.2947 -0.4978
   69MOL    H3311049   1.842   2.149   6.001 -1.1721  1.2620 -0.8474
   69MOL    C3411050   1.825   1.944   6.272 -0.1215 -0.4327  0.1083
   69MOL    C3511051   1.899   2.037   6.375 -0.2362 -0.2652 -0.3130
   69MOL    N3611052   1.827   2.036   6.497  0.5249  0.2952 -0.4800
   69MOL    H3711053   1.718   1.962   6.284  0.2504  1.1512  1.2401
   69MOL    H3811054   1.842   1.839   6.295  0.9485 -0.0730  0.9773
   69MOL    H3911055   1.895   2.142   6.348 -0.8470  0.6335  3.1309
   69MOL    H4011056   1.737   2.081   6.485 -0.4744 -2.0031 -2.0531
   69MOL    H4111057   1.872   2.078   6.577  0.1483 -1.1629  0.5211
   69MOL    C4211058   2.046   2.004   6.399 -0.5352  0.2260  0.5764
   69MOL    C4311059   2.143   2.108   6.473 -0.1304 -0.1952 -0.6149
   69MOL    N4411060   2.280   2.062   6.479 -0.7052  0.0142  0.0261
   69MOL    H4511061   2.050   1.907   6.448  1.1922 -0.8184 -1.5850
   69MOL    H4611062   2.086   1.973   6.303  0.6536 -0.0717  1.1579
   69MOL    H4711063   2.110   2.122   6.576  1.4444  0.3930 -0.1693
   69MOL    H4811064   2.327   2.071   6.389 -0.8150 -2.1001 -0.2635
   69MOL    H4911065   2.289   1.966   6.508  0.5990 -0.0559 -0.5402
   69MOL    C5011066   2.144   2.245   6.397 -0.0505 -0.3151 -0.6338
   69MOL    C5111067   2.228   2.351   6.472 -0.5423 -0.1461 -0.4852
   69MOL    N5211068   2.246   2.469   6.383  0.8388 -0.0232  0.4386
   69MOL    H5311069   2.172   2.218   6.295  2.1097  1.3445 -0.5256
   69MOL    H5411070   2.041   2.278   6.396 -0.7812 -2.4273  1.0699
   69MOL    H5511071   2.328   2.316   6.493 -1.5091 -1.5418  1.9497
   69MOL    H5611072   2.255   2.441   6.287  2.3051 -2.1122  1.1437
   69MOL    H5711073   2.339   2.503   6.404  1.6863 -2.9026  1.6035
   69MOL    C5811074   2.161   2.393   6.606  0.4030 -0.8741 -0.5098
   69MOL    C5911075   2.175   2.314   6.737 -0.3101  0.0683 -0.6244
   69MOL    N6011076   2.309   2.269   6.747  0.3784  0.4139  0.4419
   69MOL    H6111077   2.224   2.481   6.619 -0.8784 -0.0953  0.5491
   69MOL    H6211078   2.060   2.431   6.592  0.1767 -0.2114  2.6843
   69MOL    H6311079   2.114   2.224   6.737 -1.6892  0.9623  1.3513
   69MOL    H6411080   2.334   2.214   6.828 -0.9183 -0.2793  0.3940
   69MOL    H6511081   2.333   2.211   6.668  2.6665  0.5410  1.0230
   69MOL    C6611082   2.121   2.389   6.863 -0.0737 -0.1056 -0.3638
   69MOL    C6711083   1.967   2.379   6.882  0.2968  0.2584  0.2894
   69MOL    N6811084   1.922   2.291   6.988  0.2794  0.6182 -0.2570
   69MOL    H6911085   2.176   2.354   6.950  0.6320  0.2097 -0.6843
   69MOL    H7011086   2.159   2.490   6.850 -0.2165  0.4128  2.7738
   69MOL    H7111087   1.922   2.348   6.787 -1.7193  0.7506  1.0561
   69MOL    H7211088   1.967   2.325   7.072  0.5342 -3.4838  1.3394
   69MOL    H7311089   1.821   2.297   6.994  0.3878  1.7329  0.6847
   69MOL    C7411090   1.905   2.511   6.926 -0.3345 -0.0104 -0.6053
   69MOL    C7511091   1.929   2.637   6.835 -0.1652  1.4147 -0.0479
   69MOL    N7611092   1.866   2.620   6.706  0.1889 -0.0149 -0.5085
   69MOL    H7711093   1.800   2.494   6.948  0.2535 -0.1331  2.3067
   69MOL    H7811094   1.958   2.538   7.018  0.0585  1.2634 -1.2031
   69MOL    H7911095   2.036   2.643   6.813 -0.2255 -0.5661 -1.0756
   69MOL    H8011096   1.818   2.706   6.682 -0.8089 -0.8865 -1.7240
   69MOL    H8111097   1.936   2.606   6.635  0.5027 -0.0892 -0.1872
   69MOL    C8211098   1.877   2.765   6.898  1.3060  0.2782  0.1801
   69MOL    C8311099   1.990   2.854   6.950 -0.0458 -0.1416  0.1513
   69MOL    N8411100   1.943   2.984   6.981  0.2697 -0.1636  0.9420
   69MOL    H8511101   1.824   2.825   6.824  0.9687 -1.6310 -1.1604
   69MOL    H8611102   1.810   2.744   6.981  1.9027 -0.9074  0.3808
   69MOL    H8711103   2.062   2.858   6.868 -0.6440 -1.7075 -0.4618
   69MOL    H8811104   1.845   2.982   7.003 -0.7093  0.2312 -3.0869
   69MOL    H8911105   1.936   3.030   6.892 -0.4690 -0.5207  0.8151
   69MOL    C9011106   2.056   2.801   7.077 -0.5279 -0.0584 -0.4007
   69MOL    C9111107   2.183   2.882   7.106  0.1543 -0.5089  0.4885
   69MOL    N9211108   2.241   2.837   7.231  0.2996  0.5985  0.2028
   69MOL    H9311109   1.977   2.809   7.152 -0.0780 -2.8513  0.4166
   69MOL    H9411110   2.078   2.697   7.057 -0.8268 -0.2380  0.1915
   69MOL    H9511111   2.160   2.987   7.118  0.8996 -0.1858 -0.7191
   69MOL    H9611112   2.326   2.888   7.251  0.2089  1.0465 -0.5563
   69MOL    H9711113   2.189   2.849   0.042  0.5361 -0.6773  0.5351
   69MOL    C9811114   2.298   2.876   7.005  0.3591 -0.6381 -0.4967
   69MOL    C9911115   2.306   3.008   6.923  0.0236 -0.2057  0.3852
   69MOL   N10011116   2.360   3.122   6.993 -0.0947 -0.8650 -0.5677
   69MOL   H10111117   2.392   2.850   7.054 -0.4945 -0.7909  1.1117
   69MOL   H10211118   2.282   2.795   6.934  0.8439 -1.1977  0.0202
   69MOL   H10311119   2.205   3.025   6.884  0.2641  0.8250  0.1922
   69MOL   H10411120   2.362   3.201   6.930  3.3814 -0.7601 -0.4462
   69MOL   H10511121   2.278   3.136   7.049 -1.0809 -0.3007 -2.1278
   69MOL   C10611122   2.389   2.978   6.788 -0.5913  0.6358 -0.2585
   69MOL   C10711123   2.303   2.962   6.659 -0.2806 -0.6258 -0.0082
   69MOL   N10811124   2.396   2.997   6.549  0.6895 -0.3831 -0.1474
   69MOL   H10911125   2.444   3.072   6.779 -0.6054  0.6765  0.0509
   69MOL   H11011126   2.454   2.891   6.797  0.3112  1.3444  0.1284
   69MOL   H11111127   2.226   3.039   6.662 -0.7998 -1.1496  0.2708
   69MOL   H11211128   2.364   2.980   6.454  0.2952  1.7915 -0.4303
   69MOL   H11311129   2.481   2.944   6.559  1.7801  1.5094  0.7094
   69MOL   C11411130   2.243   2.820   6.629 -0.7693 -0.3902 -0.1982
   69MOL   C11511131   2.130   2.828   6.523  0.0097 -0.0692 -0.9512
   69MOL   N11611132   2.094   2.692   6.492 -0.4083  0.3267 -0.1150
   69MOL   H11711133   2.321   2.751   6.598 -0.3351 -0.8006  1.7566
   69MOL   H11811134   2.200   2.775   6.718  1.3935 -0.3784  0.8705
   69MOL   H11911135   2.170   2.865   6.429 -0.9995 -1.3801 -1.9152
   69MOL   H12011136   2.032   2.674   6.414 -1.3369  3.8683 -0.2534
   69MOL   H12111137   2.176   2.638   6.466 -1.5707 -1.3446 -0.4518
   69MOL   C12211138   2.003   2.911   6.559 -0.5192 -0.8728 -0.4829
   69MOL   C12311139   1.913   2.952   6.435 -0.0742 -0.4693  0.6655
   69MOL   N12411140   1.782   2.969   6.504 -0.2955  0.0091 -0.2156
   69MOL   H12511141   1.950   2.850   6.631 -0.3354 -1.9647 -1.2502
   69MOL   H12611142   2.030   3.000   6.616 -0.7774  0.2221 -2.0515
   69MOL   H12711143   1.908   2.878   6.355  1.6750 -0.0630  0.1661
   69MOL   H12811144   1.751   2.882   6.546  0.6696  0.2650  1.0562
   69MOL   H12911145   1.719   2.962   6.425  1.5422  0.6167 -1.7515
   69MOL   C13011146   1.956   3.085   6.372  0.0332  0.5152 -0.0854
   69MOL   C13111147   2.062   3.067   6.260  0.4133  0.0065  0.7169
   69MOL   N13211148   2.008   2.991   6.146  0.6289 -0.5782 -0.2008
   69MOL   H13311149   1.867   3.124   6.322  0.0561  0.4341 -0.1899
   69MOL   H13411150   1.999   3.157   6.442  1.4796 -0.9755  0.5823
   69MOL   H13511151   2.146   3.008   6.297 -0.7721 -1.0594  1.7627
   69MOL   H13611152   1.975   2.902   6.181  1.8622 -0.7858  0.4696
   69MOL   H13711153   2.071   2.969   6.071 -0.6338 -0.6789 -1.2592
   69MOL   C13811154   2.116   3.196   6.204  0.4551 -0.4428 -0.1054
   69MOL   C13911155   2.233   3.240   6.298 -0.7033 -0.2425  1.0358
   69MOL   N14011156   2.369   3.204   6.260 -0.7426 -0.1524 -0.2205
   69MOL   H14111157   2.137   3.192   6.098 -0.5859 -0.3064 -0.3183
   69MOL   H14211158   2.035   3.268   6.215 -0.0614 -1.4487  3.5146
   69MOL   H14311159   2.219   3.204   6.400 -0.6548 -2.1933  0.3913
   69MOL   H14411160   2.382   3.256   6.174  1.1714  0.7997  0.6049
   69MOL   H14511161   2.427   3.241   6.334  0.5856 -3.5241  0.4747
   69MOL   C14611162   2.245   3.397   6.320 -0.0037 -0.1011  0.2551
   69MOL   C14711163   2.301   3.424   6.463  0.1075  0.2074  0.0890
   69MOL   N14811164   2.384   3.545   6.461  0.1704  0.2448  0.1132
   69MOL   H14911165   2.308   3.449   6.248 -0.6722  1.3163  0.6742
   69MOL   H15011166   2.142   3.433   6.310 -0.1110 -0.3319  0.5365
   69MOL   H15111167   2.354   3.346   6.517 -1.1407 -0.1193  0.8480
   69MOL   H15211168   2.365   3.612   6.534  2.2131 -1.3271  2.1574
   69MOL   H15311169   2.482   3.522   6.453 -0.1205 -1.3791  0.9866
   69MOL   C15411170   2.194   3.462   6.560  0.6719 -0.5642 -0.5728
   69MOL   C15511171   2.234   3.473   6.714  0.3224  0.3190 -0.1787
   69MOL   N15611172   2.109   3.510   6.777  0.5662 -0.2541 -0.5467
   69MOL   H15711173   2.130   3.537   6.514  0.0084 -0.4420  0.5314
   69MOL   H15811174   2.136   3.370   6.562  1.1649 -0.8993 -1.4021
   69MOL   H15911175   2.305   3.553   6.736 -1.4709  1.8893  0.0270
   69MOL   H16011176   2.076   3.596   6.737  1.3400 -0.7180 -2.2483
   69MOL   H16111177   2.110   3.534   6.875 -1.3559  2.5438 -1.1847
   69MOL   H16211178   2.278   3.385   6.761 -0.7322  0.2479  0.6988
   70MOL     C111179   6.528   0.248   6.147 -0.0792 -0.0106 -0.6784
   70MOL     C211180   6.620   0.266   6.028 -0.3478  0.5767 -0.6190
   70MOL     N311181   6.718   0.365   6.065  0.6521  0.0303 -0.0349
   70MOL     H411182   6.474   0.154   6.131 -0.2757  0.4909 -3.0204
   70MOL     H511183   6.460   0.333   6.145  1.1075  0.9370 -1.0638
   70MOL     H611184   6.562   0.308   5.946  0.5907  1.5585 -0.7885
   70MOL     H711185   6.677   0.458   6.067  1.7374  0.5362 -0.7353
   70MOL     H811186   6.799   0.369   6.005 -0.5868  0.2702 -1.7191
   70MOL     H911187   6.572   0.236   6.246  0.4464 -1.2665 -1.0546
   70MOL    C1011188   6.694   0.138   5.986  0.4492  0.1794  0.3872
   70MOL    C1111189   6.600   0.034   5.913 -0.0959  0.9646  0.2362
   70MOL    N1211190   6.591   0.059   5.772 -0.6602 -0.1752 -0.0910
   70MOL    H1311191   6.779   0.171   5.927  0.8000 -1.4330 -0.0273
   70MOL    H1411192   6.731   0.090   6.077  0.7738  1.5560  0.9937
   70MOL    H1511193   6.497   0.035   5.948 -0.3360  0.1131 -0.4273
   70MOL    H1611194   6.531   7.263   5.735  0.4301 -0.5406 -1.1915
   70MOL    H1711195   6.682   0.033   5.735  0.5167  0.9265  1.9280
   70MOL    C1811196   6.662   7.162   5.925  0.4179  0.0744 -0.1112
   70MOL    C1911197   6.599   7.085   6.039  0.1758 -0.6132 -0.6526
   70MOL    N2011198   6.459   7.070   6.006  0.2932 -0.0579 -0.3493
   70MOL    H2111199   6.633   7.098   5.842 -0.7228 -0.6411  0.8268
   70MOL    H2211200   6.770   7.160   5.939  0.7109 -0.7440 -2.3060
   70MOL    H2311201   6.602   7.148   6.128 -0.9027  0.3083 -1.2739
   70MOL    H2411202   6.404   7.145   6.045  0.3925 -0.4053  0.4722
   70MOL    H2511203   6.426   6.985   6.050 -0.3012  0.3958  0.0889
   70MOL    C2611204   6.651   6.936   6.051 -0.6037 -0.6898 -0.7425
   70MOL    C2711205   6.608   6.873   6.191 -0.8519  0.8220  0.3112
   70MOL    N2811206   6.645   6.730   6.200  0.1745  0.1853 -0.9816
   70MOL    H2911207   6.616   6.873   5.969 -2.1429 -0.1354 -0.5307
   70MOL    H3011208   6.759   6.925   6.049 -0.5621 -1.0460  1.7196
   70MOL    H3111209   6.500   6.879   6.194 -0.9027  0.1872 -0.1325
   70MOL    H3211210   6.743   6.720   6.177  0.7251  0.5491  1.1208
   70MOL    H3311211   6.596   6.669   6.136  0.3214 -0.7200 -0.2378
   70MOL    C3411212   6.671   6.936   6.318  0.1942 -0.5411 -0.5399
   70MOL    C3511213   6.569   6.947   6.439  0.1892 -0.2270  0.2041
   70MOL    N3611214   6.641   6.965   6.559 -0.1527  0.1349 -0.0898
   70MOL    H3711215   6.764   6.891   6.352  1.5179  3.6700  1.7892
   70MOL    H3811216   6.698   7.040   6.299  1.3662 -0.1605  2.8784
   70MOL    H3911217   6.519   6.850   6.445 -1.6411  0.6615 -0.5122
   70MOL    H4011218   6.698   6.882   6.569 -0.9751 -0.4432 -0.1417
   70MOL    H4111219   6.575   6.968   6.635  1.7763 -0.8691  1.6592
   70MOL    C4211220   6.456   7.054   6.419 -0.5529  0.2768  0.2371
   70MOL    C4311221   6.333   7.041   6.504 -0.0444  0.5430 -0.6431
   70MOL    N4411222   6.261   7.167   6.494  0.3328 -0.5764  0.4434
   70MOL    H4511223   6.508   7.148   6.431 -0.4261  0.4921 -1.7733
   70MOL    H4611224   6.434   7.047   6.312  1.1054 -0.5016 -0.0645
   70MOL    H4711225   6.352   7.034   6.611  0.1886  0.8546 -0.6646
   70MOL    H4811226   6.181   7.140   6.549 -0.4219  0.1002 -0.3281
   70MOL    H4911227   6.310   7.235   6.550 -2.0785  0.5967  1.1844
   70MOL    C5011228   6.249   6.917   6.462 -0.6080  0.1915 -0.5463
   70MOL    C5111229   6.262   6.798   6.562 -0.2713  0.6278 -0.0479
   70MOL    N5211230   6.195   6.828   6.686 -0.1360  0.1593  0.3260
   70MOL    H5311231   6.146   6.945   6.443 -0.8693 -0.6905 -0.4848
   70MOL    H5411232   6.277   6.891   6.360  1.3584  3.2091 -0.8274
   70MOL    H5511233   6.370   6.799   6.575 -0.2428  0.9144 -0.2864
   70MOL    H5611234   6.095   6.820   6.676 -0.1246 -0.4199  0.6255
   70MOL    H5711235   6.199   6.926   6.712 -0.2903  0.1005  0.5733
   70MOL    C5811236   6.216   6.664   6.505  0.3022 -0.7388 -0.1454
   70MOL    C5911237   6.252   6.539   6.581  0.0808 -0.3740 -0.2767
   70MOL    N6011238   6.159   6.435   6.534 -0.3144 -0.2069  0.8075
   70MOL    H6111239   6.107   6.669   6.495  0.4095  0.5192 -0.7945
   70MOL    H6211240   6.240   6.658   6.399 -2.6901  2.9949 -1.1668
   70MOL    H6311241   6.237   6.552   6.688  1.0090  0.8133 -0.2796
   70MOL    H6411242   6.197   6.342   6.542  1.5877  0.4868  0.0312
   70MOL    H6511243   6.087   6.427   6.604 -1.9741  2.5026 -0.4994
   70MOL    C6611244   6.393   6.500   6.553 -0.4984  0.3820  0.4954
   70MOL    C6711245   6.511   6.586   6.597 -0.1443  1.3037 -0.7243
   70MOL    N6811246   6.485   6.622   6.740 -0.6969  0.0607  0.4628
   70MOL    H6911247   6.402   6.406   6.606 -0.9646 -0.9928 -1.7766
   70MOL    H7011248   6.401   6.473   6.447 -2.7752  1.7176 -0.0670
   70MOL    H7111249   6.526   6.677   6.539  1.5501 -0.8284 -3.7802
   70MOL    H7211250   6.395   6.667   6.747 -1.2719 -1.2030  1.2005
   70MOL    H7311251   6.559   6.680   6.777  0.6057 -0.3482 -1.4317
   70MOL    C7411252   6.643   6.500   6.595  0.2134  0.3502 -0.1934
   70MOL    C7511253   6.718   6.480   6.461 -1.2264  0.2840 -0.0990
   70MOL    N7611254   6.783   6.603   6.438 -0.1059  0.2972 -0.6414
   70MOL    H7711255   6.705   6.547   6.671 -1.9275  0.6645  1.3931
   70MOL    H7811256   6.619   6.400   6.630 -1.6952  0.4349 -1.2223
   70MOL    H7911257   6.652   6.469   6.376 -2.0334  0.9440  0.4309
   70MOL    H8011258   6.848   6.595   6.360 -0.8580 -2.6640 -1.0045
   70MOL    H8111259   6.717   6.665   6.394  0.4078  0.3225 -1.3959
   70MOL    C8211260   6.840   6.380   6.461  0.7922 -0.0434  0.4494
   70MOL    C8311261   6.780   6.237   6.460 -0.3787  0.2036  0.2064
   70MOL    N8411262   6.694   6.205   6.348 -0.5612 -0.0459  0.2694
   70MOL    H8511263   6.914   6.402   6.384  0.0534  1.4266  0.1416
   70MOL    H8611264   6.896   6.392   6.554  1.2286  2.0201 -0.0504
   70MOL    H8711265   6.715   6.218   6.544  2.2490  1.2087  2.5477
   70MOL    H8811266   6.609   6.257   6.363 -0.2226  0.2880  1.1037
   70MOL    H8911267   6.738   6.248   6.268 -1.7716 -1.3742 -1.1252
   70MOL    C9011268   6.884   6.123   6.458 -0.0294  0.0839  0.7198
   70MOL    C9111269   6.955   6.106   6.589  0.0370  0.2703 -0.4857
   70MOL    N9211270   6.919   5.981   6.663  0.6789  0.0269  0.1388
   70MOL    H9311271   6.831   6.033   6.427  0.8182  0.0793 -0.7750
   70MOL    H9411272   6.960   6.140   6.381  1.5568 -1.1524  1.9605
   70MOL    H9511273   6.913   6.178   6.660 -1.1768  0.8849 -1.8182
   70MOL    H9611274   6.821   5.967   6.683  0.3487  0.9562 -0.7732
   70MOL    H9711275   6.944   5.906   6.601 -2.3666 -0.7889 -0.1647
   70MOL    C9811276   7.111   6.130   6.588  0.1163 -0.0579  0.6049
   70MOL    C9911277   7.162   6.267   6.557 -0.2803 -0.2316  0.2511
   70MOL   N10011278   7.126   6.366   6.665 -0.1693  0.0975  0.1024
   70MOL   H10111279   7.139   6.119   6.692  0.5075 -0.5581  0.4483
   70MOL   H10211280   7.149   6.055   6.519 -0.0348  0.7370 -0.3577
   70MOL   H10311281   7.105   6.301   6.470  2.3307 -1.9787 -2.2571
   70MOL   H10411282   7.207   6.375   6.724 -0.2026 -1.2898  0.3819
   70MOL   H10511283   7.124   6.456   6.620 -2.9528 -0.1326 -0.3054
   70MOL   C10611284   0.038   6.264   6.548  0.0023 -0.0250 -0.3690
   70MOL   C10711285   0.107   6.388   6.496  0.8718 -1.0112 -0.2012
   70MOL   N10811286   0.248   6.369   6.525 -0.2307  0.1443 -0.0606
   70MOL   H10911287   0.081   6.241   6.645 -2.2668  0.2657  0.7408
   70MOL   H11011288   0.060   6.183   6.479 -2.2629  0.4235 -1.6949
   70MOL   H11111289   0.072   6.475   6.552  1.5528 -0.2029 -1.0176
   70MOL   H11211290   0.278   6.300   6.457 -2.9812  1.0171 -2.2739
   70MOL   H11311291   0.297   6.455   6.502 -2.3167  1.0185 -1.4232
   70MOL   C11411292   0.084   6.408   6.340  0.5511 -0.1504 -0.3592
   70MOL   C11511293   0.127   6.547   6.275  0.1316 -0.3567  0.2388
   70MOL   N11611294   0.119   6.537   6.127  0.0869  0.3217  0.1830
   70MOL   H11711295   0.129   6.319   6.295  0.9292 -0.1547  0.0308
   70MOL   H11811296   7.254   6.396   6.313  0.4032 -1.6859  0.8250
   70MOL   H11911297   0.227   6.572   6.309  0.4591  0.5627 -1.3326
   70MOL   H12011298   0.183   6.471   6.086 -1.2734 -0.3027 -1.0101
   70MOL   H12111299   0.150   6.626   6.091 -0.1243  0.9231  1.4680
   70MOL   C12211300   0.052   6.670   6.322 -0.3577 -0.4011 -0.4870
   70MOL   C12311301   0.112   6.810   6.306  0.2874  0.4064 -0.3326
   70MOL   N12411302   0.009   6.910   6.306  0.1487 -0.2374  0.2432
   70MOL   H12511303   7.235   6.664   6.265 -0.8180  2.1220 -0.0406
   70MOL   H12611304   0.020   6.651   6.425 -0.3378 -2.0994 -0.7799
   70MOL   H12711305   0.162   6.803   6.210 -0.2984 -0.5391 -0.5656
   70MOL   H12811306   7.245   6.912   6.399  2.0885  0.6085  1.0824
   70MOL   H12911307   0.057   6.998   6.295 -1.3288  0.3042 -2.2683
   70MOL   C13011308   0.214   6.844   6.413 -0.0386  1.3617 -0.0715
   70MOL   C13111309   0.305   6.962   6.388  0.3579 -1.0677 -0.4064
   70MOL   N13211310   0.359   7.015   6.510 -0.1886  0.3199 -0.5903
   70MOL   H13311311   0.164   6.853   6.510  0.5673  1.8793  0.1964
   70MOL   H13411312   0.272   6.753   6.417 -0.8493  0.8109 -0.6819
   70MOL   H13511313   0.245   7.045   6.351 -1.0352 -2.0181 -0.3247
   70MOL   H13611314   0.282   7.033   6.573  0.1509  0.8072 -0.3143
   70MOL   H13711315   0.398   6.930   6.547 -1.4710 -0.6727 -1.4610
   70MOL   C13811316   0.421   6.932   6.295  0.2715 -0.5563  0.7022
   70MOL   C13911317   0.377   6.975   6.153 -0.0728  0.9851  0.0459
   70MOL   N14011318   0.414   7.113   6.129  0.3894  0.1914 -0.9131
   70MOL   H14111319   0.516   6.984   6.309  0.0753  0.1226 -0.4691
   70MOL   H14211320   0.443   6.826   6.291 -2.3490 -1.1356  0.8866
   70MOL   H14311321   0.270   6.972   6.135 -0.0135  1.1861 -0.3543
   70MOL   H14411322   0.426   7.154   6.221 -2.8434 -1.8881  0.5388
   70MOL   H14511323   0.332   7.156   6.089  0.2629  0.7500 -0.0868
   70MOL   C14611324   0.438   6.894   6.034  1.0667  0.3856  0.8276
   70MOL   C14711325   0.389   6.747   6.018 -0.4686  0.9267 -0.3994
   70MOL   N14811326   0.245   6.756   5.983 -0.5184 -0.0086 -0.1775
   70MOL   H14911327   0.420   6.935   5.935  0.3433 -0.0879  0.7618
   70MOL   H15011328   0.547   6.896   6.037  1.0699  0.9092  0.3437
   70MOL   H15111329   0.393   6.679   6.103 -2.1059  0.5677 -0.5795
   70MOL   H15211330   0.226   6.851   5.955 -0.5049  0.0128 -0.1133
   70MOL   H15311331   0.239   6.704   5.897  1.8677 -1.3479  0.3968
   70MOL   C15411332   0.462   6.672   5.903 -0.3292  0.3250  0.0234
   70MOL   C15511333   0.608   6.645   5.942 -0.1432  0.3153 -0.3077
   70MOL   N15611334   0.683   6.619   5.828  0.1176  0.3138  0.7097
   70MOL   H15711335   0.412   6.577   5.886  0.5103 -0.2317  0.5967
   70MOL   H15811336   0.460   6.725   5.808  1.5154 -0.6562 -0.5778
   70MOL   H15911337   0.621   6.570   6.020 -2.7991 -1.8552 -1.8780
   70MOL   H16011338   0.682   6.523   5.797  1.1056  0.4193  0.3150
   70MOL   H16111339   0.687   6.689   5.755 -2.4355  1.0435  1.2522
   70MOL   H16211340   0.648   6.738   5.984 -0.7659 -0.5976  2.3470
   71MOL     C111341   3.126   1.894   1.459 -0.0250  0.0318  0.3129
   71MOL     C211342   3.238   1.961   1.395 -0.3089 -0.4513  0.1896
   71MOL     N311343   3.302   1.868   1.303 -0.7499  0.1069  0.3326
   71MOL     H411344   3.075   1.962   1.528 -0.0656 -0.2146  0.5267
   71MOL     H511345   3.161   1.805   1.511  0.0875 -1.2124 -1.8428
   71MOL     H611346   3.316   1.979   1.469  0.9885  1.1176 -1.5163
   71MOL     H711347   3.392   1.907   1.279 -0.0411 -1.9462 -0.4607
   71MOL     H811348   3.328   1.780   1.346  1.8707 -0.1364 -1.6448
   71MOL     H911349   3.045   1.864   1.393  0.8213  2.3844 -1.9135
   71MOL    C1011350   3.205   2.094   1.322 -0.6572  1.0014 -0.0203
   71MOL    C1111351   3.169   2.207   1.419  0.1200  0.0778  0.1715
   71MOL    N1211352   3.277   2.252   1.507  0.8447  0.0854 -0.1151
   71MOL    H1311353   3.292   2.120   1.262  0.1825  1.0745  1.2219
   71MOL    H1411354   3.128   2.087   1.245 -0.3956  1.7930 -0.3625
   71MOL    H1511355   3.092   2.169   1.487 -0.1179 -2.4848 -1.4574
   71MOL    H1611356   3.234   2.328   1.558 -1.0604 -0.4358 -0.9141
   71MOL    H1711357   3.354   2.295   1.459  0.7125  0.5964  0.1245
   71MOL    C1811358   3.102   2.325   1.344  0.4321  0.1388  0.2824
   71MOL    C1911359   3.182   2.390   1.228 -0.6519 -0.3153  0.2862
   71MOL    N2011360   3.102   2.416   1.113 -0.0405  0.3181  0.0238
   71MOL    H2111361   3.003   2.297   1.308  0.9851 -0.4781 -0.8076
   71MOL    H2211362   3.080   2.395   1.424  0.9346  1.0575 -0.3607
   71MOL    H2311363   3.249   2.313   1.190  0.5930  1.3428 -0.9631
   71MOL    H2411364   3.010   2.377   1.130  0.3183 -0.6427 -0.2033
   71MOL    H2511365   3.084   2.515   1.112 -0.1030  0.3235  0.9482
   71MOL    C2611366   3.271   2.509   1.268 -0.3334  0.3667 -1.1018
   71MOL    C2711367   3.392   2.529   1.179  0.3237 -0.2923  0.0382
   71MOL    N2811368   3.454   2.648   1.214  0.2227 -0.6302  0.4753
   71MOL    H2911369   3.209   2.599   1.261  1.4061  1.5836 -1.1111
   71MOL    H3011370   3.306   2.498   1.370  0.0569  3.4243 -0.8683
   71MOL    H3111371   3.354   2.540   1.077  2.0001  1.8760 -0.3886
   71MOL    H3211372   3.495   2.646   1.307 -1.7985  2.4346  1.5019
   71MOL    H3311373   3.382   2.718   1.226 -1.2641 -2.4330  2.3439
   71MOL    C3411374   3.503   2.420   1.193 -0.0951  0.2559 -0.1257
   71MOL    C3511375   3.548   2.382   1.050 -0.2992  0.5554 -1.0020
   71MOL    N3611376   3.685   2.333   1.040 -0.5337 -0.1969 -0.1093
   71MOL    H3711377   3.592   2.456   1.246  0.5281 -1.4890  0.0502
   71MOL    H3811378   3.458   2.341   1.253 -2.7806  0.4955 -1.7421
   71MOL    H3911379   3.533   2.471   0.989 -0.1582  0.7663 -0.7214
   71MOL    H4011380   3.761   2.382   1.084 -2.1085 -0.6588  3.3005
   71MOL    H4111381   3.708   2.301   0.947  0.4227  2.5993 -0.8929
   71MOL    C4211382   3.454   2.269   0.997 -0.0666 -0.3974 -0.1060
   71MOL    C4311383   3.467   2.235   0.840 -0.0695  1.2170 -0.4819
   71MOL    N4411384   3.378   2.120   0.826  0.4594 -0.0347  0.8081
   71MOL    H4511385   3.464   2.175   1.051  0.1071 -2.5032 -3.6569
   71MOL    H4611386   3.353   2.301   1.022  0.5938  1.4909  0.2969
   71MOL    H4711387   3.569   2.207   0.814 -0.1606  0.0006  0.4189
   71MOL    H4811388   3.390   2.057   0.904 -0.5706 -0.7359  0.4085
   71MOL    H4911389   3.405   2.076   0.739  1.6099 -1.2976  1.7805
   71MOL    C5011390   3.425   2.349   0.749 -0.5847 -0.1377  0.1391
   71MOL    C5111391   3.536   2.443   0.716  0.3824 -0.5984 -1.1187
   71MOL    N5211392   3.615   2.391   0.605 -0.6334  0.1323 -0.1025
   71MOL    H5311393   3.379   2.304   0.662  0.4291  0.5952 -0.7855
   71MOL    H5411394   3.349   2.411   0.797 -0.1914  0.6725 -0.2859
   71MOL    H5511395   3.595   2.455   0.807  0.4087  0.5462 -1.2781
   71MOL    H5611396   3.553   2.377   0.527 -0.6363 -0.9724  0.0981
   71MOL    H5711397   3.672   2.468   0.572  0.6676 -1.9113 -2.8717
   71MOL    C5811398   3.474   2.579   0.679 -0.1164 -0.7286  0.0279
   71MOL    C5911399   3.412   2.653   0.806 -0.6752 -0.7782  0.8248
   71MOL    N6011400   3.513   2.754   0.854  0.1815  0.4591 -0.5573
   71MOL    H6111401   3.540   2.639   0.617 -2.3214  0.7296 -0.9737
   71MOL    H6211402   3.403   2.548   0.603 -1.2045 -1.3808  1.2884
   71MOL    H6311403   3.387   2.584   0.887 -2.0754 -0.5633  0.5823
   71MOL    H6411404   3.499   2.762   0.954 -0.1824 -0.3359 -0.5424
   71MOL    H6511405   3.603   2.714   0.832 -0.9096 -1.0952 -2.4134
   71MOL    C6611406   3.288   2.735   0.768  0.1650  0.1082  0.4695
   71MOL    C6711407   3.168   2.673   0.701 -0.1927 -0.3529  0.4510
   71MOL    N6811408   3.102   2.599   0.806  0.0308  0.3893  0.1329
   71MOL    H6911409   3.259   2.784   0.861 -0.8371  0.9685 -0.2931
   71MOL    H7011410   3.323   2.818   0.707  1.2803 -0.5114  0.2567
   71MOL    H7111411   3.189   2.618   0.609 -1.3891  1.9821 -1.2762
   71MOL    H7211412   3.170   2.542   0.855 -2.6958 -2.9297  0.2957
   71MOL    H7311413   3.044   2.528   0.762 -1.6312  0.9983  1.2953
   71MOL    C7411414   3.082   2.789   0.646  0.1694  0.5343 -0.0264
   71MOL    C7511415   2.975   2.756   0.539  0.3391  0.5289  0.0526
   71MOL    N7611416   2.882   2.863   0.542  0.5523  0.1676 -0.0656
   71MOL    H7711417   3.048   2.844   0.734 -0.6536  0.6463 -0.4046
   71MOL    H7811418   3.135   2.872   0.599 -0.3025  0.5019 -0.6322
   71MOL    H7911419   2.924   2.669   0.582 -2.5132  1.6489 -0.9263
   71MOL    H8011420   2.799   2.849   0.486 -0.1937  0.7066  0.9047
   71MOL    H8111421   2.847   2.878   0.635  0.1359  0.2325 -0.2287
   71MOL    C8211422   3.044   2.740   0.408 -0.0820 -0.5158  0.1895
   71MOL    C8311423   2.960   2.694   0.285  0.4632  0.3141  0.0194
   71MOL    N8411424   3.042   2.721   0.165 -0.3576  0.5133  0.0165
   71MOL    H8511425   3.080   2.840   0.381  1.4154 -0.5524  1.9405
   71MOL    H8611426   3.127   2.671   0.417  0.4109  0.2493  1.6345
   71MOL    H8711427   2.874   2.761   0.279  0.6083  0.4586 -0.4337
   71MOL    H8811428   3.098   2.802   0.185 -0.0493  0.1145  0.7871
   71MOL    H8911429   3.108   2.645   0.163  1.0162  1.6134  2.2655
   71MOL    C9011430   2.923   2.541   0.287  0.0284 -0.1103 -0.1341
   71MOL    C9111431   2.800   2.493   0.204 -0.4938  0.0132  0.4486
   71MOL    N9211432   2.814   2.542   0.074 -0.6205  0.1507  0.1929
   71MOL    H9311433   3.002   2.469   0.268  1.1524  1.2009 -0.4602
   71MOL    H9411434   2.906   2.523   0.393 -0.9060 -1.6070 -0.5171
   71MOL    H9511435   2.708   2.541   0.239 -1.2402 -0.7073 -0.5086
   71MOL    H9611436   2.726   2.590   0.061  0.4379  1.7964 -1.1233
   71MOL    H9711437   2.872   2.624   0.087 -3.7055  2.7052 -1.2167
   71MOL    C9811438   2.789   2.336   0.209 -0.1740  0.1428 -0.5045
   71MOL    C9911439   2.680   2.265   0.120  0.3536 -0.0163 -0.0607
   71MOL   N10011440   2.723   2.119   0.111 -0.4770 -0.1170  0.1005
   71MOL   H10111441   2.886   2.291   0.192  0.3487  1.4057 -0.9529
   71MOL   H10211442   2.761   2.312   0.311 -4.4027  1.3639 -1.2628
   71MOL   H10311443   2.683   2.304   0.018 -0.0848  0.0266 -0.0600
   71MOL   H10411444   2.715   2.072   0.200 -1.1395 -2.4790 -1.1635
   71MOL   H10511445   2.685   2.063   0.035 -1.5883  0.2356  0.3970
   71MOL   C10611446   2.540   2.277   0.180 -1.2000 -0.1264  0.0749
   71MOL   C10711447   2.430   2.285   0.073  0.2554 -0.4280 -0.9104
   71MOL   N10811448   2.308   2.267   0.150 -0.3719  0.4618 -0.3319
   71MOL   H10911449   2.530   2.183   0.234 -0.0587  0.3762  1.1828
   71MOL   H11011450   2.541   2.367   0.240  2.2701  1.5282 -2.2791
   71MOL   H11111451   2.448   2.210   7.271  3.3586  0.5225 -1.1768
   71MOL   H11211452   2.228   2.297   0.096  0.6350  2.4206 -0.7569
   71MOL   H11311453   2.282   2.170   0.160 -3.2455  1.3179  1.1890
   71MOL   C11411454   2.428   2.432   0.012  0.1578 -0.5075 -0.1142
   71MOL   C11511455   2.357   2.440   7.156  0.2850  0.0931  0.0444
   71MOL   N11611456   2.224   2.504   7.174 -0.7229  0.2255 -0.6585
   71MOL   H11711457   2.380   2.502   0.080  0.6969 -1.4960  1.3141
   71MOL   H11811458   2.532   2.460   7.268  0.6200 -1.6910  0.5517
   71MOL   H11911459   2.346   2.344   7.107 -0.3352 -0.0443  0.4446
   71MOL   H12011460   2.184   2.505   7.081  0.3001 -0.0203 -1.1085
   71MOL   H12111461   2.246   2.600   7.198 -0.2834 -0.3905  1.4827
   71MOL   C12211462   2.436   2.517   7.040 -0.3793 -0.0864 -0.6915
   71MOL   C12311463   2.568   2.439   6.999 -0.0682 -0.2299 -1.1832
   71MOL   N12411464   2.538   2.319   6.925 -0.3218  0.4056 -0.0568
   71MOL   H12511465   2.375   2.526   6.950 -1.1315 -1.5728 -0.3564
   71MOL   H12611466   2.458   2.619   7.071 -1.5308 -0.7750  2.5695
   71MOL   H12711467   2.615   2.408   7.093  0.0926 -0.6130 -1.3904
   71MOL   H12811468   2.629   2.298   6.886  0.3119  0.8935  1.1424
   71MOL   H12911469   2.481   2.344   6.845 -2.5933 -0.5180  1.2371
   71MOL   C13011470   2.662   2.520   6.917 -0.7646 -0.1767  1.1015
   71MOL   C13111471   2.809   2.471   6.922 -0.1335 -0.3994  0.5172
   71MOL   N13211472   2.830   2.369   6.817 -0.3911  0.0667  0.4840
   71MOL   H13311473   2.623   2.528   6.816  0.0163  1.6307  0.9116
   71MOL   H13411474   2.646   2.622   6.953  0.9180  0.0409  1.2874
   71MOL   H13511475   2.831   2.415   7.013  0.3292  1.0977  1.3252
   71MOL   H13611476   2.930   2.364   6.801 -0.8581 -1.0440 -2.2809
   71MOL   H13711477   2.811   2.277   6.854  1.2859 -0.5891 -0.2297
   71MOL   C13811478   2.901   2.598   6.897 -0.2115  0.1938  0.6255
   71MOL   C13911479   2.921   2.703   7.012 -0.9442 -0.0543 -0.0452
   71MOL   N14011480   3.049   2.671   7.071 -0.1528 -0.0215  0.6323
   71MOL   H14111481   2.996   2.573   6.851 -1.9720 -2.9321 -1.4995
   71MOL   H14211482   2.857   2.653   6.814  0.9492  2.9278  1.7567
   71MOL   H14311483   2.840   2.689   7.084 -1.1008  3.9785  0.6823
   71MOL   H14411484   3.080   2.748   7.128 -3.3085  1.8197 -0.0092
   71MOL   H14511485   3.048   2.585   7.125 -1.0052 -0.6297 -0.3249
   71MOL   C14611486   2.932   2.845   6.959 -0.0062 -0.4839 -0.4163
   71MOL   C14711487   2.798   2.912   6.927  0.5305  0.1372 -0.1260
   71MOL   N14811488   2.718   2.932   7.048  0.6037 -0.2975 -0.0926
   71MOL   H14911489   2.988   2.908   7.029  0.0266  0.4507 -1.2816
   71MOL   H15011490   2.999   2.853   6.874 -0.8020 -3.6457 -1.4154
   71MOL   H15111491   2.748   2.831   6.873  0.4530 -0.1162  0.3318
   71MOL   H15211492   2.629   2.977   7.030  0.1438 -0.9269  0.5644
   71MOL   H15311493   2.768   2.990   7.114  1.1129  0.8281 -1.4391
   71MOL   C15411494   2.800   3.038   6.837  0.4628  0.1184  0.0440
   71MOL   C15511495   2.837   3.009   6.690  0.0937 -0.0083 -0.0454
   71MOL   N15611496   2.826   3.124   6.611  0.3441  0.5828 -0.3328
   71MOL   H15711497   2.713   3.102   6.841  0.8720  0.6976 -0.2610
   71MOL   H15811498   2.883   3.102   6.866  0.8950  0.2795 -1.5287
   71MOL   H15911499   2.773   2.933   6.645  0.4777  0.4713 -1.4233
   71MOL   H16011500   2.734   3.150   6.580 -0.1639  0.3012  0.9196
   71MOL   H16111501   2.883   3.117   6.527  1.9634 -3.4400  0.9860
   71MOL   H16211502   2.937   2.966   6.695 -0.6116 -1.4943  2.2832
   72MOL     C111503   4.449   3.204   2.560 -0.2025  0.0967 -1.1560
   72MOL     C211504   4.530   3.075   2.588  0.0270 -0.9151  0.0433
   72MOL     N311505   4.658   3.109   2.642 -0.1389 -0.2541 -0.3773
   72MOL     H411506   4.392   3.234   2.648 -0.1018 -1.9577 -0.3757
   72MOL     H511507   4.377   3.189   2.479 -2.0314  0.6673  0.3060
   72MOL     H611508   4.557   3.029   2.493  3.0218  1.6186 -0.4032
   72MOL     H711509   4.641   3.142   2.736  0.9498 -0.2096 -0.1883
   72MOL     H811510   4.709   3.174   2.584  1.1385 -2.6622 -2.0224
   72MOL     H911511   4.503   3.296   2.536 -2.0657  1.6611  0.4292
   72MOL    C1011512   4.462   2.976   2.688 -0.0506 -0.7409 -0.4098
   72MOL    C1111513   4.346   2.895   2.622  0.3260 -0.5501  0.5438
   72MOL    N1211514   4.327   2.771   2.693 -0.0928  0.4244 -0.0058
   72MOL    H1311515   4.540   2.902   2.704 -0.8457 -1.7210 -0.9812
   72MOL    H1411516   4.441   3.029   2.781  1.0490 -0.3610 -0.3788
   72MOL    H1511517   4.378   2.867   2.521  0.1418  0.2820  0.2469
   72MOL    H1611518   4.253   2.776   2.761 -0.4704 -0.1395 -0.3691
   72MOL    H1711519   4.292   2.695   2.636  0.7640 -0.7811  1.0440
   72MOL    C1811520   4.210   2.979   2.637 -0.3772  0.0380 -0.3191
   72MOL    C1911521   4.091   2.935   2.550 -0.7039  0.1791 -0.6334
   72MOL    N2011522   3.967   2.994   2.602 -0.1811 -0.1649 -0.1495
   72MOL    H2111523   4.184   2.966   2.743 -2.5221  0.7695 -0.7229
   72MOL    H2211524   4.226   3.085   2.618 -1.1526  0.0518 -0.9047
   72MOL    H2311525   4.082   2.827   2.564  1.5995  0.1265  0.5939
   72MOL    H2411526   3.895   2.933   2.565 -0.9870  1.0204 -0.5588
   72MOL    H2511527   3.976   2.961   2.697  0.6942 -0.4885 -0.3397
   72MOL    C2611528   4.120   2.968   2.401 -0.1909 -0.2717  0.4670
   72MOL    C2711529   4.037   2.888   2.302 -0.4860  0.1775  0.0741
   72MOL    N2811530   3.909   2.949   2.276  0.4769 -0.4598  0.0882
   72MOL    H2911531   4.117   3.076   2.387 -1.0262 -0.3838 -0.2250
   72MOL    H3011532   4.226   2.961   2.374 -0.1098 -0.5701  0.8596
   72MOL    H3111533   4.011   2.793   2.348  0.7769  0.2646  1.0008
   72MOL    H3211534   3.856   2.965   2.361 -0.1684  2.0431 -0.7670
   72MOL    H3311535   3.853   2.876   2.233 -0.5059  0.7764 -0.7430
   72MOL    C3411536   4.116   2.862   2.167  0.6299 -0.0124  0.1936
   72MOL    C3511537   4.231   2.755   2.181 -0.8126  0.6226 -0.8385
   72MOL    N3611538   4.175   2.622   2.199 -0.1211 -0.6451  0.0043
   72MOL    H3711539   4.042   2.833   2.093  1.8978 -2.5579 -0.1293
   72MOL    H3811540   4.162   2.956   2.135 -0.5814  0.9496  1.2138
   72MOL    H3911541   4.287   2.788   2.268 -1.5955 -0.1564 -0.0341
   72MOL    H4011542   4.256   2.562   2.203  1.0003  0.9226  1.3570
   72MOL    H4111543   4.140   2.625   2.294  1.6678  2.1575  0.6557
   72MOL    C4211544   4.327   2.755   2.060 -0.3530  0.7005  0.2378
   72MOL    C4311545   4.425   2.871   2.048  0.2813 -0.5092 -0.5424
   72MOL    N4411546   4.534   2.837   2.140  0.0018  0.5206  0.5031
   72MOL    H4511547   4.390   2.666   2.051  0.8729  1.7742 -2.4935
   72MOL    H4611548   4.261   2.757   1.974 -0.0817  0.7609  0.0293
   72MOL    H4711549   4.374   2.958   2.089  0.3664  0.6505 -2.8172
   72MOL    H4811550   4.569   2.746   2.116 -3.2039 -0.7367  0.2706
   72MOL    H4911551   4.612   2.899   2.123  0.2308  0.0112 -0.2894
   72MOL    C5011552   4.480   2.899   1.901  0.0227 -0.1912  0.8648
   72MOL    C5111553   4.380   2.970   1.805  0.4708 -0.5502 -0.0364
   72MOL    N5211554   4.318   3.091   1.854 -0.0034 -0.1549  0.3190
   72MOL    H5311555   4.575   2.952   1.913  0.5749 -1.1749  0.8570
   72MOL    H5411556   4.518   2.809   1.853  4.4881  0.8678  2.1457
   72MOL    H5511557   4.300   2.896   1.806  1.2814 -1.4168  1.2811
   72MOL    H5611558   4.371   3.175   1.871 -1.5138  0.5730  1.4870
   72MOL    H5711559   4.275   3.062   1.940 -1.7465 -0.5109 -0.6412
   72MOL    C5811560   4.431   2.993   1.664 -0.2629 -0.1144  0.4219
   72MOL    C5911561   4.476   2.869   1.585  0.2210 -0.3688 -0.1001
   72MOL    N6011562   4.350   2.791   1.573  0.0084  0.2684 -0.8619
   72MOL    H6111563   4.354   3.046   1.607 -0.0626  2.1384  2.1913
   72MOL    H6211564   4.516   3.059   1.681  0.0382  1.2629 -5.3972
   72MOL    H6311565   4.554   2.810   1.634  2.1109 -0.4740 -3.0565
   72MOL    H6411566   4.371   2.712   1.513  1.3483 -0.3629  0.3966
   72MOL    H6511567   4.327   2.730   1.650 -1.3454  2.3041  0.3792
   72MOL    C6611568   4.518   2.900   1.440 -0.4165 -0.2227  0.4951
   72MOL    C6711569   4.606   2.790   1.373 -0.1731 -0.6032 -0.0343
   72MOL    N6811570   4.513   2.710   1.293  0.0279  0.4759  0.1954
   72MOL    H6911571   4.431   2.921   1.378  0.9553 -0.9930 -1.7167
   72MOL    H7011572   4.574   2.994   1.440  0.0879 -0.5122 -1.3999
   72MOL    H7111573   4.646   2.732   1.456 -1.1391  0.5927  1.2827
   72MOL    H7211574   4.557   2.628   1.254 -0.2508  0.5792 -0.3341
   72MOL    H7311575   4.421   2.685   1.326 -0.8371  2.2339 -0.8785
   72MOL    C7411576   4.717   2.848   1.279  0.3141 -0.2939  0.1515
   72MOL    C7511577   4.829   2.744   1.257  0.4136 -0.2283 -0.0246
   72MOL    N7611578   4.882   2.769   1.125 -0.2508 -0.5204 -0.1077
   72MOL    H7711579   4.678   2.903   1.194 -2.3865 -1.3843  0.6504
   72MOL    H7811580   4.770   2.929   1.330 -2.3908  0.2106  2.2895
   72MOL    H7911581   4.777   2.652   1.233 -2.6396  1.5671 -0.4976
   72MOL    H8011582   4.809   2.757   1.056 -0.7003  0.6368  0.1407
   72MOL    H8111583   4.914   2.864   1.110 -2.1773  0.0692 -0.6283
   72MOL    C8211584   4.944   2.748   1.357 -0.0161  0.2315  0.8691
   72MOL    C8311585   5.042   2.631   1.342 -0.2725 -0.7224  0.2845
   72MOL    N8411586   5.142   2.676   1.246 -0.0779  0.6393  0.3824
   72MOL    H8511587   4.991   2.845   1.346 -0.0878  0.1897  0.2038
   72MOL    H8611588   4.910   2.742   1.461 -0.6899  2.0224  0.7681
   72MOL    H8711589   4.992   2.539   1.312  0.3501 -1.2134  0.7395
   72MOL    H8811590   5.195   2.754   1.284  1.8179 -0.0988 -0.6668
   72MOL    H8911591   5.074   2.719   1.186 -1.1671  0.6869  1.6134
   72MOL    C9011592   5.120   2.593   1.463  0.4523 -0.2946 -0.5339
   72MOL    C9111593   5.225   2.477   1.463  0.3154 -0.6503  0.0578
   72MOL    N9211594   5.350   2.509   1.530  0.4001  0.1987 -0.2846
   72MOL    H9311595   5.169   2.687   1.489 -0.4700  0.1454 -0.3822
   72MOL    H9411596   5.046   2.573   1.540  0.1761 -0.0769 -0.7435
   72MOL    H9511597   5.254   2.458   1.360 -1.5637  1.3332 -0.8809
   72MOL    H9611598   5.410   2.575   1.484  1.1981  0.3822  0.9839
   72MOL    H9711599   5.326   2.544   1.622  1.9837 -1.9167  0.9665
   72MOL    C9811600   5.169   2.340   1.525  0.2415 -0.4656  0.1459
   72MOL    C9911601   5.045   2.283   1.457  0.6200  0.6116  0.3500
   72MOL   N10011602   5.055   2.134   1.460 -0.6624 -0.2269  0.1853
   72MOL   H10111603   5.253   2.270   1.524 -0.4781 -1.3842  1.7189
   72MOL   H10211604   5.148   2.342   1.632 -0.9493  1.5910 -0.0997
   72MOL   H10311605   5.030   2.312   1.353 -0.4255  1.2352  0.6650
   72MOL   H10411606   5.129   2.114   1.393 -0.8949 -0.7819  0.0913
   72MOL   H10511607   4.970   2.095   1.423 -1.6313  1.8076  0.1907
   72MOL   C10611608   4.916   2.317   1.544  0.0045  0.1654 -0.8452
   72MOL   C10711609   4.786   2.264   1.471  0.1824  0.0118 -0.1650
   72MOL   N10811610   4.688   2.216   1.571  0.1892 -0.0212  0.0496
   72MOL   H10911611   4.919   2.271   1.643 -0.0231  1.1070 -0.3981
   72MOL   H11011612   4.903   2.424   1.563 -0.2697 -0.1281  0.6648
   72MOL   H11111613   4.813   2.177   1.411 -0.7154 -0.6162  0.3417
   72MOL   H11211614   4.601   2.174   1.541  0.3254 -1.8070  2.0574
   72MOL   H11311615   4.730   2.146   1.629 -0.4401 -0.7452 -0.3616
   72MOL   C11411616   4.727   2.382   1.389  0.1743 -0.3705  0.0547
   72MOL   C11511617   4.643   2.337   1.265 -0.9311  0.3514  0.6406
   72MOL   N11611618   4.550   2.441   1.232  0.1311  0.6479  0.1495
   72MOL   H11711619   4.658   2.438   1.453  0.6101  1.1798 -0.7965
   72MOL   H11811620   4.808   2.448   1.359 -0.5698  0.0927 -0.9531
   72MOL   H11911621   4.594   2.240   1.274  2.6187 -1.6489 -0.6290
   72MOL   H12011622   4.493   2.401   1.159 -0.6491  2.1089 -0.0702
   72MOL   H12111623   4.481   2.444   1.306  1.0861 -2.7147  1.2264
   72MOL   C12211624   4.748   2.320   1.147  0.8273  0.1972 -0.0445
   72MOL   C12311625   4.782   2.175   1.100  0.1766 -0.7856 -0.8026
   72MOL   N12411626   4.656   2.104   1.078 -0.4043  0.4560  0.4612
   72MOL   H12511627   4.714   2.367   1.055  2.2088  3.2062  0.9290
   72MOL   H12611628   4.844   2.370   1.158  1.4472 -1.0654  0.3346
   72MOL   H12711629   4.855   2.124   1.163  0.8697  1.8304  0.5744
   72MOL   H12811630   4.589   2.172   1.112  0.3247  1.1012  0.6145
   72MOL   H12911631   4.656   2.026   1.142  1.2422  1.4806  1.7315
   72MOL   C13011632   4.860   2.181   0.968  0.4585 -0.3060  0.0042
   72MOL   C13111633   5.006   2.226   0.960 -0.0683  0.0945  0.0436
   72MOL   N13211634   5.081   2.104   0.939  0.2272  0.7837  0.7999
   72MOL   H13311635   4.857   2.078   0.931  2.2381 -0.0084 -1.0196
   72MOL   H13411636   4.802   2.240   0.898 -0.2858  1.3077  1.9322
   72MOL   H13511637   5.035   2.275   1.052  2.2615 -0.3112 -0.4310
   72MOL   H13611638   5.092   2.079   0.842  0.8424 -1.1511  1.3589
   72MOL   H13711639   5.028   2.026   0.974 -1.1039  0.2760 -2.1586
   72MOL   C13811640   5.034   2.313   0.841  0.7771 -0.3495  0.2967
   72MOL   C13911641   4.971   2.455   0.848  0.1886  0.1039 -0.3201
   72MOL   N14011642   5.030   2.529   0.961  0.8113 -0.2985 -0.0348
   72MOL   H14111643   5.140   2.331   0.823  0.9300 -1.1005  0.4334
   72MOL   H14211644   4.992   2.257   0.757 -3.2425  0.3559  1.7015
   72MOL   H14311645   4.863   2.448   0.862  0.0032 -0.5808 -1.9553
   72MOL   H14411646   5.004   2.489   1.050  0.4461 -2.3179 -1.0171
   72MOL   H14511647   4.984   2.618   0.962  1.4062  0.0301 -1.2419
   72MOL   C14611648   5.007   2.524   0.713 -0.0279 -0.1042 -0.6099
   72MOL   C14711649   4.944   2.471   0.582  0.0249 -0.5918 -0.6935
   72MOL   N14811650   4.825   2.554   0.546  0.8617  0.2883  0.1711
   72MOL   H14911651   5.001   2.632   0.726  3.6877  0.0980  0.1932
   72MOL   H15011652   5.116   2.517   0.705 -0.0443 -1.8726  0.4734
   72MOL   H15111653   4.902   2.372   0.604 -0.8720 -0.0208  0.1873
   72MOL   H15211654   4.764   2.566   0.626  0.4961 -0.0381 -0.0582
   72MOL   H15311655   4.766   2.512   0.477  1.0215  2.3061 -1.2462
   72MOL   C15411656   5.034   2.465   0.467 -0.3080 -0.1317 -0.1812
   72MOL   C15511657   5.157   2.373   0.490 -0.2095  0.5243  0.0140
   72MOL   N15611658   5.222   2.328   0.366  0.4835  0.0975 -0.2041
   72MOL   H15711659   4.975   2.434   0.380  1.8700 -0.2187 -1.6762
   72MOL   H15811660   5.068   2.567   0.450 -0.9832 -0.2215 -2.2417
   72MOL   H15911661   5.127   2.287   0.550  1.1418  0.3768  0.4927
   72MOL   H16011662   5.289   2.254   0.382 -1.5537 -1.3958  1.7370
   72MOL   H16111663   5.276   2.400   0.319 -0.2974  0.7257 -0.1461
   72MOL   H16211664   5.233   2.416   0.555 -0.9285 -1.3677  2.2170
   73MOL     C111665   4.469   6.572   1.541 -0.0991  0.4913  0.7239
   73MOL     C211666   4.423   6.512   1.673  0.8879 -0.2807 -1.0998
   73MOL     N311667   4.518   6.408   1.692  0.2497 -0.1116 -0.0215
   73MOL     H411668   4.494   6.499   1.465  1.4714 -0.2501  1.9235
   73MOL     H511669   4.562   6.629   1.549  0.5325 -0.8483  3.6221
   73MOL     H611670   4.321   6.473   1.669 -0.4861  3.0032  0.5834
   73MOL     H711671   4.512   6.344   1.770  4.5172  0.2691  0.7651
   73MOL     H811672   4.611   6.448   1.688  0.4243 -0.4689  0.3467
   73MOL     H911673   4.397   6.643   1.501  0.0500  0.2033 -0.0549
   73MOL    C1011674   4.435   6.607   1.799  0.0652 -1.0085 -0.8096
   73MOL    C1111675   4.299   6.648   1.864  0.4681  0.4936  0.3383
   73MOL    N1211676   4.343   6.730   1.974 -0.0060 -0.2327  0.0035
   73MOL    H1311677   4.497   6.565   1.878 -0.6309  0.6469  0.6515
   73MOL    H1411678   4.484   6.701   1.770 -1.2914 -0.5614 -1.7075
   73MOL    H1511679   4.247   6.569   1.919 -2.1203  1.9519  0.0810
   73MOL    H1611680   4.443   6.722   1.981  0.3448  1.0791 -2.7329
   73MOL    H1711681   4.313   6.699   2.065  0.8249  0.8703  0.6612
   73MOL    C1811682   4.195   6.715   1.766  0.4189 -0.1010  0.2012
   73MOL    C1911683   4.050   6.744   1.821 -0.0327 -0.6325 -0.8668
   73MOL    N2011684   3.969   6.799   1.716 -0.2126  0.1855 -0.1005
   73MOL    H2111685   4.236   6.798   1.709 -0.6431 -1.4631 -2.6247
   73MOL    H2211686   4.186   6.636   1.692 -1.5347  2.0663 -1.9285
   73MOL    H2311687   4.062   6.817   1.901 -1.3370  1.8844 -2.8514
   73MOL    H2411688   3.936   6.719   1.663  2.2121 -1.1656  0.3856
   73MOL    H2511689   3.890   6.854   1.747  0.2260  1.1397 -0.6622
   73MOL    C2611690   3.969   6.615   1.878  0.4653 -0.5046  0.1170
   73MOL    C2711691   3.986   6.565   2.025  0.0444  0.3473 -0.3817
   73MOL    N2811692   3.905   6.653   2.106  0.5774  0.1232 -0.4051
   73MOL    H2911693   3.864   6.623   1.851  0.4927  0.5815  0.3194
   73MOL    H3011694   3.988   6.530   1.812  0.3838  0.4774 -1.1966
   73MOL    H3111695   4.090   6.575   2.056  0.6807  2.0602 -2.9113
   73MOL    H3211696   3.959   6.698   2.178  1.2823  1.4161 -1.7098
   73MOL    H3311697   3.843   6.716   2.056  0.2894 -1.1194 -1.6638
   73MOL    C3411698   3.945   6.418   2.042  0.2349 -0.2841  0.1327
   73MOL    C3511699   4.070   6.335   2.011 -0.6896 -0.3808 -0.5484
   73MOL    N3611700   4.159   6.327   2.127  0.3906  0.4922 -0.5544
   73MOL    H3711701   3.908   6.395   2.141  0.3330 -1.1616 -0.0296
   73MOL    H3811702   3.857   6.400   1.980 -0.8955  4.2102  0.3157
   73MOL    H3911703   4.121   6.378   1.924 -1.7160  0.2793 -0.8495
   73MOL    H4011704   4.107   6.309   2.212  0.9637  0.7122 -0.1560
   73MOL    H4111705   4.217   6.244   2.122 -1.2578 -1.1089  3.8275
   73MOL    C4211706   4.027   6.195   1.976  0.6290  0.2752  0.2286
   73MOL    C4311707   4.138   6.094   1.932  0.0538 -0.3194 -0.5836
   73MOL    N4411708   4.094   5.969   1.996 -0.4453  0.3212  0.6581
   73MOL    H4511709   3.969   6.161   2.062  1.9737 -0.4951  0.8513
   73MOL    H4611710   3.943   6.211   1.909 -1.1442 -2.8200  1.5690
   73MOL    H4711711   4.233   6.128   1.976 -0.3589 -0.5400  0.5007
   73MOL    H4811712   4.084   5.990   2.094 -2.5695 -0.8463  0.7252
   73MOL    H4911713   4.171   5.904   1.998 -1.0506 -0.3899  0.8620
   73MOL    C5011714   4.141   6.075   1.775  0.1771  0.2496  0.7018
   73MOL    C5111715   4.181   6.198   1.695  0.2111  0.3744  0.9530
   73MOL    N5211716   4.327   6.188   1.687  0.4386  0.5417  0.9905
   73MOL    H5311717   4.189   5.985   1.736 -0.0385  0.1052  0.7676
   73MOL    H5411718   4.036   6.058   1.755  0.2671 -0.9790  1.1866
   73MOL    H5511719   4.129   6.281   1.742 -0.9644  0.9686 -1.3033
   73MOL    H5611720   4.367   6.279   1.672 -0.2147  0.7635  0.5648
   73MOL    H5711721   4.354   6.153   1.778 -1.9130  0.5095  1.7207
   73MOL    C5811722   4.134   6.182   1.548 -0.0477 -0.2949  0.2172
   73MOL    C5911723   4.146   6.309   1.455  0.0558  0.1341 -0.0527
   73MOL    N6011724   4.187   6.256   1.326  0.6654 -0.7980 -0.1253
   73MOL    H6111725   4.171   6.087   1.510 -0.7961 -0.5243  0.0541
   73MOL    H6211726   4.027   6.160   1.550  0.1226 -1.0747  0.8524
   73MOL    H6311727   4.225   6.379   1.483  1.1534 -0.0301 -2.5673
   73MOL    H6411728   4.177   6.332   1.260  0.2074 -1.1610 -0.4896
   73MOL    H6511729   4.284   6.233   1.339  0.6198 -0.5837  0.6139
   73MOL    C6611730   4.010   6.378   1.448 -0.1438  0.2600 -0.0823
   73MOL    C6711731   4.009   6.509   1.365  0.5882 -0.0204 -0.3488
   73MOL    N6811732   3.867   6.540   1.340 -0.8435  0.4317 -0.4545
   73MOL    H6911733   3.941   6.308   1.400  0.2109 -1.4425  1.8620
   73MOL    H7011734   3.972   6.399   1.548 -0.2298  0.5239 -0.1685
   73MOL    H7111735   4.064   6.497   1.271  1.0992  0.3591 -0.1035
   73MOL    H7211736   3.837   6.477   1.268  1.7818  0.6678 -1.8258
   73MOL    H7311737   3.849   6.637   1.318 -1.0014  0.9781  1.9613
   73MOL    C7411738   4.085   6.629   1.429 -0.1580 -0.4030 -0.2905
   73MOL    C7511739   4.107   6.756   1.335  0.4467 -0.1570  0.0323
   73MOL    N7611740   4.057   6.861   1.415 -0.4455  0.1116  0.3667
   73MOL    H7711741   4.031   6.651   1.522  0.4840 -0.0624  0.0061
   73MOL    H7811742   4.187   6.596   1.448  0.0886  0.8782  0.6876
   73MOL    H7911743   4.035   6.749   1.254  1.0564  0.5840 -0.5772
   73MOL    H8011744   4.104   6.862   1.505 -0.3618 -0.8427  0.3296
   73MOL    H8111745   3.962   6.836   1.441 -0.5090  0.2132  0.2345
   73MOL    C8211746   4.250   6.781   1.279  0.4740  0.0534 -0.8416
   73MOL    C8311747   4.245   6.859   1.143  0.3575 -0.5605  0.1999
   73MOL    N8411748   4.376   6.921   1.123  0.2970 -0.7062  0.2629
   73MOL    H8511749   4.302   6.845   1.351 -1.5732  2.0058 -1.0644
   73MOL    H8611750   4.315   6.694   1.268  2.8796  1.6785 -0.0203
   73MOL    H8711751   4.169   6.937   1.140  1.1508  0.2330  0.1941
   73MOL    H8811752   4.456   6.860   1.109  2.3639  2.2412 -1.1076
   73MOL    H8911753   4.386   6.962   1.032  2.6534 -0.0804  0.7807
   73MOL    C9011754   4.218   6.767   1.024  0.4541 -0.0733  0.3282
   73MOL    C9111755   4.154   6.835   0.898 -0.1267 -0.7338 -0.3480
   73MOL    N9211756   4.175   6.757   0.777 -0.5715  0.0435 -0.7952
   73MOL    H9311757   4.314   6.720   1.004  0.5949  1.3845 -2.6949
   73MOL    H9411758   4.148   6.689   1.055  1.9106 -0.6203  2.3072
   73MOL    H9511759   4.201   6.932   0.880 -0.6489  0.0315  2.2664
   73MOL    H9611760   4.144   6.800   0.691 -1.5476 -0.2702 -0.6096
   73MOL    H9711761   4.275   6.760   0.764 -0.5181 -0.8771 -0.6241
   73MOL    C9811762   4.001   6.875   0.913 -0.4149 -0.3054 -0.7652
   73MOL    C9911763   3.978   7.025   0.915 -0.2118 -0.4312  0.0236
   73MOL   N10011764   3.933   7.065   0.785  0.1832  0.4971  0.4238
   73MOL   H10111765   3.940   6.825   0.838  0.3359 -2.0306 -0.2407
   73MOL   H10211766   3.955   6.828   1.000  0.4031 -0.1761 -0.2544
   73MOL   H10311767   4.074   7.072   0.937 -0.5329  0.9629 -1.4615
   73MOL   H10411768   3.989   7.014   0.719 -3.6832 -2.6395 -0.5567
   73MOL   H10511769   3.838   7.036   0.768  0.3224  0.2497  0.0523
   73MOL   C10611770   3.865   7.072   1.011 -0.4594 -1.0554 -0.4010
   73MOL   C10711771   3.825   7.225   1.016 -0.6233  0.0467  0.3453
   73MOL   N10811772   3.711   7.238   1.097  0.5832  0.4312 -0.1887
   73MOL   H10911773   3.779   7.013   0.980 -1.6110 -0.0198  0.7966
   73MOL   H11011774   3.877   7.036   1.114 -0.3885  3.6965  1.3684
   73MOL   H11111775   3.795   7.261   0.918  0.8667  2.5965  0.7717
   73MOL   H11211776   3.729   7.249   1.196 -2.2088  2.0547  0.2258
   73MOL   H11311777   3.666   7.148   1.102 -0.8777  1.2379  2.7684
   73MOL   C11411778   3.941   0.037   1.065  0.3219 -0.5773  0.5598
   73MOL   C11511779   4.055   0.073   0.964 -0.5390  0.6496  0.1369
   73MOL   N11611780   4.004   0.178   0.877 -0.2233 -0.4907 -0.2926
   73MOL   H11711781   3.903   0.135   1.093  1.6924  0.4296 -1.0288
   73MOL   H11811782   3.994   7.257   1.142 -0.2893  0.1873  1.5380
   73MOL   H11911783   4.081   7.269   0.893  1.3153  1.7258 -0.4315
   73MOL   H12011784   3.914   0.159   0.836 -0.2185 -2.0810  0.4137
   73MOL   H12111785   4.060   0.173   0.793 -1.6164  0.2496 -1.2869
   73MOL   C12211786   4.184   0.123   1.023 -0.3869 -0.2550 -0.8187
   73MOL   C12311787   4.282   7.274   1.036 -0.0491 -0.5157  0.3333
   73MOL   N12411788   4.371   0.015   0.922  0.0491  0.2236 -0.6909
   73MOL   H12511789   4.239   0.190   0.957  0.0953  0.7859  0.6015
   73MOL   H12611790   4.166   0.174   1.118 -1.4061  0.9603 -1.6545
   73MOL   H12711791   4.234   7.177   1.025 -1.3633 -0.2378  3.1660
   73MOL   H12811792   4.432   0.096   0.923  0.9253 -0.3895 -2.5063
   73MOL   H12911793   4.318   0.025   0.837  0.3296 -0.8003 -0.9979
   73MOL   C13011794   4.365   7.268   1.170  0.2301  0.3352  1.1780
   73MOL   C13111795   4.291   7.216   1.296 -0.1475  0.0618  0.5091
   73MOL   N13211796   4.382   7.134   1.372  0.6511  0.6446  0.2613
   73MOL   H13311797   4.440   7.192   1.149 -1.2072 -0.7204 -0.2798
   73MOL   H13411798   4.416   0.085   1.197  3.3716 -0.9027 -0.3257
   73MOL   H13511799   4.211   7.144   1.276  0.5181 -0.9356  1.3901
   73MOL   H13611800   4.412   7.064   1.306  0.0740 -1.6153  2.3135
   73MOL   H13711801   4.328   7.080   1.438  1.7422 -0.2363  0.4392
   73MOL   C13811802   4.246   0.063   1.386  0.1670  0.6029 -0.4469
   73MOL   C13911803   4.178   0.024   1.519  0.3017 -0.2059 -0.6140
   73MOL   N14011804   4.270   0.063   1.627 -0.0042  0.0645  0.1619
   73MOL   H14111805   4.339   0.113   1.413  0.6023 -0.5435  0.2386
   73MOL   H14211806   4.187   0.131   1.325  1.5730  1.2472 -1.1297
   73MOL   H14311807   4.169   7.192   1.534  2.6463 -0.1757  1.5358
   73MOL   H14411808   4.244   7.275   1.701 -0.3022 -1.2951 -1.0903
   73MOL   H14511809   4.365   0.050   1.595  0.1776 -0.2830  0.8445
   73MOL   C14611810   4.036   0.073   1.544 -0.3499 -0.3645  0.5901
   73MOL   C14711811   3.927   7.263   1.469  0.5005  0.0137  0.2126
   73MOL   N14811812   3.893   7.138   1.539  0.0669  0.2339 -0.0935
   73MOL   H14911813   4.008   0.075   1.649 -1.5201  0.3821  0.2737
   73MOL   H15011814   4.044   0.175   1.508  0.3391  0.1920  2.2579
   73MOL   H15111815   3.962   7.237   1.369  2.9282  1.1867  0.7185
   73MOL   H15211816   3.849   7.147   1.630 -2.0258 -3.4209 -0.6678
   73MOL   H15311817   3.972   7.076   1.546 -1.0918 -1.6085 -2.6498
   73MOL   C15411818   3.797   0.065   1.450 -0.4871 -0.3330  0.0039
   73MOL   C15511819   3.809   0.201   1.382 -0.8922 -0.3920 -0.4682
   73MOL   N15611820   3.680   0.256   1.354  0.4198 -0.2495 -0.5247
   73MOL   H15711821   3.725   0.005   1.393  0.2793 -1.5578  0.3036
   73MOL   H15811822   3.752   0.091   1.546  1.4186 -3.0558  1.7095
   73MOL   H15911823   3.868   0.213   1.292 -2.1227  2.2428 -0.9667
   73MOL   H16011824   3.614   0.195   1.308  0.4330 -0.6567 -0.0197
   73MOL   H16111825   3.633   0.285   1.439 -2.0737  0.8869 -2.2241
   73MOL   H16211826   3.862   0.267   1.451 -0.9857 -0.1591 -0.6200
   74MOL     C111827   2.138   4.666   6.410  0.3940  0.6537 -0.0577
   74MOL     C211828   2.215   4.540   6.450  0.2831 -0.1044 -0.2169
   74MOL     N311829   2.200   4.529   6.593 -0.4972  0.2090  0.7455
   74MOL     H411830   2.045   4.676   6.465 -0.6149 -3.2025 -0.8975
   74MOL     H511831   2.109   4.657   6.305  2.7298  1.0555 -0.7712
   74MOL     H611832   2.319   4.556   6.421  0.2513  1.4098  0.4902
   74MOL     H711833   2.271   4.591   6.629  1.6371 -0.3623 -2.2568
   74MOL     H811834   2.249   4.442   6.606  0.8669  0.2553 -3.4376
   74MOL     H911835   2.201   4.755   6.409 -1.0667  1.6985 -1.1600
   74MOL    C1011836   2.157   4.414   6.387  0.1228 -0.5792  0.3219
   74MOL    C1111837   2.161   4.399   6.235 -0.2567 -0.0770 -0.5493
   74MOL    N1211838   2.302   4.394   6.195  0.0579  0.1028 -0.2291
   74MOL    H1311839   2.210   4.329   6.430  1.0600 -1.3912 -2.3297
   74MOL    H1411840   2.058   4.396   6.427  0.0211 -1.2318 -0.2179
   74MOL    H1511841   2.129   4.492   6.188  1.5103 -0.0353 -1.6916
   74MOL    H1611842   2.320   4.415   6.098  0.9821  0.0786 -0.0641
   74MOL    H1711843   2.347   4.466   6.250  0.1811 -1.1740  1.3863
   74MOL    C1811844   2.097   4.274   6.171 -0.5673  0.3390 -0.6902
   74MOL    C1911845   1.948   4.260   6.206 -0.4842 -0.3936 -0.0789
   74MOL    N2011846   1.871   4.250   6.079 -0.2654  0.4204 -0.0006
   74MOL    H2111847   2.119   4.264   6.065  2.2197 -1.2918 -0.0213
   74MOL    H2211848   2.144   4.184   6.211 -2.0894 -0.2421 -0.1979
   74MOL    H2311849   1.917   4.349   6.262  0.1922 -0.8424  1.0149
   74MOL    H2411850   1.865   4.336   6.026 -0.1430 -0.2648 -1.1305
   74MOL    H2511851   1.781   4.204   6.082 -1.7973  3.2526 -0.3680
   74MOL    C2611852   1.922   4.142   6.300 -0.0870  0.9938 -0.5328
   74MOL    C2711853   1.779   4.119   6.358  0.2641 -0.1283 -0.4278
   74MOL    N2811854   1.755   3.974   6.368  0.1770 -0.3272  0.0457
   74MOL    H2911855   1.955   4.044   6.267  1.2740  0.7356  1.4531
   74MOL    H3011856   1.988   4.169   6.383  0.9031  0.7765 -1.2383
   74MOL    H3111857   1.703   4.155   6.288 -1.4773 -0.1109  1.4421
   74MOL    H3211858   1.671   3.961   6.424 -0.4358  1.0161 -0.5390
   74MOL    H3311859   1.709   3.937   6.286 -0.2988  1.0579 -0.3276
   74MOL    C3411860   1.746   4.173   6.503  0.1998 -0.0711  0.3365
   74MOL    C3511861   1.733   4.328   6.515  0.0042  0.6021 -0.5184
   74MOL    N3611862   1.633   4.378   6.419  0.1642  0.0179  0.7619
   74MOL    H3711863   1.650   4.141   6.543  0.0066 -0.3536 -0.3536
   74MOL    H3811864   1.822   4.144   6.575  0.0826 -0.1223  0.4410
   74MOL    H3911865   1.827   4.374   6.484 -1.5376  3.8784 -0.5376
   74MOL    H4011866   1.672   4.373   6.326 -2.8962 -1.0368 -0.5211
   74MOL    H4111867   1.622   4.477   6.437  1.8580  0.1971  0.8969
   74MOL    C4211868   1.697   4.370   6.659  0.4350 -0.5078  0.6093
   74MOL    C4311869   1.808   4.351   6.764  0.1664 -0.8057  1.7855
   74MOL    N4411870   1.915   4.448   6.733 -0.6241  0.1563  0.5555
   74MOL    H4511871   1.670   4.476   6.653 -0.5567 -0.8260 -0.6814
   74MOL    H4611872   1.610   4.317   6.699 -0.2965 -0.0109 -0.2940
   74MOL    H4711873   1.859   4.255   6.757  0.8985 -0.2468 -0.9915
   74MOL    H4811874   1.988   4.430   6.800 -0.6955 -1.3545  0.2527
   74MOL    H4911875   1.973   4.438   6.651  0.8559  1.1702  1.4609
   74MOL    C5011876   1.766   4.383   6.908 -0.5358  0.1142 -0.5835
   74MOL    C5111877   1.686   4.263   6.969  0.5594 -0.0064  0.2368
   74MOL    N5211878   1.780   4.147   6.991 -0.1746 -0.0221 -0.6822
   74MOL    H5311879   1.853   4.398   6.971 -1.5027  0.9110  0.5966
   74MOL    H5411880   1.712   4.478   6.910  3.6856  2.5968  0.4458
   74MOL    H5511881   1.619   4.213   6.899  0.5862  0.2621  0.0170
   74MOL    H5611882   1.722   4.074   7.031  0.0375  1.7563  3.0471
   74MOL    H5711883   1.812   4.111   6.902  1.5115 -0.0679 -0.0686
   74MOL    C5811884   1.595   4.292   7.087 -0.0024 -0.1737 -0.1508
   74MOL    C5911885   1.446   4.326   7.054 -0.0641  0.0320  0.5529
   74MOL    N6011886   1.372   4.348   7.175 -0.0044 -0.2512 -0.8430
   74MOL    H6111887   1.586   4.202   7.149 -0.0605 -0.9217 -1.2358
   74MOL    H6211888   1.638   4.376   7.142 -0.8348 -0.7823  1.4586
   74MOL    H6311889   1.396   4.239   7.011 -1.5440 -0.3008  2.8571
   74MOL    H6411890   1.435   4.397   7.237 -2.9058  2.1280  0.4035
   74MOL    H6511891   1.318   4.429   7.148  0.5707  1.1200  1.9211
   74MOL    C6611892   1.429   4.452   6.963  0.6159 -0.2798  1.1069
   74MOL    C6711893   1.292   4.478   6.894  0.0700 -0.5116  0.2715
   74MOL    N6811894   1.281   4.618   6.854  1.0408 -0.2742 -0.2581
   74MOL    H6911895   1.458   4.541   7.020  0.4880  0.8921 -0.6100
   74MOL    H7011896   1.505   4.451   6.884  0.0267  0.9133  0.5140
   74MOL    H7111897   1.217   4.458   6.970 -0.0895  0.9383  0.4989
   74MOL    H7211898   1.285   4.673   6.938 -0.3316 -2.1627  1.0996
   74MOL    H7311899   1.191   4.652   6.821 -1.3087 -0.1083  5.6231
   74MOL    C7411900   1.279   4.389   6.768  0.5484 -0.2274 -0.4257
   74MOL    C7511901   1.238   4.243   6.782  0.2777  0.5373 -0.3563
   74MOL    N7611902   1.122   4.220   6.868 -0.7253  0.0980 -0.2043
   74MOL    H7711903   1.203   4.436   6.704  0.7270 -1.1035 -1.2934
   74MOL    H7811904   1.374   4.389   6.715  1.0589 -0.4323  0.4907
   74MOL    H7911905   1.320   4.188   6.827 -0.3840  0.7860  1.1711
   74MOL    H8011906   1.146   4.273   6.951  1.1917 -1.3120  0.1834
   74MOL    H8111907   1.057   4.283   6.824 -0.0028  0.4128 -0.8218
   74MOL    C8211908   1.198   4.186   6.647  0.0516  0.7316 -0.6195
   74MOL    C8311909   1.322   4.151   6.560 -0.0555  0.0112  0.3633
   74MOL    N8411910   1.400   4.038   6.613  0.1314 -0.0880  0.3676
   74MOL    H8511911   1.144   4.094   6.667 -2.7020  2.2030 -0.9706
   74MOL    H8611912   1.117   4.232   6.590 -0.9603 -2.3831 -1.7590
   74MOL    H8711913   1.397   4.231   6.555  0.2814 -0.3466 -0.2925
   74MOL    H8811914   1.446   4.053   6.702  2.2101 -1.9571 -0.3459
   74MOL    H8911915   1.346   3.956   6.635 -0.5914  0.3934  0.4122
   74MOL    C9011916   1.289   4.115   6.412 -0.4390 -0.7190 -0.0994
   74MOL    C9111917   1.225   4.232   6.329  0.4122 -0.3333  0.2720
   74MOL    N9211918   1.331   4.333   6.317  0.4031 -0.1644  0.2062
   74MOL    H9311919   1.372   4.066   6.361 -0.5944  0.1686 -1.2333
   74MOL    H9411920   1.209   4.041   6.419 -0.0796 -1.2342 -1.3742
   74MOL    H9511921   1.142   4.278   6.382  1.3986  1.0947  0.5982
   74MOL    H9611922   1.399   4.306   6.248 -0.6673 -0.3813 -0.7912
   74MOL    H9711923   1.385   4.330   6.402  2.2587 -0.0878 -0.9421
   74MOL    C9811924   1.177   4.200   6.190  0.6321 -0.5464 -0.2506
   74MOL    C9911925   1.063   4.094   6.180 -0.2939 -0.5113 -0.1691
   74MOL   N10011926   0.941   4.151   6.238  0.8513  0.1041 -0.0359
   74MOL   H10111927   1.139   4.291   6.145  0.9281  0.3536  1.2680
   74MOL   H10211928   1.267   4.174   6.135  3.2108  1.0527  3.0394
   74MOL   H10311929   1.090   4.004   6.234 -0.4655 -0.4418  0.0329
   74MOL   H10411930   0.964   4.205   6.320  0.4408  1.0964 -0.5691
   74MOL   H10511931   0.902   4.224   6.180  0.4304 -1.5452 -1.8886
   74MOL   C10611932   1.035   4.062   6.033  0.0716 -0.2714  0.9656
   74MOL   C10711933   1.037   4.172   5.918 -0.4905 -0.1437 -0.4523
   74MOL   N10811934   1.033   4.094   5.790 -1.5550  0.2464  0.0505
   74MOL   H10911935   1.117   3.995   6.008  0.7793 -0.7328  4.3322
   74MOL   H11011936   0.950   3.993   6.029 -0.1119  0.0166 -0.7325
   74MOL   H11111937   1.132   4.225   5.924 -0.6512 -0.0087  1.3035
   74MOL   H11211938   0.952   4.034   5.781 -0.8754 -0.5429 -0.8507
   74MOL   H11311939   1.110   4.030   5.782 -0.6560  1.3995 -0.6305
   74MOL   C11411940   0.913   4.267   5.923 -1.0352  0.0717  0.8310
   74MOL   C11511941   0.914   4.389   5.826 -0.2003 -0.3898  0.3622
   74MOL   N11611942   0.812   4.480   5.857 -0.0884 -0.4430  0.4251
   74MOL   H11711943   0.817   4.216   5.907 -1.5617  0.9321  1.2380
   74MOL   H11811944   0.908   4.302   6.026 -0.5847 -0.5072  1.0560
   74MOL   H11911945   0.909   4.354   5.723  1.1867 -3.0922  1.1355
   74MOL   H12011946   0.818   4.563   5.799 -1.0840  0.0540  1.0033
   74MOL   H12111947   0.735   4.434   5.809 -0.6202  2.2321 -1.3987
   74MOL   C12211948   1.041   4.482   5.840  0.0952 -0.3243  0.4872
   74MOL   C12311949   1.096   4.524   5.704 -0.3627  0.3251  0.4271
   74MOL   N12411950   1.174   4.649   5.716 -0.5556 -0.0986  0.7463
   74MOL   H12511951   1.018   4.570   5.900 -1.5063  0.5241 -1.3130
   74MOL   H12611952   1.118   4.426   5.894  0.4187  0.3365  0.7174
   74MOL   H12711953   1.014   4.541   5.635  1.7520  3.8205 -1.3820
   74MOL   H12811954   1.266   4.622   5.748 -0.5314 -0.8425  0.0404
   74MOL   H12911955   1.138   4.690   5.802 -1.5540  0.1377  0.2317
   74MOL   C13011956   1.188   4.416   5.652 -0.0123  0.4830  0.4586
   74MOL   C13111957   1.241   4.429   5.504  0.1130 -0.5223  0.1435
   74MOL   N13211958   1.347   4.340   5.477  0.4833 -0.1124 -0.1365
   74MOL   H13311959   1.273   4.399   5.718  1.2514 -1.1149 -1.4751
   74MOL   H13411960   1.145   4.316   5.655 -0.7107  0.7366 -0.5550
   74MOL   H13511961   1.286   4.527   5.491  0.5386 -0.7326  0.0471
   74MOL   H13611962   1.308   4.250   5.502  2.2588 -1.0907 -0.7233
   74MOL   H13711963   1.429   4.356   5.534  1.2634 -2.0514 -0.6327
   74MOL   C13811964   1.126   4.421   5.400  0.6429  0.3334  0.2393
   74MOL   C13911965   1.072   4.560   5.357 -0.1673  0.1390  0.3351
   74MOL   N14011966   1.165   4.636   5.274  0.4874 -0.0856  0.4086
   74MOL   H14111967   1.180   4.377   5.316  1.4231  0.1868  0.8173
   74MOL   H14211968   1.052   4.350   5.438 -0.4144  1.9420  1.2126
   74MOL   H14311969   1.070   4.619   5.449  1.0774  0.5649  0.0860
   74MOL   H14411970   1.251   4.596   5.309  0.4403 -0.4071  0.1608
   74MOL   H14511971   1.169   4.732   5.305  0.4956  0.4214 -1.1239
   74MOL   C14611972   0.932   4.549   5.294  0.2378 -0.0657  0.2661
   74MOL   C14711973   0.811   4.539   5.390  0.0557  0.3669  0.2071
   74MOL   N14811974   0.775   4.674   5.430  0.1166  0.3373  0.2902
   74MOL   H14911975   0.917   4.624   5.216 -0.9250 -1.0692 -0.4972
   74MOL   H15011976   0.938   4.457   5.236 -2.1873  0.7746 -1.4155
   74MOL   H15111977   0.840   4.483   5.479 -1.1825 -2.9023 -1.3439
   74MOL   H15211978   0.702   4.668   5.500 -1.2185  0.4816 -1.0725
   74MOL   H15311979   0.852   4.728   5.467  0.2942  1.3356 -1.5082
   74MOL   C15411980   0.689   4.479   5.323  0.2635  0.0010  0.2864
   74MOL   C15511981   0.696   4.330   5.299 -0.2068 -0.5875 -0.4350
   74MOL   N15611982   0.564   4.278   5.294  0.7221  0.8144 -0.0156
   74MOL   H15711983   0.615   4.494   5.401  0.1854  0.8187  0.0620
   74MOL   H15811984   0.684   4.528   5.225  1.2764  1.2227  0.8338
   74MOL   H15911985   0.751   4.281   5.380 -1.7372 -0.5863  0.6097
   74MOL   H16011986   0.541   4.308   5.200 -0.0644  0.2797 -0.0040
   74MOL   H16111987   0.586   4.182   5.273  2.0190  1.4292 -1.5711
   74MOL   H16211988   0.747   4.307   5.205  0.6495  0.9910 -0.3767
   75MOL     C111989   0.332   3.093   4.691  0.3990  0.1917  0.3036
   75MOL     C211990   0.226   3.200   4.699 -0.1239  0.3844  0.4334
   75MOL     N311991   0.295   3.322   4.680  0.1140  0.2425 -0.0601
   75MOL     H411992   0.430   3.131   4.721 -0.3428  2.1987  0.2907
   75MOL     H511993   0.341   3.055   4.590  1.7683 -1.5313  1.0448
   75MOL     H611994   0.184   3.189   4.799 -0.3300  1.0063  0.4179
   75MOL     H711995   0.232   3.379   4.625  0.0139  1.6223  1.4351
   75MOL     H811996   0.368   3.300   4.615 -0.3603  0.0023 -0.5168
   75MOL     H911997   0.302   3.018   4.764 -0.0727  0.1424  0.0581
   75MOL    C1011998   0.102   3.190   4.604 -0.3608  0.4067 -0.2731
   75MOL    C1111999   7.261   3.091   4.657  0.0435  0.3228  0.0033
   75MOL    N1212000   7.144   3.124   4.578  0.5554 -0.2306  0.5106
   75MOL    H1312001   0.054   3.287   4.593 -2.3202 -0.5282 -0.1753
   75MOL    H1412002   0.135   3.162   4.504 -0.6655 -2.9417  0.5101
   75MOL    H1512003   7.246   3.123   4.760 -3.5474 -0.0876 -0.3126
   75MOL    H1612004   7.068   3.062   4.602 -0.6399  1.1626  0.3801
   75MOL    H1712005   7.166   3.098   4.483 -0.5812  0.4647  0.0404
   75MOL    C1812006   0.034   2.947   4.623  0.1739  0.1704 -0.1905
   75MOL    C1912007   7.229   2.828   4.678 -0.8159  0.2119  0.0524
   75MOL    N2012008   0.006   2.706   4.617 -0.0683  0.7276 -0.1400
   75MOL    H2112009   0.052   2.943   4.515 -0.0895  2.0695 -0.3087
   75MOL    H2212010   0.132   2.942   4.671 -0.8563  0.1677  1.9590
   75MOL    H2312011   7.125   2.837   4.647 -1.5335 -1.0643  1.9480
   75MOL    H2412012   7.255   2.724   4.521 -1.0357  0.8767  0.1477
   75MOL    H2512013   7.224   2.628   4.646 -1.7617  1.1875 -2.0918
   75MOL    C2612014   7.239   2.798   4.833 -0.0414  0.1250 -0.3752
   75MOL    C2712015   7.161   2.890   4.927  0.4482  0.3564  0.0124
   75MOL    N2812016   7.023   2.845   4.914 -0.0914  0.4318  0.3992
   75MOL    H2912017   7.224   2.691   4.847 -0.5342  0.4287  1.5796
   75MOL    H3012018   0.062   2.799   4.880  0.4323  0.1091 -1.3548
   75MOL    H3112019   7.162   2.997   4.907 -0.4100  0.3288 -0.1787
   75MOL    H3212020   6.979   2.871   5.001 -0.3799 -1.2903  0.7804
   75MOL    H3312021   7.023   2.744   4.913  1.2726  0.4215  0.9161
   75MOL    C3412022   7.206   2.869   5.069  0.5237 -0.0833  1.0287
   75MOL    C3512023   7.275   2.989   5.127 -0.0094 -0.5957 -0.1094
   75MOL    N3612024   0.032   2.966   5.270 -0.7132  0.0106  0.2419
   75MOL    H3712025   7.133   2.839   5.144 -1.2885  2.8062  0.5022
   75MOL    H3812026   7.270   2.782   5.075 -0.3433 -0.7813  0.3679
   75MOL    H3912027   7.203   3.070   5.135  1.0448  0.6432 -2.7126
   75MOL    H4012028   0.065   3.051   5.312  0.1332  0.0041 -0.3887
   75MOL    H4112029   0.120   2.917   5.262 -0.7293 -0.1226  0.8864
   75MOL    C4212030   0.129   3.041   5.062 -0.3253  0.3861  0.6911
   75MOL    C4312031   0.177   3.186   5.096 -0.0074 -0.3377  0.0123
   75MOL    N4412032   0.305   3.216   5.037  1.0891  0.0045  0.0746
   75MOL    H4512033   0.203   2.962   5.063 -0.3726  0.3258 -0.2314
   75MOL    H4612034   0.089   3.053   4.961  2.9302  3.3510 -0.3266
   75MOL    H4712035   0.194   3.190   5.203  1.3941  0.6820 -0.2357
   75MOL    H4812036   0.359   3.131   5.040 -0.4099 -0.9591  0.6852
   75MOL    H4912037   0.297   3.230   4.937 -1.3197 -2.3173 -0.1340
   75MOL    C5012038   0.082   3.301   5.058  0.0063 -0.1174  0.4626
   75MOL    C5112039   7.266   3.351   5.172 -0.5181  0.1765 -0.1528
   75MOL    N5212040   0.061   3.420   5.279  0.3829 -0.3961 -0.6438
   75MOL    H5312041   0.116   3.384   4.996 -3.0343 -0.0797 -1.2700
   75MOL    H5412042   0.021   3.265   4.976 -0.1763  1.5698 -0.1681
   75MOL    H5512043   7.219   3.262   5.214 -0.2778 -0.0721 -0.4035
   75MOL    H5612044   0.130   3.487   5.247 -0.7666  1.4747  0.6277
   75MOL    H5712045   0.109   3.363   5.346 -3.0082 -1.1309  1.2818
   75MOL    C5812046   7.143   3.443   5.122  0.6345  0.1408  0.1401
   75MOL    C5912047   7.014   3.380   5.066 -0.3516 -0.4817  0.1989
   75MOL    N6012048   6.935   3.497   5.032 -0.0978 -0.3615  1.0673
   75MOL    H6112049   7.115   3.515   5.199 -1.0763 -1.2960  0.8932
   75MOL    H6212050   7.185   3.510   5.047  1.9306  1.9429  2.4140
   75MOL    H6312051   6.971   3.325   5.150 -2.6576  0.6308 -0.2224
   75MOL    H6412052   6.990   3.565   4.981  1.1282 -0.7682  1.8263
   75MOL    H6512053   6.911   3.543   5.119  0.0249  1.6464  0.0885
   75MOL    C6612054   7.027   3.294   4.935  0.7893 -0.4774 -0.1829
   75MOL    C6712055   6.889   3.241   4.895 -0.0916 -0.3542  0.1686
   75MOL    N6812056   6.898   3.164   4.763 -0.3661  0.8699 -0.6347
   75MOL    H6912057   7.086   3.346   4.860  1.1952 -2.4855 -1.3125
   75MOL    H7012058   7.078   3.203   4.967 -0.6025 -0.1210  3.2011
   75MOL    H7112059   6.828   3.329   4.876  1.0209  0.7970  1.7569
   75MOL    H7212060   6.942   3.075   4.783 -0.2750  0.9832 -0.3140
   75MOL    H7312061   6.953   3.218   4.698 -1.3843 -0.2450 -2.4310
   75MOL    C7412062   6.845   3.134   4.997  0.0349  0.0749  0.3389
   75MOL    C7512063   6.701   3.087   4.975 -0.0169 -0.0526 -0.3152
   75MOL    N7612064   6.664   2.971   5.058 -0.4536 -1.0322 -0.3223
   75MOL    H7712065   6.917   3.053   5.002 -0.1733 -0.1137  0.2867
   75MOL    H7812066   6.852   3.167   5.101 -1.9673 -0.6667  0.7406
   75MOL    H7912067   6.704   3.059   4.870 -1.5863  0.4800 -0.5048
   75MOL    H8012068   6.707   2.884   5.031 -1.1903 -1.1686 -1.0687
   75MOL    H8112069   6.684   2.977   5.157  2.4630 -0.5017 -0.8968
   75MOL    C8212070   6.597   3.198   4.993 -0.0024  0.1608 -0.4803
   75MOL    C8312071   6.448   3.165   4.959 -0.1448  0.5010  0.1316
   75MOL    N8412072   6.357   3.250   5.039  0.3050 -0.7336  0.0213
   75MOL    H8512073   6.593   3.203   5.102  0.4053 -0.9117 -0.4128
   75MOL    H8612074   6.633   3.290   4.947 -3.7609  1.5087 -0.8943
   75MOL    H8712075   6.429   3.066   4.999  1.0967  1.5721  3.5878
   75MOL    H8812076   6.372   3.344   5.004  2.2641 -0.9661  0.1429
   75MOL    H8912077   6.395   3.247   5.132  2.2094 -0.0635 -0.6994
   75MOL    C9012078   6.403   3.183   4.811  0.3994  0.3406 -0.1885
   75MOL    C9112079   6.481   3.095   4.711 -0.5115  0.3495  0.0748
   75MOL    N9212080   6.459   2.960   4.745  0.1072 -0.7227 -0.5078
   75MOL    H9312081   6.299   3.149   4.809  0.0278  1.4863 -0.7000
   75MOL    H9412082   6.395   3.288   4.781  0.0029  0.5450  0.6139
   75MOL    H9512083   6.587   3.119   4.717 -0.5942  0.9757 -0.8802
   75MOL    H9612084   6.536   2.905   4.711 -0.0948 -0.8872 -0.6993
   75MOL    H9712085   6.460   2.945   4.845  0.6304  1.9536 -0.0688
   75MOL    C9812086   6.437   3.124   4.568  0.2392 -0.1535 -0.4045
   75MOL    C9912087   6.503   3.238   4.484 -0.2739 -0.0635  0.2290
   75MOL   N10012088   6.646   3.222   4.502 -0.5904  0.2413 -0.1350
   75MOL   H10112089   6.449   3.029   4.515  0.7624 -0.1897 -0.2249
   75MOL   H10212090   6.329   3.136   4.562  0.4973  2.1905 -0.5135
   75MOL   H10312091   6.481   3.339   4.518 -0.3100 -0.3071  0.9427
   75MOL   H10412092   6.673   3.210   4.599  0.8245  1.3749 -0.3744
   75MOL   H10512093   6.684   3.315   4.506 -0.7106  0.2579  0.9528
   75MOL   C10612094   6.478   3.218   4.333  0.7129 -0.6967 -0.1316
   75MOL   C10712095   6.333   3.212   4.291 -0.1473  0.6030 -0.6944
   75MOL   N10812096   6.283   3.345   4.301 -0.3308  0.2102  0.0056
   75MOL   H10912097   6.537   3.288   4.274 -2.7296  1.0798 -1.5781
   75MOL   H11012098   6.515   3.116   4.317  0.4493 -0.5885 -1.4547
   75MOL   H11112099   6.274   3.151   4.360  0.8514 -0.5867 -0.8608
   75MOL   H11212100   6.184   3.340   4.279 -0.0862 -0.3171 -0.9893
   75MOL   H11312101   6.276   3.367   4.399  1.2381  1.1387 -0.0886
   75MOL   C11412102   6.337   3.158   4.143  0.3985 -0.4315  0.1393
   75MOL   C11512103   6.200   3.128   4.082 -0.1724 -0.6322 -0.6305
   75MOL   N11612104   6.225   3.108   3.942 -1.3212  0.0271  0.3914
   75MOL   H11712105   6.397   3.224   4.080  1.9637 -1.9688 -0.0239
   75MOL   H11812106   6.394   3.065   4.140  1.4756  0.2193  0.2861
   75MOL   H11912107   6.128   3.208   4.096 -1.2676 -2.0156  2.0416
   75MOL   H12012108   6.277   3.022   3.947 -1.5381 -0.0229  1.9171
   75MOL   H12112109   6.136   3.069   3.914 -0.4496 -0.9075 -1.1272
   75MOL   C12212110   6.141   3.003   4.142  0.6019  0.1035 -0.6342
   75MOL   C12312111   5.993   2.978   4.111 -0.1013 -1.1389  0.0643
   75MOL   N12412112   5.973   2.936   3.972 -0.0879 -0.3959 -0.8644
   75MOL   H12512113   6.194   2.916   4.104  1.6013 -0.4922  1.9616
   75MOL   H12612114   6.148   2.997   4.251  0.7795  1.7317 -0.5562
   75MOL   H12712115   5.942   3.067   4.146 -1.7666 -1.9424 -0.2957
   75MOL   H12812116   6.015   2.847   3.951 -1.9482 -1.9933  1.8464
   75MOL   H12912117   5.879   2.899   3.965  0.3739 -1.5708 -0.9712
   75MOL   C13012118   5.932   2.859   4.198  0.9349  0.2501 -0.2816
   75MOL   C13112119   5.782   2.889   4.239  0.0247  0.4866  0.5237
   75MOL   N13212120   5.696   2.775   4.243  0.0371  0.1222  0.0201
   75MOL   H13312121   5.940   2.767   4.139 -1.7838 -0.5970  0.5713
   75MOL   H13412122   5.982   2.835   4.291 -1.2041  0.9079  1.0790
   75MOL   H13512123   5.734   2.962   4.174  0.0878  0.7905  0.8174
   75MOL   H13612124   5.714   2.720   4.160 -1.1049  0.3642 -0.3851
   75MOL   H13712125   5.726   2.718   4.321  0.3203  0.2377 -0.0013
   75MOL   C13812126   5.775   2.956   4.374  0.6870  0.0130 -0.8347
   75MOL   C13912127   5.822   3.103   4.373 -0.1649 -0.0471  0.3225
   75MOL   N14012128   5.737   3.186   4.282  0.5342  0.1188  0.2008
   75MOL   H14112129   5.670   2.961   4.405  0.7152 -0.3208 -0.6843
   75MOL   H14212130   5.832   2.909   4.454  0.3275  0.2297 -0.4473
   75MOL   H14312131   5.924   3.121   4.340 -0.9490  1.2902 -1.5115
   75MOL   H14412132   5.751   3.138   4.194  0.2295 -0.0149  0.2228
   75MOL   H14512133   5.637   3.175   4.295  0.1437  3.4069  0.3731
   75MOL   C14612134   5.820   3.174   4.509 -0.6395  0.1865  0.1612
   75MOL   C14712135   5.936   3.141   4.608 -0.2867 -0.1551  0.4586
   75MOL   N14812136   6.064   3.134   4.549 -0.2082 -0.2539 -0.0608
   75MOL   H14912137   5.812   3.282   4.493  1.0200  0.0661 -1.6685
   75MOL   H15012138   5.731   3.139   4.560 -0.5781 -0.9679 -0.5221
   75MOL   H15112139   5.915   3.040   4.643  0.4670 -0.1125  1.0524
   75MOL   H15212140   6.097   3.225   4.520 -2.5065  0.5822 -0.1852
   75MOL   H15312141   6.133   3.093   4.610 -0.2131 -0.1595  0.0065
   75MOL   C15412142   5.938   3.238   4.718  0.8689  0.4913 -0.4907
   75MOL   C15512143   5.819   3.224   4.817  0.4750  0.0232 -0.6452
   75MOL   N15612144   5.835   3.281   4.950 -0.3715  0.2828  0.0728
   75MOL   H15712145   6.036   3.227   4.764  0.9409  2.6124 -0.0773
   75MOL   H15812146   5.921   3.339   4.682 -1.4577  0.4133  0.3196
   75MOL   H15912147   5.806   3.118   4.841  0.3216  0.6593  2.2735
   75MOL   H16012148   5.914   3.237   4.995  0.7410  0.9083 -1.2394
   75MOL   H16112149   5.765   3.263   5.021 -0.1340  0.4160  0.3444
   75MOL   H16212150   5.737   3.277   4.768 -0.5090  0.6430  1.5718
   76MOL     C112151   5.812   1.719   6.101  0.4603 -0.8766 -0.5631
   76MOL     C212152   5.883   1.725   5.960 -0.3422 -0.0909  0.7203
   76MOL     N312153   5.923   1.591   5.921 -0.0369 -0.0566  0.1669
   76MOL     H412154   5.729   1.649   6.097 -1.6339  1.4970  0.1252
   76MOL     H512155   5.761   1.809   6.135  0.8848 -0.9250  0.2096
   76MOL     H612156   5.977   1.780   5.952 -0.9322  0.9548  0.9813
   76MOL     H712157   5.988   1.602   5.844 -1.5158  1.5035 -0.8975
   76MOL     H812158   5.852   1.528   5.887  1.0882 -1.2527 -0.0445
   76MOL     H912159   5.874   1.692   6.186  0.6684  0.3160 -0.3334
   76MOL    C1012160   5.789   1.777   5.853  0.4941  0.5006 -0.5362
   76MOL    C1112161   5.742   1.922   5.872 -0.2699 -0.3904 -0.0421
   76MOL    N1212162   5.790   2.027   5.783 -0.8861 -0.2754 -0.0525
   76MOL    H1312163   5.842   1.770   5.758  0.2551 -0.4756 -0.6012
   76MOL    H1412164   5.701   1.714   5.839  0.4070  1.2542 -3.6687
   76MOL    H1512165   5.765   1.952   5.974 -0.7767 -0.8533  0.2155
   76MOL    H1612166   5.777   2.003   5.685  0.6132  0.4876 -0.4487
   76MOL    H1712167   5.890   2.041   5.790 -0.9518 -0.5703  1.4858
   76MOL    C1812168   5.588   1.930   5.854  0.4522  0.0297  0.7214
   76MOL    C1912169   5.501   1.886   5.975 -0.4902  0.1190 -0.5567
   76MOL    N2012170   5.504   1.985   6.088 -0.0909 -0.0568 -0.5215
   76MOL    H2112171   5.552   2.030   5.831 -0.8923  0.1462  3.1791
   76MOL    H2212172   5.564   1.863   5.771  0.7486 -0.5717  1.1150
   76MOL    H2312173   5.545   1.789   5.998 -2.0910 -0.2191  1.2343
   76MOL    H2412174   5.598   2.009   6.118 -0.0771  0.4069 -0.9362
   76MOL    H2512175   5.468   1.943   6.172  0.3885  1.9803  0.7411
   76MOL    C2612176   5.352   1.859   5.939 -0.4084  0.4647  0.3126
   76MOL    C2712177   5.328   1.709   5.910  0.1195  0.6290 -0.3911
   76MOL    N2812178   5.333   1.643   6.036  0.1263  0.8743 -0.7763
   76MOL    H2912179   5.283   1.884   6.019 -1.0279 -0.8707  0.2181
   76MOL    H3012180   5.323   1.918   5.852 -0.5755  0.3677  0.3027
   76MOL    H3112181   5.408   1.672   5.845 -0.2038 -1.6873  0.4856
   76MOL    H3212182   5.395   1.689   6.101 -1.2250 -1.0438  1.9765
   76MOL    H3312183   5.364   1.548   6.017 -0.5352 -0.0567  2.5286
   76MOL    C3412184   5.199   1.684   5.834 -0.4891  0.4534 -0.2371
   76MOL    C3512185   5.151   1.534   5.815 -0.8642 -0.7045  0.2261
   76MOL    N3612186   5.010   1.520   5.836  0.2903  0.1538  0.2835
   76MOL    H3712187   5.123   1.735   5.894 -0.0672  1.4948 -0.5817
   76MOL    H3812188   5.202   1.739   5.739 -0.6984 -0.9073 -1.0445
   76MOL    H3912189   5.184   1.458   5.886  2.2435  1.3445  1.0772
   76MOL    H4012190   4.956   1.603   5.818 -0.0252 -0.3691 -1.2377
   76MOL    H4112191   4.991   1.495   5.932 -2.1989 -1.5652 -0.6064
   76MOL    C4212192   5.177   1.484   5.670 -0.1122 -0.3457  0.6824
   76MOL    C4312193   5.329   1.476   5.643  0.2424  0.3767  0.3434
   76MOL    N4412194   5.392   1.407   5.753  0.0571  0.0360 -0.3607
   76MOL    H4512195   5.123   1.393   5.643 -1.8810  0.7546  0.4211
   76MOL    H4612196   5.132   1.555   5.600 -0.4781 -1.5220 -0.2870
   76MOL    H4712197   5.368   1.577   5.631 -1.6760  1.0176 -0.6772
   76MOL    H4812198   5.350   1.421   5.843  1.0901  2.2998 -0.2089
   76MOL    H4912199   5.381   1.308   5.738 -2.2882  0.5169 -2.1605
   76MOL    C5012200   5.371   1.408   5.507  0.8332 -0.0458 -0.0726
   76MOL    C5112201   5.352   1.488   5.376  0.0242 -0.3621 -0.4472
   76MOL    N5212202   5.206   1.509   5.353 -0.0159  0.2229  0.2638
   76MOL    H5312203   5.478   1.387   5.513  0.5043 -1.9792 -0.5668
   76MOL    H5412204   5.321   1.312   5.492 -1.7942  1.0276  1.3878
   76MOL    H5512205   5.380   1.416   5.299  0.3028  0.4885 -1.1396
   76MOL    H5612206   5.203   1.581   5.282  2.3056  0.4080  0.2909
   76MOL    H5712207   5.170   1.565   5.430 -0.2381 -0.0730  0.3733
   76MOL    C5812208   5.426   1.618   5.339  1.4014  0.3620  0.5781
   76MOL    C5912209   5.581   1.620   5.359 -0.1838 -0.0832  0.2857
   76MOL    N6012210   5.629   1.513   5.278  0.2182  0.1097 -0.0627
   76MOL    H6112211   5.404   1.645   5.236 -1.0271  3.2550  1.7872
   76MOL    H6212212   5.383   1.702   5.393  0.6348  1.0312 -1.0166
   76MOL    H6312213   5.598   1.600   5.465 -2.6791 -0.6204  0.6210
   76MOL    H6412214   5.564   1.436   5.286 -0.7182  0.7810 -1.0337
   76MOL    H6512215   5.613   1.537   5.182 -0.0461  3.4267  0.7557
   76MOL    C6612216   5.634   1.757   5.320 -0.0911 -0.3220  0.6364
   76MOL    C6712217   5.596   1.872   5.419 -0.1090 -0.5015 -0.3686
   76MOL    N6812218   5.675   1.841   5.535 -0.9437 -0.3736 -0.2625
   76MOL    H6912219   5.742   1.741   5.314 -0.0815 -0.9591  2.3050
   76MOL    H7012220   5.596   1.791   5.224  0.5558  0.9529  0.8267
   76MOL    H7112221   5.493   1.863   5.452  0.0544 -2.4115 -0.3643
   76MOL    H7212222   5.646   1.752   5.572  0.0172 -0.4569  0.3004
   76MOL    H7312223   5.622   1.897   5.600 -0.0419  0.5563 -0.3079
   76MOL    C7412224   5.627   2.023   5.380 -0.0525 -1.0289  0.2907
   76MOL    C7512225   5.511   2.100   5.307  0.1294 -0.1110 -0.0222
   76MOL    N7612226   5.531   2.238   5.335 -0.0395 -0.6549  0.0826
   76MOL    H7712227   5.645   2.068   5.478 -2.7089 -3.9204  2.2012
   76MOL    H7812228   5.720   2.012   5.325 -0.6805  1.5434 -1.3307
   76MOL    H7912229   5.413   2.084   5.352  0.3654 -0.5338  0.3365
   76MOL    H8012230   5.456   2.298   5.307 -0.3382 -1.7173 -1.4162
   76MOL    H8112231   5.609   2.273   5.282 -0.6061  1.7370  0.7476
   76MOL    C8212232   5.506   2.084   5.153 -0.1030 -0.6949 -0.2083
   76MOL    C8312233   5.368   2.027   5.098 -0.4162 -0.3474 -0.1248
   76MOL    N8412234   5.362   2.045   4.955 -0.5590  0.3924  0.0627
   76MOL    H8512235   5.532   2.169   5.090 -3.4744  0.1541 -0.5556
   76MOL    H8612236   5.582   2.010   5.131 -0.6833 -1.5435  0.6171
   76MOL    H8712237   5.285   2.089   5.131  1.3408  2.0567 -0.1280
   76MOL    H8812238   5.362   2.141   4.924  0.4162  0.3505 -0.0858
   76MOL    H8912239   5.448   2.007   4.918  0.8350  0.4909  3.0833
   76MOL    C9012240   5.330   1.888   5.150 -0.7334  1.0371  0.0183
   76MOL    C9112241   5.180   1.869   5.172  0.1475  0.8641 -0.1286
   76MOL    N9212242   5.151   1.727   5.167  0.2465 -0.5415 -0.2583
   76MOL    H9312243   5.366   1.804   5.090  0.9548  0.9396  1.1493
   76MOL    H9412244   5.381   1.863   5.243  0.3355 -1.1571 -1.1016
   76MOL    H9512245   5.118   1.918   5.097 -0.9321 -0.0723  0.1305
   76MOL    H9612246   5.050   1.717   5.162 -0.0638  0.5232  2.8839
   76MOL    H9712247   5.185   1.695   5.077 -1.5871 -0.5832 -0.9634
   76MOL    C9812248   5.119   1.924   5.305 -0.3358  1.0856 -0.4033
   76MOL    C9912249   5.106   2.084   5.316 -0.3708 -0.0711  0.0194
   76MOL   N10012250   5.012   2.134   5.217 -0.6007  0.2080  0.1710
   76MOL   H10112251   5.022   1.883   5.333  0.9922 -1.6036  0.3863
   76MOL   H10212252   5.181   1.888   5.387  1.2939  0.8159 -1.7349
   76MOL   H10312253   5.204   2.125   5.290 -0.1587 -0.9601 -0.5997
   76MOL   H10412254   5.013   2.232   5.241 -0.1358  0.1924  0.2291
   76MOL   H10512255   5.054   2.126   5.126 -0.2554  0.6436  0.2866
   76MOL   C10612256   5.072   2.139   5.455  0.2062 -0.3256 -0.2251
   76MOL   C10712257   5.174   2.134   5.570  0.1397  0.0854  0.2452
   76MOL   N10812258   5.275   2.235   5.536  0.2751  0.1091 -0.5538
   76MOL   H10912259   5.039   2.243   5.444  0.1078 -0.0886  2.1054
   76MOL   H11012260   4.980   2.093   5.492  0.0893 -1.2534 -1.6642
   76MOL   H11112261   5.229   2.040   5.566 -1.3800 -0.7285 -2.4949
   76MOL   H11212262   5.344   2.223   5.609 -0.2492 -0.0566 -0.0803
   76MOL   H11312263   5.330   2.223   5.453 -1.5927 -0.1313 -1.7986
   76MOL   C11412264   5.123   2.155   5.707 -0.2699  0.2164 -0.3301
   76MOL   C11512265   5.051   2.036   5.774 -0.0151 -0.6216  0.1810
   76MOL   N11612266   5.081   2.053   5.913 -0.3652  0.0009  0.2513
   76MOL   H11712267   5.206   2.192   5.768 -0.5926 -0.1421  0.3277
   76MOL   H11812268   5.060   2.244   5.701  0.9952  1.0730 -1.5667
   76MOL   H11912269   5.089   1.944   5.730  0.6216 -0.8776  1.2275
   76MOL   H12012270   5.080   2.152   5.932 -1.2064  0.1355 -0.4562
   76MOL   H12112271   5.180   2.033   5.912  0.2447  2.9152 -0.0972
   76MOL   C12212272   4.898   2.038   5.754 -0.6073 -0.8102  0.0882
   76MOL   C12312273   4.817   1.908   5.727 -0.2357  0.8020  0.1475
   76MOL   N12412274   4.879   1.836   5.621 -0.9119 -0.4326  0.1685
   76MOL   H12512275   4.856   2.112   5.822 -1.1597 -0.0734 -1.0311
   76MOL   H12612276   4.883   2.097   5.663  1.4312 -1.7078 -0.8624
   76MOL   H12712277   4.717   1.937   5.695 -0.1622 -0.4965 -1.3303
   76MOL   H12812278   4.902   1.908   5.554  0.1683 -0.8519  0.0808
   76MOL   H12912279   4.814   1.776   5.571 -2.2279  0.9246  0.2158
   76MOL   C13012280   4.803   1.821   5.850  0.5678  0.4941 -0.7191
   76MOL   C13112281   4.674   1.732   5.856  0.0681  0.2653  0.1152
   76MOL   N13212282   4.694   1.624   5.952  0.0333 -0.5124 -0.5449
   76MOL   H13312283   4.893   1.760   5.859  0.7247  0.7844 -0.3144
   76MOL   H13412284   4.808   1.881   5.941  0.7168  0.6731 -0.8461
   76MOL   H13512285   4.655   1.690   5.757 -1.5177 -0.3064  0.6344
   76MOL   H13612286   4.741   1.646   6.038 -1.1897  0.5340 -0.1320
   76MOL   H13712287   4.749   1.554   5.904 -0.2912  0.7979 -2.9443
   76MOL   C13812288   4.552   1.812   5.905 -0.0523  0.1680  0.2300
   76MOL   C13912289   4.486   1.906   5.810  0.5800  0.0179  0.3365
   76MOL   N14012290   4.435   1.838   5.690 -0.0958 -0.3037 -0.3812
   76MOL   H14112291   4.485   1.727   5.910 -0.1134  0.0891 -1.4661
   76MOL   H14212292   4.571   1.871   5.995  1.2306  1.6591 -0.9751
   76MOL   H14312293   4.544   1.989   5.770 -0.9512  1.4001  0.9207
   76MOL   H14412294   4.375   1.895   5.632  1.5741 -0.7742 -2.6184
   76MOL   H14512295   4.364   1.767   5.704  0.0798 -0.3226  0.4895
   76MOL   C14612296   4.356   1.972   5.863  0.2380  0.1163 -0.5025
   76MOL   C14712297   4.315   2.098   5.786  0.4121 -0.3716 -0.3883
   76MOL   N14812298   4.259   2.064   5.656  0.7077 -0.0973 -0.3404
   76MOL   H14912299   4.272   1.902   5.856  0.3478  0.0542 -1.3166
   76MOL   H15012300   4.363   2.005   5.966  1.1314  0.4138 -0.6605
   76MOL   H15112301   4.402   2.163   5.780 -1.7714  3.0714  2.8985
   76MOL   H15212302   4.221   2.145   5.608  2.4684  0.1700 -1.3362
   76MOL   H15312303   4.178   2.006   5.672 -1.1382  2.6139  0.5828
   76MOL   C15412304   4.207   2.177   5.856  0.1396 -0.1502  0.6827
   76MOL   C15512305   4.265   2.265   5.976 -0.2802 -0.4759 -0.5613
   76MOL   N15612306   4.150   2.339   6.030  0.3876  0.4586 -0.1198
   76MOL   H15712307   4.163   2.247   5.785 -3.0441 -0.3845  2.3413
   76MOL   H15812308   4.125   2.113   5.888 -0.8060 -1.0898 -3.4036
   76MOL   H15912309   4.343   2.333   5.942 -0.2341 -0.1638  0.1646
   76MOL   H16012310   4.098   2.270   6.082 -2.6805  0.6050 -2.8103
   76MOL   H16112311   4.187   2.411   6.091  1.3502  1.4628 -1.8367
   76MOL   H16212312   4.303   2.202   6.057 -0.4908  1.2279  0.9047
   77MOL     C112313   6.741   5.490   3.642 -0.6341  0.4079  0.0798
   77MOL     C212314   6.732   5.367   3.555 -0.5183  0.1994  0.2809
   77MOL     N312315   6.724   5.411   3.416 -0.1314  0.5417  0.2076
   77MOL     H412316   6.840   5.498   3.686 -1.8159  2.7357  2.4759
   77MOL     H512317   6.676   5.486   3.729  2.2163  0.2250  2.2418
   77MOL     H612318   6.633   5.324   3.570 -0.6100  0.7707  1.3630
   77MOL     H712319   6.675   5.341   3.364  1.1297  1.4055 -2.2120
   77MOL     H812320   6.669   5.495   3.405  0.5359  0.9036 -0.4110
   77MOL     H912321   6.720   5.578   3.581  1.7759  3.4256  3.4257
   77MOL    C1012322   6.845   5.263   3.581  0.1465  0.1235  0.3461
   77MOL    C1112323   6.798   5.120   3.537  0.6545  0.4623  0.6303
   77MOL    N1212324   6.914   5.035   3.566  0.2451 -0.4134 -0.7146
   77MOL    H1312325   6.934   5.293   3.525  0.8260  0.7785  1.7641
   77MOL    H1412326   6.871   5.265   3.687 -0.9151 -1.2333  0.6439
   77MOL    H1512327   6.762   5.113   3.434 -0.2486 -1.2059  1.0382
   77MOL    H1612328   7.006   5.075   3.563 -0.2959  1.0129  0.5570
   77MOL    H1712329   6.893   5.006   3.660  0.4017  2.2416  0.1975
   77MOL    C1812330   6.691   5.069   3.638  0.1446  0.8816  0.0146
   77MOL    C1912331   6.609   4.940   3.589  0.6541  0.0554  0.7317
   77MOL    N2012332   6.542   4.890   3.707 -0.0537 -0.5816  0.5898
   77MOL    H2112333   6.737   5.059   3.736  0.7886 -2.4271 -0.5427
   77MOL    H2212334   6.614   5.144   3.656 -1.8707 -1.0270 -0.4905
   77MOL    H2312335   6.676   4.861   3.554 -0.3185  0.2692 -1.7029
   77MOL    H2412336   6.597   4.826   3.763 -0.1969  1.6685  3.3540
   77MOL    H2512337   6.464   4.836   3.670  1.1010 -3.0420  1.6309
   77MOL    C2612338   6.503   4.976   3.484  0.2413  0.0997 -0.4216
   77MOL    C2712339   6.442   4.858   3.403 -0.6705 -0.2910  0.1047
   77MOL    N2812340   6.318   4.901   3.344 -0.3649 -0.1525 -0.0627
   77MOL    H2912341   6.430   5.044   3.526  4.3596  1.7697  4.4973
   77MOL    H3012342   6.545   5.044   3.410 -0.7178  0.6556 -0.4539
   77MOL    H3112343   6.414   4.773   3.465 -0.0559  1.4755  2.8477
   77MOL    H3212344   6.278   4.833   3.281 -1.7130  0.4814  0.1039
   77MOL    H3312345   6.263   4.902   3.428 -1.2697 -1.4292 -0.6232
   77MOL    C3412346   6.530   4.810   3.281 -0.2516 -0.7969 -0.2827
   77MOL    C3512347   6.650   4.721   3.315  0.3741  0.3255 -0.8803
   77MOL    N3612348   6.599   4.582   3.313  0.3701 -0.2786  0.5536
   77MOL    H3712349   6.464   4.759   3.212 -0.1689 -0.9104 -0.2785
   77MOL    H3812350   6.559   4.898   3.224  0.2633 -1.2798 -0.7736
   77MOL    H3912351   6.688   4.731   3.417 -0.4103 -0.8787 -0.4585
   77MOL    H4012352   6.668   4.534   3.370 -0.5110  0.3586  2.1993
   77MOL    H4112353   6.517   4.575   3.371  0.9274  2.0818  1.6779
   77MOL    C4212354   6.769   4.732   3.219  0.1629  0.5253  0.4534
   77MOL    C4312355   6.868   4.852   3.253 -0.6360 -0.2453  0.0072
   77MOL    N4412356   6.946   4.811   3.366  0.0284 -0.5552  0.2717
   77MOL    H4512357   6.829   4.642   3.208  1.3744  1.1736  1.5944
   77MOL    H4612358   6.722   4.752   3.123 -3.0831  0.2987  1.9252
   77MOL    H4712359   6.818   4.943   3.286 -0.5869  0.6599 -2.2994
   77MOL    H4812360   6.944   4.885   3.435 -0.2254  1.0625 -1.4286
   77MOL    H4912361   6.900   4.739   3.419  0.1249  0.2729  1.5245
   77MOL    C5012362   6.950   4.888   3.128  0.0319 -0.3419 -0.0716
   77MOL    C5112363   7.034   5.012   3.157 -0.5054 -0.7299  0.3246
   77MOL    N5212364   7.126   5.023   3.040  0.2609 -0.6898 -0.4736
   77MOL    H5312365   7.015   4.803   3.106 -0.3968 -0.7118  0.1025
   77MOL    H5412366   6.877   4.895   3.048 -0.9265 -3.0109  0.5190
   77MOL    H5512367   7.100   4.994   3.242 -0.7085  1.1989  0.9108
   77MOL    H5612368   7.193   4.949   3.046  1.5664  0.4063 -1.3193
   77MOL    H5712369   7.069   5.015   2.957 -0.7440  0.2400  0.1066
   77MOL    C5812370   6.966   5.143   3.197  0.1973 -0.1994  0.5134
   77MOL    C5912371   7.047   5.269   3.176  0.2056 -0.7605  0.1624
   77MOL    N6012372   6.954   5.377   3.184 -0.4079  0.0407  0.2562
   77MOL    H6112373   6.869   5.140   3.147  0.4425 -4.1227  0.1185
   77MOL    H6212374   6.940   5.140   3.303  0.6091 -2.1540  0.5580
   77MOL    H6312375   7.084   5.267   3.073 -0.9553  2.0897 -0.3362
   77MOL    H6412376   6.898   5.377   3.268 -1.4320  0.2142 -0.4199
   77MOL    H6512377   6.877   5.366   3.120 -0.1905  0.3455 -0.0633
   77MOL    C6612378   7.165   5.286   3.273  0.6493  0.9237 -0.0290
   77MOL    C6712379   0.012   5.199   3.253  0.2523 -0.2539  0.7185
   77MOL    N6812380   0.081   5.233   3.131 -0.5254 -0.5921 -0.3711
   77MOL    H6912381   7.191   5.392   3.276  1.1964  0.8008 -0.3506
   77MOL    H7012382   7.129   5.263   3.373  3.1239  2.8987  1.4004
   77MOL    H7112383   7.270   5.091   3.249 -2.3283  0.1088  1.7749
   77MOL    H7212384   0.041   5.322   3.104 -0.2091 -0.0469  0.9213
   77MOL    H7312385   0.056   5.159   3.068 -0.4665 -0.9304  0.0034
   77MOL    C7412386   0.120   5.216   3.355  0.2575  0.2908  0.2253
   77MOL    C7512387   0.105   5.110   3.472 -0.1921 -0.1062  0.5259
   77MOL    N7612388   0.231   5.110   3.540 -0.0661 -0.2980  0.5656
   77MOL    H7712389   0.215   5.196   3.306 -0.3194 -1.3920 -0.2328
   77MOL    H7812390   0.117   5.322   3.380  1.0629  0.9597 -2.4000
   77MOL    H7912391   0.078   5.013   3.431 -1.8853 -0.2920  2.0612
   77MOL    H8012392   0.235   5.181   3.611 -2.4908 -1.7283  2.1942
   77MOL    H8112393   0.236   5.021   3.587  1.5927 -0.5860 -0.0891
   77MOL    C8212394   0.002   5.149   3.574 -0.0554  0.0304 -0.5245
   77MOL    C8312395   7.272   5.056   3.697 -0.4176  0.5949  0.1401
   77MOL    N8412396   7.175   5.110   3.789  0.8468 -0.0373 -0.4316
   77MOL    H8512397   0.008   5.251   3.613  2.1979 -1.1497  2.3091
   77MOL    H8612398   7.179   5.129   3.530 -0.7349 -1.2558  1.5111
   77MOL    H8712399   0.090   5.064   3.751 -0.2044 -0.3210 -0.0810
   77MOL    H8812400   7.195   5.205   3.817 -0.9948 -0.3232  2.0413
   77MOL    H8912401   7.182   5.058   3.875 -1.3500 -0.0005 -0.2059
   77MOL    C9012402   7.216   4.915   3.655  0.3915  0.5530  0.2566
   77MOL    C9112403   7.254   4.795   3.746 -0.5744 -0.0008  0.6453
   77MOL    N9212404   0.109   4.747   3.718  0.2642 -0.2770 -0.2584
   77MOL    H9312405   7.107   4.921   3.662  0.2150 -1.1119 -0.5925
   77MOL    H9412406   7.235   4.895   3.549 -1.9773 -1.1699  0.0967
   77MOL    H9512407   7.192   4.720   3.697 -0.9642  1.5802 -1.3315
   77MOL    H9612408   0.116   4.651   3.750 -0.5878 -0.0751  0.5463
   77MOL    H9712409   0.169   4.803   3.777 -1.1953 -0.2048  1.1821
   77MOL    C9812410   7.239   4.813   3.899  0.1531  0.2331  0.4050
   77MOL    C9912411   7.112   4.739   3.952  0.4964 -0.1043 -0.0082
   77MOL   N10012412   7.138   4.675   4.078 -0.5614 -0.3774 -0.2251
   77MOL   H10112413   0.044   4.757   3.947  0.3690  0.7321  0.6221
   77MOL   H10212414   7.267   4.913   3.931  0.2370  0.3635 -0.0635
   77MOL   H10312415   7.094   4.657   3.883 -0.3068  0.2691 -0.2508
   77MOL   H10412416   7.067   4.603   4.078  0.4952 -1.4371 -0.8175
   77MOL   H10512417   7.217   4.613   4.068  0.5693  0.4740  2.7609
   77MOL   C10612418   6.971   4.810   3.956  0.0486  0.0741 -0.7126
   77MOL   C10712419   6.957   4.927   4.062 -0.6938 -0.6050  0.6221
   77MOL   N10812420   6.879   5.041   4.001  0.3709 -0.0613  0.1624
   77MOL   H10912421   6.949   4.850   3.857  0.2344 -1.3791 -1.3631
   77MOL   H11012422   6.890   4.739   3.975 -0.8765  1.3278  0.0449
   77MOL   H11112423   7.057   4.966   4.080 -0.3405 -1.0109 -0.4305
   77MOL   H11212424   6.942   5.098   3.946  1.7943 -0.9532  0.8129
   77MOL   H11312425   6.848   5.107   4.071 -0.2047 -1.0538  0.8442
   77MOL   C11412426   6.889   4.893   4.195  0.0599 -0.3796  0.2260
   77MOL   C11512427   6.982   4.866   4.307 -0.5854  0.3704 -0.4525
   77MOL   N11612428   7.012   4.986   4.376 -0.2161  0.4454 -0.3602
   77MOL   H11712429   6.815   4.966   4.227  0.1326  0.8479 -2.2367
   77MOL   H11812430   6.822   4.808   4.179 -0.6601  0.2087  0.0652
   77MOL   H11912431   7.081   4.838   4.270 -0.9034 -0.4161 -0.7307
   77MOL   H12012432   7.076   4.952   4.447  0.7218  0.6886 -1.0792
   77MOL   H12112433   6.940   5.024   4.436  1.3718  0.5133  1.5630
   77MOL   C12212434   6.934   4.758   4.415  0.2592 -0.7830 -0.6630
   77MOL   C12312435   6.923   4.617   4.365  0.7566 -0.5714  0.5676
   77MOL   N12412436   7.052   4.558   4.377  0.1894  0.2438  0.3321
   77MOL   H12512437   6.991   4.767   4.508 -0.6637 -2.9805  0.1455
   77MOL   H12612438   6.833   4.793   4.435  0.2756 -1.4156  0.5756
   77MOL   H12712439   6.887   4.619   4.262 -0.6746 -1.3877  1.0387
   77MOL   H12812440   7.092   4.567   4.469 -0.6812  1.9368  0.5686
   77MOL   H12912441   7.119   4.591   4.310  2.1559  0.9195  2.5776
   77MOL   C13012442   6.832   4.532   4.454  0.5534 -0.8142  0.1228
   77MOL   C13112443   6.800   4.390   4.398 -0.1403  0.0189 -0.1008
   77MOL   N13212444   6.825   4.286   4.499 -0.3508  0.1509  0.2313
   77MOL   H13312445   6.872   4.534   4.555  0.2573 -2.2153  0.2750
   77MOL   H13412446   6.737   4.585   4.470  0.4462 -1.2373  0.9205
   77MOL   H13512447   6.870   4.369   4.316  1.7440 -1.2035  1.7666
   77MOL   H13612448   6.876   4.207   4.461  0.0622  1.0052 -1.0373
   77MOL   H13712449   6.894   4.317   4.565  0.3038 -1.1386  0.1830
   77MOL   C13812450   6.655   4.376   4.339 -1.0607  0.0116  0.0081
   77MOL   C13912451   6.632   4.432   4.198  0.1493 -0.0353  1.1676
   77MOL   N14012452   6.738   4.381   4.113 -0.5408 -0.0881  0.0446
   77MOL   H14112453   6.631   4.271   4.324  0.1379 -0.5369  1.6955
   77MOL   H14212454   6.590   4.429   4.410 -2.4498 -1.2057 -0.3324
   77MOL   H14312455   6.649   4.539   4.193 -0.1062 -0.0350  0.1934
   77MOL   H14412456   6.730   4.280   4.108  2.1627 -0.3047 -0.6277
   77MOL   H14512457   6.814   4.398   4.177 -1.2339  0.0947  0.8263
   77MOL   C14612458   6.492   4.404   4.141 -0.2321  0.5210  0.0016
   77MOL   C14712459   6.388   4.520   4.158 -0.2268  0.3356 -0.1535
   77MOL   N14812460   6.266   4.487   4.090  0.2496  0.2852 -0.1975
   77MOL   H14912461   6.492   4.385   4.034 -2.7412 -0.9727  0.2224
   77MOL   H15012462   6.449   4.313   4.183 -0.4057  0.3955 -0.4499
   77MOL   H15112463   6.440   4.604   4.113 -0.9727 -0.4957 -2.6351
   77MOL   H15212464   6.221   4.403   4.124  0.2658  0.6539  0.7485
   77MOL   H15312465   6.268   4.484   3.989 -1.1491  0.7067 -0.2552
   77MOL   C15412466   6.355   4.555   4.305 -0.1100 -0.1796  0.1015
   77MOL   C15512467   6.262   4.670   4.323  0.5643 -0.3691 -0.1010
   77MOL   N15612468   6.281   4.721   4.460  0.7748  0.2813 -0.0766
   77MOL   H15712469   6.333   4.466   4.363  0.6635  0.2711  1.1157
   77MOL   H15812470   6.454   4.585   4.341 -1.2397  1.1368  2.2551
   77MOL   H15912471   6.157   4.642   4.319  0.7983 -1.0772 -1.4473
   77MOL   H16012472   6.263   4.652   4.532  1.9760 -1.0103 -1.0013
   77MOL   H16112473   6.208   4.790   4.475  1.6872  1.2444  0.0454
   77MOL   H16212474   6.287   4.750   4.253  0.2669 -2.0619 -2.2239
   78MOL     C112475   5.787   1.048   2.944  0.1948  0.2210 -1.4548
   78MOL     C212476   5.638   1.009   2.951 -0.1102 -0.3835 -0.1348
   78MOL     N312477   5.576   1.016   2.818 -0.4904 -0.4487 -0.5006
   78MOL     H412478   5.839   1.075   3.036 -0.5162  0.7597 -1.1995
   78MOL     H512479   5.801   1.143   2.893  3.0377  1.3659  1.2629
   78MOL     H612480   5.586   1.087   3.008 -0.8191 -1.6954  1.0335
   78MOL     H712481   5.480   0.986   2.827 -0.1241 -1.1874  1.0814
   78MOL     H812482   5.610   0.939   2.763 -2.3010 -0.8897 -1.0258
   78MOL     H912483   5.830   0.955   2.906  0.0896  0.2187 -1.5699
   78MOL    C1012484   5.606   0.874   3.016  0.4032  0.3769 -0.0512
   78MOL    C1112485   5.654   0.840   3.154  0.5871 -0.2262 -0.1691
   78MOL    N1212486   5.553   0.755   3.210  0.2974  0.4459  0.5934
   78MOL    H1312487   5.499   0.854   3.012  0.9382 -2.3608 -1.7350
   78MOL    H1412488   5.640   0.790   2.955  0.7123  1.7772 -1.8493
   78MOL    H1512489   5.655   0.930   3.216  3.4802 -0.2139 -0.1687
   78MOL    H1612490   5.575   0.737   3.307  0.5829 -1.1956  0.2357
   78MOL    H1712491   5.460   0.794   3.205 -0.8099 -2.4531 -3.1284
   78MOL    C1812492   5.791   0.763   3.162  0.6585 -0.2290 -0.4538
   78MOL    C1912493   5.882   0.822   3.271  0.6993  1.0050 -0.1529
   78MOL    N2012494   5.834   0.796   3.409  0.0863 -0.0759  0.2417
   78MOL    H2112495   5.778   0.655   3.167  0.9557 -0.4443 -3.3926
   78MOL    H2212496   5.835   0.766   3.063 -0.9806  0.1063 -1.2021
   78MOL    H2312497   5.884   0.929   3.255 -0.0186  1.3120  1.7585
   78MOL    H2412498   5.837   0.696   3.403 -3.4279 -0.1828 -1.2085
   78MOL    H2512499   5.733   0.802   3.417  0.2657 -0.7479  3.5239
   78MOL    C2612500   6.026   0.773   3.257 -0.0163 -0.3130 -0.2077
   78MOL    C2712501   6.138   0.856   3.313 -0.7960 -0.5025  0.1343
   78MOL    N2812502   6.261   0.771   3.299  0.7173 -0.6424 -0.2213
   78MOL    H2912503   6.034   0.672   3.297 -0.1774 -1.2285 -2.4091
   78MOL    H3012504   6.051   0.752   3.153 -0.9157 -2.8021  0.0550
   78MOL    H3112505   6.126   0.872   3.420 -0.3462  0.8274 -0.0079
   78MOL    H3212506   6.234   0.704   3.369 -1.9842 -0.4321 -1.0179
   78MOL    H3312507   6.343   0.824   3.326  0.7486  0.0066 -1.5435
   78MOL    C3412508   6.151   0.993   3.250 -0.7215  0.2086 -0.0624
   78MOL    C3512509   6.222   1.094   3.341 -0.0575  0.5234 -0.3846
   78MOL    N3612510   6.295   1.174   3.253 -0.3842 -0.2962 -0.1252
   78MOL    H3712511   6.191   0.991   3.149 -0.3965 -0.2692  0.0772
   78MOL    H3812512   6.056   1.036   3.216 -0.8779 -1.5623 -1.9973
   78MOL    H3912513   6.301   1.037   3.392  2.4678  0.7069 -3.9113
   78MOL    H4012514   6.244   1.254   3.218  0.3476  0.2260 -0.0029
   78MOL    H4112515   6.319   1.113   3.176  1.8590 -0.2371  0.4845
   78MOL    C4212516   6.134   1.178   3.430  0.2293  0.1131  0.1374
   78MOL    C4312517   6.043   1.106   3.524 -0.3294 -0.0128 -0.1205
   78MOL    N4412518   6.119   1.035   3.625  0.1193 -0.5560  0.1663
   78MOL    H4512519   6.198   1.247   3.485  0.2409 -1.0637  1.6618
   78MOL    H4612520   6.071   1.228   3.357  0.0847 -1.1819 -0.6527
   78MOL    H4712521   5.988   1.034   3.463  3.8449 -3.3272 -0.2257
   78MOL    H4812522   6.203   1.001   3.581 -0.6858 -0.6480 -1.3328
   78MOL    H4912523   6.065   0.951   3.639 -0.3061  0.0723  2.5793
   78MOL    C5012524   5.943   1.188   3.605  0.0040 -0.4783  0.1020
   78MOL    C5112525   5.847   1.272   3.528  0.1524  0.1159  0.2679
   78MOL    N5212526   5.746   1.177   3.468  0.1379 -0.5132 -0.9191
   78MOL    H5312527   5.898   1.123   3.680  1.1563  1.7233  2.7979
   78MOL    H5412528   6.001   1.253   3.671  1.9934 -1.2379 -0.8535
   78MOL    H5512529   5.897   1.326   3.448 -0.1449 -1.2300 -0.8664
   78MOL    H5612530   5.784   1.086   3.448  1.7469 -0.1916  0.5387
   78MOL    H5712531   5.713   1.220   3.383  2.8448  1.5940 -0.9857
   78MOL    C5812532   5.780   1.371   3.621  0.3273  0.2627 -0.5874
   78MOL    C5912533   5.789   1.520   3.587  0.6692  0.3787 -0.3743
   78MOL    N6012534   5.703   1.603   3.665  0.9586  0.5633  0.6314
   78MOL    H6112535   5.675   1.343   3.619  0.6220 -0.7971 -1.4909
   78MOL    H6212536   5.813   1.364   3.725  0.2414  3.6066 -0.2807
   78MOL    H6312537   5.757   1.526   3.483 -0.1041 -0.5195 -0.1916
   78MOL    H6412538   5.608   1.569   3.672  0.7053  1.3646  1.1982
   78MOL    H6512539   5.730   1.573   3.758  2.2521  0.8044  0.3329
   78MOL    C6612540   5.931   1.578   3.606  0.6975  0.3180 -0.1465
   78MOL    C6712541   5.960   1.705   3.519  0.8605 -0.3161  0.0525
   78MOL    N6812542   5.878   1.815   3.563 -0.0685 -0.6947  0.3674
   78MOL    H6912543   5.965   1.581   3.710  0.6830  1.5685 -0.1656
   78MOL    H7012544   5.990   1.498   3.561  2.1678  0.6331  1.1609
   78MOL    H7112545   5.930   1.681   3.417  0.5788 -0.4485  0.1674
   78MOL    H7212546   5.843   1.861   3.480  2.6991 -0.9164 -1.0001
   78MOL    H7312547   5.789   1.774   3.588 -1.5466  2.5254  0.6302
   78MOL    C7412548   6.102   1.757   3.532 -0.7633 -0.4983  0.0060
   78MOL    C7512549   6.216   1.689   3.453  0.4563  0.6039 -0.8788
   78MOL    N7612550   6.180   1.686   3.312  0.0958 -0.0192  0.2731
   78MOL    H7712551   6.105   1.861   3.499 -0.6531 -0.2379  0.8232
   78MOL    H7812552   6.128   1.779   3.636  0.8676 -1.4755 -0.1745
   78MOL    H7912553   6.225   1.586   3.488 -2.8089 -0.0357 -1.7735
   78MOL    H8012554   6.250   1.638   3.257 -0.6499  0.7477 -1.3874
   78MOL    H8112555   6.097   1.630   3.300  0.7409 -1.2026  1.2953
   78MOL    C8212556   6.350   1.759   3.464  0.1468  0.0377  0.2171
   78MOL    C8312557   6.440   1.698   3.574  0.0690 -0.0446 -0.5011
   78MOL    N8412558   6.494   1.574   3.525 -0.0535 -0.2726  0.9000
   78MOL    H8512559   6.402   1.741   3.370 -0.8160  2.1981 -0.7441
   78MOL    H8612560   6.350   1.868   3.469  1.6508  0.0152  1.0386
   78MOL    H8712561   6.387   1.666   3.663 -2.9439  1.5330 -1.6504
   78MOL    H8812562   6.556   1.524   3.587 -0.7034  2.5439  3.9771
   78MOL    H8912563   6.423   1.504   3.509  0.9025 -0.6537 -1.9326
   78MOL    C9012564   6.555   1.801   3.615  0.2437  0.1102 -1.0675
   78MOL    C9112565   6.508   1.926   3.698 -0.4665  0.5522 -0.2181
   78MOL    N9212566   6.536   1.900   3.840  0.5190  0.1097  0.1189
   78MOL    H9312567   6.632   1.749   3.673 -1.2708 -1.3827 -0.3431
   78MOL    H9412568   6.608   1.825   3.523 -1.3916 -1.1076 -2.3771
   78MOL    H9512569   6.400   1.937   3.684 -0.4103 -0.5877 -1.6723
   78MOL    H9612570   6.447   1.878   3.883 -0.4485 -1.7382 -2.6627
   78MOL    H9712571   6.583   1.980   3.881 -0.9024  0.9343  0.1455
   78MOL    C9812572   6.578   2.053   3.668 -0.0325  0.3179  0.1679
   78MOL    C9912573   6.522   2.115   3.543  0.0966 -0.3976  0.7055
   78MOL   N10012574   6.405   2.200   3.575  0.2790 -0.6375  0.0645
   78MOL   H10112575   6.576   2.133   3.742  0.2168 -0.3535  0.9019
   78MOL   H10212576   6.686   2.034   3.665 -0.4293 -1.8426 -2.0936
   78MOL   H10312577   6.490   2.043   3.468  1.8960  1.6735 -2.1630
   78MOL   H10412578   6.378   2.236   3.485  0.2182 -0.9471 -0.0402
   78MOL   H10512579   6.424   2.287   3.623 -1.5307  0.3975 -1.0446
   78MOL   C10612580   6.623   2.205   3.463  0.0987  0.5955 -0.1552
   78MOL   C10712581   6.729   2.123   3.386 -0.4505 -0.1968  0.1922
   78MOL   N10812582   6.766   2.205   3.265  0.3089 -0.7949 -0.5110
   78MOL   H10912583   6.570   2.268   3.392 -0.6594 -0.6231 -0.6971
   78MOL   H11012584   6.676   2.273   3.530  3.0628 -1.1116 -0.6665
   78MOL   H11112585   6.676   2.029   3.374 -0.1459 -0.4291  0.6349
   78MOL   H11212586   6.679   2.236   3.224  0.6430  2.8001  1.2697
   78MOL   H11312587   6.796   2.136   3.199  0.3195 -1.6193  0.3469
   78MOL   C11412588   6.867   2.087   3.465 -0.5506  0.0232  0.2590
   78MOL   C11512589   6.964   1.992   3.395  0.5318  0.5880  0.1540
   78MOL   N11612590   7.069   1.976   3.499  1.0697 -0.2015  0.3005
   78MOL   H11712591   6.918   2.180   3.487 -2.4057  1.7539 -2.4528
   78MOL   H11812592   6.846   2.047   3.564 -1.0484  1.8448  0.8945
   78MOL   H11912593   7.014   2.040   3.311  0.6143  0.8780  0.3691
   78MOL   H12012594   7.040   1.901   3.560 -0.3994  0.7504  0.8067
   78MOL   H12112595   7.142   1.937   3.442  0.6189  2.6305 -2.3397
   78MOL   C12212596   6.898   1.848   3.367  0.3313 -0.9430 -0.1099
   78MOL   C12312597   6.991   1.750   3.286  0.6052 -1.0833  0.1720
   78MOL   N12412598   6.920   1.623   3.274  0.2468 -0.6054 -0.0765
   78MOL   H12512599   6.876   1.809   3.466  1.3532  0.7609  0.8099
   78MOL   H12612600   6.811   1.858   3.303 -0.1629 -0.9258  0.5617
   78MOL   H12712601   7.082   1.734   3.345  0.0416 -0.0746  1.3399
   78MOL   H12812602   6.987   1.562   3.230  0.3901 -0.7542  0.3539
   78MOL   H12912603   6.908   1.591   3.369 -3.9128 -0.2422 -0.3721
   78MOL   C13012604   7.026   1.792   3.141  0.6081  0.8258  0.5163
   78MOL   C13112605   7.151   1.724   3.071  0.2470 -0.0956  0.2500
   78MOL   N13212606   7.134   1.761   2.934  0.2292 -0.4305 -0.0615
   78MOL   H13312607   6.937   1.766   3.083  0.6338  1.3711  0.2299
   78MOL   H13412608   7.047   1.898   3.130  1.0939  0.6400 -0.3798
   78MOL   H13512609   7.151   1.615   3.073 -1.3273 -0.1033  0.4284
   78MOL   H13612610   7.043   1.730   2.903  0.5683 -0.7488 -0.7524
   78MOL   H13712611   7.204   1.704   2.888 -0.3526 -0.1180 -1.3549
   78MOL   C13812612   0.016   1.772   3.121  0.5295 -0.4365  0.7187
   78MOL   C13912613   0.138   1.677   3.086  0.3109 -0.7209 -0.3723
   78MOL   N14012614   0.150   1.656   2.949 -0.1531  0.4305 -0.0200
   78MOL   H14112615   0.032   1.873   3.084 -0.5447 -0.3565  0.4580
   78MOL   H14212616   0.014   1.777   3.230 -0.0248  0.5278  0.6612
   78MOL   H14312617   0.123   1.581   3.136  0.8208  1.2288  3.7553
   78MOL   H14412618   0.191   1.736   2.902 -0.4270  0.1270 -0.7918
   78MOL   H14512619   0.212   1.579   2.928 -0.8173 -0.0816 -0.1109
   78MOL   C14612620   0.273   1.724   3.142 -0.4203 -0.2888  0.1268
   78MOL   C14712621   0.289   1.717   3.299 -0.0513 -0.3435  0.5193
   78MOL   N14812622   0.434   1.705   3.320  0.2452 -0.0835  0.1339
   78MOL   H14912623   0.348   1.656   3.101 -2.3068 -1.6912 -1.1111
   78MOL   H15012624   0.313   1.817   3.100 -0.3364 -0.7760 -0.9023
   78MOL   H15112625   0.258   1.619   3.334  2.1209 -0.5135  2.0864
   78MOL   H15212626   0.467   1.612   3.299  0.7556 -0.0848  0.9150
   78MOL   H15312627   0.460   1.734   3.413 -1.5257 -1.3307  1.0425
   78MOL   C15412628   0.233   1.833   3.389  0.3941 -0.1730 -0.1743
   78MOL   C15512629   0.154   1.771   3.499  0.2778 -0.7053 -0.4028
   78MOL   N15612630   0.098   1.866   3.589 -0.2291  0.9642  0.9267
   78MOL   H15712631   0.315   1.887   3.438  0.2736 -0.3725  0.2499
   78MOL   H15812632   0.176   1.913   3.342  0.6106  0.5622  0.7956
   78MOL   H15912633   0.213   1.710   3.568  0.6946  0.4784  0.2955
   78MOL   H16012634   0.010   1.846   3.633 -0.6614 -2.0543 -1.1862
   78MOL   H16112635   0.086   1.963   3.560  0.9250  1.1405  1.0120
   78MOL   H16212636   0.074   1.714   3.451  0.9569 -0.1841 -2.1809
   79MOL     C112637   1.150   4.235   4.372 -0.4986  0.1075 -0.1834
   79MOL     C212638   1.187   4.090   4.338 -0.1513  0.0931  0.1470
   79MOL     N312639   1.071   4.039   4.268  0.0104  0.0251  0.0473
   79MOL     H412640   1.081   4.258   4.453 -1.4351 -0.2817 -0.8609
   79MOL     H512641   1.139   4.313   4.296 -0.7423 -0.4457 -0.7261
   79MOL     H612642   1.207   4.032   4.428 -2.4104  1.4625  1.5820
   79MOL     H712643   0.983   4.067   4.307 -0.4539 -0.2030 -0.8190
   79MOL     H812644   1.060   4.094   4.184 -0.6482 -0.6130 -0.2807
   79MOL     H912645   1.243   4.278   4.409  0.7862 -2.8517  0.1708
   79MOL    C1012646   1.303   4.090   4.234  0.1275  0.0477 -0.0359
   79MOL    C1112647   1.438   4.104   4.299  0.1622 -0.2326 -0.3677
   79MOL    N1212648   1.464   3.975   4.360  1.0720  0.3443  0.8025
   79MOL    H1312649   1.302   4.001   4.170  1.9120 -1.1901  1.6007
   79MOL    H1412650   1.286   4.166   4.158  0.2912  2.1952  2.0503
   79MOL    H1512651   1.448   4.188   4.367  0.4607  0.1824 -0.9148
   79MOL    H1612652   1.421   3.965   4.451 -3.4531  0.9617 -1.1049
   79MOL    H1712653   1.559   3.967   4.393  0.9539  0.5243  1.1996
   79MOL    C1812654   1.556   4.130   4.200  0.3497  0.2443 -0.6343
   79MOL    C1912655   1.685   4.191   4.267 -0.0891 -0.3581 -0.7993
   79MOL    N2012656   1.798   4.169   4.176 -0.0002  0.0406 -0.5312
   79MOL    H2112657   1.580   4.039   4.145 -0.5964  0.2108 -0.9970
   79MOL    H2212658   1.532   4.187   4.110  0.8235 -0.8242 -1.4591
   79MOL    H2312659   1.701   4.134   4.358 -0.0887  0.3462 -0.3638
   79MOL    H2412660   1.783   4.227   4.095 -0.0637 -0.3682 -0.8139
   79MOL    H2512661   1.799   4.075   4.139 -1.5220 -0.5725  0.8977
   79MOL    C2612662   1.676   4.345   4.289 -0.6019  0.3757  0.1994
   79MOL    C2712663   1.803   4.417   4.321  0.5845  0.0818 -0.6957
   79MOL    N2812664   1.750   4.549   4.352  0.0679 -0.9732  0.4431
   79MOL    H2912665   1.628   4.393   4.204 -0.8024  1.8689  1.1231
   79MOL    H3012666   1.607   4.356   4.374  0.1960 -2.6586  1.3051
   79MOL    H3112667   1.876   4.423   4.240  2.0837 -2.4691  0.3931
   79MOL    H3212668   1.705   4.596   4.275  0.1211  0.3891  1.2214
   79MOL    H3312669   1.682   4.539   4.426 -0.4211 -0.1007  0.1186
   79MOL    C3412670   1.871   4.371   4.460  0.1213 -0.5588 -0.4763
   79MOL    C3512671   2.008   4.299   4.448  0.1204 -0.0329  0.1191
   79MOL    N3612672   1.978   4.162   4.391  0.0735  0.4525  0.1072
   79MOL    H3712673   1.882   4.453   4.531  0.1407 -2.4452  1.7821
   79MOL    H3812674   1.795   4.306   4.503  0.2251 -1.4498 -1.6244
   79MOL    H3912675   2.059   4.281   4.543 -0.5829 -1.7280  0.1916
   79MOL    H4012676   1.905   4.122   4.448  0.8369 -0.8531  0.1900
   79MOL    H4112677   1.929   4.172   4.303  0.9705  0.0791 -0.4421
   79MOL    C4212678   2.113   4.360   4.353 -0.0837 -0.2510  0.2125
   79MOL    C4312679   2.156   4.501   4.389 -0.3456  0.2230 -0.1678
   79MOL    N4412680   2.250   4.485   4.495  0.5901 -0.0681  0.2293
   79MOL    H4512681   2.197   4.293   4.333 -0.8168 -1.2632  0.4855
   79MOL    H4612682   2.067   4.360   4.253  1.3261 -1.1269 -0.4476
   79MOL    H4712683   2.077   4.571   4.415 -0.4152 -0.3742  1.2111
   79MOL    H4812684   2.310   4.410   4.463  0.5934 -0.1331  0.3909
   79MOL    H4912685   2.201   4.441   4.571  0.1172 -1.4559 -0.8591
   79MOL    C5012686   2.230   4.565   4.262 -0.1766 -0.0939 -0.1291
   79MOL    C5112687   2.156   4.595   4.130 -0.0363  0.5430 -0.6585
   79MOL    N5212688   2.196   4.729   4.082 -0.2620 -0.7252 -0.4493
   79MOL    H5312689   2.270   4.661   4.295  1.8142 -0.4261 -1.5073
   79MOL    H5412690   2.318   4.503   4.247  0.0665 -0.1261  1.3841
   79MOL    H5512691   2.048   4.600   4.147  0.0096 -0.0029 -0.1959
   79MOL    H5612692   2.141   4.778   4.013  1.9535  1.4504 -0.7284
   79MOL    H5712693   2.204   4.794   4.159 -0.1605  0.0215 -1.0800
   79MOL    C5812694   2.189   4.488   4.025  0.8089 -0.3067  0.0243
   79MOL    C5912695   2.096   4.475   3.907 -0.1480 -0.3973  0.0727
   79MOL    N6012696   2.165   4.399   3.810  0.0348 -0.0097 -0.3613
   79MOL    H6112697   2.291   4.505   3.993  2.3871 -2.9330  3.3491
   79MOL    H6212698   2.197   4.384   4.058 -0.3984 -1.0793 -2.0472
   79MOL    H6312699   2.079   4.578   3.876  0.4349 -0.9644 -2.2469
   79MOL    H6412700   2.155   4.301   3.832  0.0221  0.3497  1.2665
   79MOL    H6512701   2.258   4.431   3.832  0.1671 -1.2591  0.9672
   79MOL    C6612702   1.964   4.401   3.944 -0.3576 -0.3852  0.1488
   79MOL    C6712703   1.852   4.404   3.846 -0.3173 -0.2307 -0.2475
   79MOL    N6812704   1.738   4.330   3.908 -0.4710  0.3585  0.0045
   79MOL    H6912705   1.991   4.301   3.978  0.5478  0.2057  1.1809
   79MOL    H7012706   1.920   4.443   4.035  2.0386 -0.8730  1.5733
   79MOL    H7112707   1.875   4.355   3.751 -3.3887  0.4036 -1.3930
   79MOL    H7212708   1.648   4.361   3.875 -0.5202  0.8528  0.5780
   79MOL    H7312709   1.736   4.234   3.879  0.7476  0.0805  0.7965
   79MOL    C7412710   1.820   4.554   3.825  0.2675  0.3226 -0.3617
   79MOL    C7512711   1.694   4.585   3.739  0.0397  0.5694  0.1291
   79MOL    N7612712   1.618   4.704   3.789 -0.4733  0.4457  0.0396
   79MOL    H7712713   1.791   4.601   3.919 -1.1404 -0.4682 -0.3840
   79MOL    H7812714   1.901   4.623   3.801  1.1329 -0.1779  1.0393
   79MOL    H7912715   1.625   4.501   3.732  0.9124 -0.3481  2.0729
   79MOL    H8012716   1.660   4.787   3.750  0.9278 -0.1614  0.2457
   79MOL    H8112717   1.639   4.713   3.887 -0.6728 -1.2351  0.2638
   79MOL    C8212718   1.730   4.607   3.593  0.2659 -0.0547  0.1573
   79MOL    C8312719   1.757   4.477   3.517 -0.3696 -0.1209  0.2167
   79MOL    N8412720   1.665   4.458   3.413  0.1303  0.4080 -0.2456
   79MOL    H8512721   1.659   4.674   3.543  0.2211  0.2683  0.6469
   79MOL    H8612722   1.822   4.665   3.589 -0.9186  1.9553  1.0562
   79MOL    H8712723   1.750   4.397   3.591 -1.7935  0.0821  0.3130
   79MOL    H8812724   1.685   4.362   3.386  0.4579 -0.3268  2.4233
   79MOL    H8912725   1.577   4.450   3.462  0.1194 -0.2919 -0.3718
   79MOL    C9012726   1.895   4.471   3.443  0.2114  0.5427 -0.0450
   79MOL    C9112727   2.013   4.448   3.538 -0.1866  0.2674 -0.4412
   79MOL    N9212728   2.025   4.308   3.554  0.2795 -0.0326  0.0496
   79MOL    H9312729   1.898   4.391   3.368  0.2768  0.2963  0.2197
   79MOL    H9412730   1.912   4.560   3.382 -0.1250  1.1460  0.7357
   79MOL    H9512731   1.990   4.500   3.631  1.5150 -2.7880  1.7651
   79MOL    H9612732   2.077   4.280   3.472  0.2317  0.0052  0.0075
   79MOL    H9712733   2.098   4.307   3.624 -0.1364  1.2166  0.5040
   79MOL    C9812734   2.144   4.514   3.480 -0.0561 -0.2498 -0.7099
   79MOL    C9912735   2.164   4.665   3.513 -0.1019 -0.1444 -0.2574
   79MOL   N10012736   2.271   4.678   3.613  0.2819  0.0397 -0.4799
   79MOL   H10112737   2.233   4.455   3.498 -0.8723 -1.2949  0.0189
   79MOL   H10212738   2.138   4.508   3.372 -3.0089 -0.5448 -0.5701
   79MOL   H10312739   2.075   4.712   3.553  1.0286  1.6172  0.2205
   79MOL   H10412740   2.355   4.634   3.578  1.5370  1.0637  1.1395
   79MOL   H10512741   2.247   4.612   3.685  0.3600  0.2646 -0.2446
   79MOL   C10612742   2.211   4.749   3.393 -0.3911  0.0918 -0.1772
   79MOL   C10712743   2.106   4.786   3.291  0.3471 -0.0999 -0.0667
   79MOL   N10812744   1.999   4.868   3.344 -0.2176  0.0773 -0.0013
   79MOL   H10912745   2.254   4.840   3.435  1.1927 -0.9602  0.5180
   79MOL   H11012746   2.298   4.707   3.343  1.7441  3.0991  0.9010
   79MOL   H11112747   2.059   4.696   3.251  1.4390 -0.6215 -0.2162
   79MOL   H11212748   2.035   4.960   3.367  0.3018  0.1481 -1.0999
   79MOL   H11312749   1.930   4.895   3.275 -0.4474 -2.0224 -0.6095
   79MOL   C11412750   2.172   4.859   3.162 -1.2229  0.8681 -0.5058
   79MOL   C11512751   2.257   4.781   3.061 -0.6651  0.7983  0.6176
   79MOL   N11612752   2.167   4.684   3.000  0.1087 -0.1679 -0.5794
   79MOL   H11712753   2.083   4.900   3.114 -1.1505  0.4313 -1.0170
   79MOL   H11812754   2.218   4.952   3.197 -2.4549  0.4410  2.3852
   79MOL   H11912755   2.347   4.733   3.099 -0.7926  0.0926  0.0464
   79MOL   H12012756   2.099   4.730   2.941 -0.4643 -0.3279 -0.0481
   79MOL   H12112757   2.231   4.627   2.945 -0.6962  0.0722 -1.7874
   79MOL   C12212758   2.318   4.877   2.955  0.4716 -0.0422 -0.0015
   79MOL   C12312759   2.444   4.954   3.008  0.2828  0.1773  0.3926
   79MOL   N12412760   2.566   4.890   2.965 -0.3477 -0.3656  0.0180
   79MOL   H12512761   2.355   4.815   2.873 -0.8673  0.3988 -0.9530
   79MOL   H12612762   2.233   4.930   2.912 -0.8070 -0.5993  1.7575
   79MOL   H12712763   2.450   4.951   3.117  1.2548  3.1812  0.4689
   79MOL   H12812764   2.586   4.833   3.046  1.7823 -0.1458 -0.3282
   79MOL   H12912765   2.642   4.956   2.958 -2.5128  2.0697 -1.2704
   79MOL   C13012766   2.432   5.099   2.974 -0.4189  0.3083 -0.5638
   79MOL   C13112767   2.333   5.178   3.063 -0.5891 -0.5273 -0.0288
   79MOL   N13212768   2.369   5.184   3.207  0.2597  0.0312  0.3021
   79MOL   H13312769   2.530   5.146   2.980 -0.9428  1.7255 -2.7761
   79MOL   H13412770   2.407   5.107   2.868  0.7063 -1.4233 -0.9902
   79MOL   H13512771   2.235   5.134   3.041 -0.1136 -1.1022 -1.0287
   79MOL   H13612772   2.373   5.279   3.241  0.0305  0.8814 -1.9568
   79MOL   H13712773   2.453   5.133   3.231  0.0568  0.2809  1.5486
   79MOL   C13812774   2.319   5.325   3.017 -0.4447 -0.0759 -0.1019
   79MOL   C13912775   2.245   5.344   2.878 -0.1240 -0.2563  0.1201
   79MOL   N14012776   2.107   5.392   2.894  0.0457  0.5012  0.1791
   79MOL   H14112777   2.257   5.382   3.087 -0.9342 -2.0310  1.0856
   79MOL   H14212778   2.415   5.376   3.017  0.0191 -0.9264  0.8401
   79MOL   H14312779   2.231   5.242   2.842  0.1674  0.3304 -1.7266
   79MOL   H14412780   2.057   5.324   2.949  1.6050 -1.8145 -1.1571
   79MOL   H14512781   2.102   5.474   2.951  1.0335  1.3429 -0.9112
   79MOL   C14612782   2.309   5.437   2.774  0.5197  0.3257  0.0223
   79MOL   C14712783   2.451   5.387   2.736  0.7908  0.0996 -0.4229
   79MOL   N14812784   2.439   5.291   2.635  0.2238  0.2053  0.2499
   79MOL   H14912785   2.250   5.466   2.687  1.8920  0.9590 -0.7151
   79MOL   H15012786   2.317   5.531   2.828  0.5207 -1.4354  3.2057
   79MOL   H15112787   2.489   5.345   2.829  0.7793  2.1748  0.5501
   79MOL   H15212788   2.355   5.236   2.652  0.4732  0.6329  2.9344
   79MOL   H15312789   2.431   5.340   2.547 -0.1177  0.4202  0.3992
   79MOL   C15412790   2.547   5.510   2.691 -0.0367 -0.1843 -0.2362
   79MOL   C15512791   2.604   5.605   2.794  0.6215 -0.1385 -0.2569
   79MOL   N15612792   2.699   5.701   2.731  0.2009 -0.7083 -0.4748
   79MOL   H15712793   2.635   5.460   2.650  1.1682  0.2056  1.7877
   79MOL   H15812794   2.499   5.560   2.608 -1.4877  0.2551  0.8495
   79MOL   H15912795   2.661   5.548   2.868 -0.6128 -0.3620  0.5232
   79MOL   H16012796   2.651   5.753   2.658 -1.2274 -0.5501  0.5748
   79MOL   H16112797   2.729   5.778   2.789 -0.8113 -0.9111  0.3138
   79MOL   H16212798   2.520   5.659   2.836  0.7447 -0.1131 -0.0409
   80MOL     C112799   5.448   1.417   7.127 -0.9082 -0.3364  0.4428
   80MOL     C212800   5.489   1.485   7.000  0.1138 -0.6740 -0.0512
   80MOL     N312801   5.629   1.463   6.973 -0.2830 -0.2745 -0.9196
   80MOL     H412802   5.344   1.432   7.156 -0.2850  2.2603  1.5842
   80MOL     H512803   5.500   1.456   7.215  0.4966 -2.3542  0.5433
   80MOL     H612804   5.487   1.593   7.010 -0.6065 -0.3806 -2.8488
   80MOL     H712805   5.640   1.502   6.880  0.6977  1.7148 -0.0084
   80MOL     H812806   5.669   1.536   7.030 -2.6272  0.7662 -0.5366
   80MOL     H912807   5.464   1.310   7.117  1.8289 -0.0436  1.3963
   80MOL    C1012808   5.414   1.424   6.873 -0.3067  0.3817 -0.6040
   80MOL    C1112809   5.391   1.535   6.773 -0.0907  0.5547  0.4914
   80MOL    N1212810   5.442   1.474   6.650 -0.2513  0.0596  0.9386
   80MOL    H1312811   5.458   1.329   6.840  0.0036  0.4453 -0.3751
   80MOL    H1412812   5.318   1.392   6.913 -1.0543  0.2743 -2.4499
   80MOL    H1512813   5.453   1.623   6.788 -1.3776  1.3732  1.1151
   80MOL    H1612814   5.508   1.408   6.688  0.5275  1.2798  1.7240
   80MOL    H1712815   5.380   1.404   6.613  0.2030  0.1200  0.0406
   80MOL    C1812816   5.240   1.584   6.773  0.2130  0.3194 -0.2743
   80MOL    C1912817   5.189   1.655   6.895  0.3783 -0.0738 -0.3652
   80MOL    N2012818   5.286   1.756   6.920  0.1283  0.5871  0.1013
   80MOL    H2112819   5.217   1.645   6.686 -2.4148 -0.6152 -0.2895
   80MOL    H2212820   5.177   1.499   6.747 -2.2172  2.3801 -1.2487
   80MOL    H2312821   5.199   1.590   6.982 -0.0080  0.2523 -0.0790
   80MOL    H2412822   5.375   1.712   6.940 -0.2027  0.4625  1.3413
   80MOL    H2512823   5.264   1.809   7.003 -0.4970 -1.0758  1.0119
   80MOL    C2612824   5.044   1.713   6.869  0.1361 -0.4394 -0.1394
   80MOL    C2712825   4.936   1.606   6.897 -0.2095 -0.5545  0.0143
   80MOL    N2812826   4.926   1.601   7.038 -0.4458 -0.6093  0.6384
   80MOL    H2912827   5.019   1.800   6.929  0.2003 -1.1579  0.9430
   80MOL    H3012828   5.026   1.741   6.765 -0.7362  1.2198  0.4340
   80MOL    H3112829   4.976   1.513   6.857  1.7559  1.1396 -2.0776
   80MOL    H3212830   4.881   1.683   7.076  0.6656 -0.6077  1.9835
   80MOL    H3312831   5.017   1.594   7.080  0.9419 -0.7554 -2.2842
   80MOL    C3412832   4.802   1.649   6.834  0.9951 -0.0287  0.2877
   80MOL    C3512833   4.718   1.519   6.810  0.3047  0.4891  0.3418
   80MOL    N3612834   4.685   1.455   6.940  0.3469  0.0388  0.3070
   80MOL    H3712835   4.748   1.722   6.893 -0.2110  1.0682 -2.0914
   80MOL    H3812836   4.814   1.694   6.735 -0.0100 -0.3171  0.0289
   80MOL    H3912837   4.785   1.448   6.762  0.2214  1.3192 -1.0408
   80MOL    H4012838   4.761   1.475   7.004 -1.7050 -0.3186  2.9782
   80MOL    H4112839   4.700   1.357   6.920 -0.9002  0.5547 -3.3742
   80MOL    C4212840   4.587   1.537   6.732 -0.1244  0.5985 -0.5713
   80MOL    C4312841   4.488   1.426   6.697 -0.0532  0.4832  0.7182
   80MOL    N4412842   4.375   1.480   6.622 -0.1715  0.3656 -0.2687
   80MOL    H4512843   4.529   1.596   6.802  0.4126  0.2589  0.1664
   80MOL    H4612844   4.608   1.591   6.639  1.2082  1.9047  0.4585
   80MOL    H4712845   4.441   1.385   6.786  0.9235  0.3467  1.1798
   80MOL    H4812846   4.343   1.414   6.553  1.7995 -0.6217 -0.2620
   80MOL    H4912847   4.394   1.561   6.564 -2.4133 -1.0584 -3.1216
   80MOL    C5012848   4.548   1.311   6.620  0.5693 -0.1472 -0.1503
   80MOL    C5112849   4.452   1.191   6.615 -0.0081 -0.0770 -0.5231
   80MOL    N5212850   4.490   1.124   6.490 -0.2200 -0.1006  0.1270
   80MOL    H5312851   4.576   1.345   6.520  2.7285 -1.6645 -0.0999
   80MOL    H5412852   4.649   1.281   6.648  0.6254 -0.2584 -0.4594
   80MOL    H5512853   4.350   1.229   6.608  0.4494  0.7144 -3.7109
   80MOL    H5612854   4.430   1.043   6.482 -1.5653  0.9482 -0.7236
   80MOL    H5712855   4.472   1.173   6.403 -0.3173 -2.4983 -1.2433
   80MOL    C5812856   4.469   1.092   6.733  0.0956 -0.5694  0.8232
   80MOL    C5912857   4.388   1.124   6.862  0.2914 -0.4048 -0.3079
   80MOL    N6012858   4.248   1.113   6.834  0.0214  0.3432 -0.1174
   80MOL    H6112859   4.441   0.990   6.706 -1.5614  0.1103 -0.1240
   80MOL    H6212860   4.575   1.081   6.758 -0.1811  0.8639  2.6937
   80MOL    H6312861   4.407   1.225   6.899 -1.4306  0.5257 -1.8594
   80MOL    H6412862   4.236   1.149   6.740  0.6702  0.7015 -0.0681
   80MOL    H6512863   4.236   1.013   6.823 -0.3614  0.2251  1.3135
   80MOL    C6612864   4.419   1.018   6.974 -0.0720  0.1243  0.5684
   80MOL    C6712865   4.538   1.055   7.067  0.0094 -0.2778 -0.0761
   80MOL    N6812866   4.520   1.177   7.141  0.4561  1.0897  0.1667
   80MOL    H6912867   4.341   1.012   7.050  1.0618 -1.9126  1.5881
   80MOL    H7012868   4.434   0.920   6.929 -0.8290  0.8762 -1.3979
   80MOL    H7112869   4.625   1.078   7.005 -0.2345 -0.7079 -0.5869
   80MOL    H7212870   4.606   1.202   7.188  1.3425 -1.2957 -0.1501
   80MOL    H7312871   4.449   1.159   7.210 -0.7803 -2.3982 -1.9113
   80MOL    C7412872   4.600   0.939   7.147  0.2571 -0.1151  0.1984
   80MOL    C7512873   4.720   0.959   7.244  0.0311 -0.3567  0.4402
   80MOL    N7612874   4.738   0.841   0.052 -0.0753 -0.3690  0.1976
   80MOL    H7712875   4.515   0.912   7.209  0.6592 -0.5879  0.5475
   80MOL    H7812876   4.613   0.857   7.076  0.4488 -1.1067  1.3614
   80MOL    H7912877   4.690   1.043   0.031 -2.8010 -0.6045 -0.5217
   80MOL    H8012878   4.651   0.795   0.077  0.9223 -2.0893  0.5287
   80MOL    H8112879   4.785   0.865   0.137  2.1989 -2.6252 -0.3576
   80MOL    C8212880   4.855   0.990   7.183  0.1899  0.0540 -0.4036
   80MOL    C8312881   4.880   1.135   7.128  0.0262 -0.3515  0.0738
   80MOL    N8412882   4.870   1.227   7.236  0.5644 -0.3142  0.0965
   80MOL    H8512883   4.934   0.944   7.242 -2.0289 -1.8124  1.2046
   80MOL    H8612884   4.868   0.923   7.098  1.0751 -0.0258 -0.2093
   80MOL    H8712885   4.805   1.174   7.059  0.5229  1.8206  0.7347
   80MOL    H8812886   4.870   1.319   7.194  1.2892 -0.0994  0.5336
   80MOL    H8912887   4.941   1.229   0.033 -1.4789  1.2272  2.1157
   80MOL    C9012888   5.021   1.150   7.056  0.7431  0.2135  0.0115
   80MOL    C9112889   5.039   1.083   6.918 -0.6647 -0.1446 -0.3855
   80MOL    N9212890   4.938   1.120   6.823 -0.4053  0.0339  0.2477
   80MOL    H9312891   5.044   1.255   7.039 -0.7241  0.7635  1.3059
   80MOL    H9412892   5.095   1.110   7.125 -0.7093 -0.3596  1.2558
   80MOL    H9512893   5.034   0.978   6.947  0.0537 -0.1417 -0.2399
   80MOL    H9612894   4.860   1.074   6.868  0.0147 -2.8800 -1.9166
   80MOL    H9712895   4.934   1.066   6.738 -0.5741 -0.2734  0.4517
   80MOL    C9812896   5.177   1.104   6.859  0.0682  0.2006  0.1300
   80MOL    C9912897   5.273   0.979   6.884  0.5996  0.1169  0.4896
   80MOL   N10012898   5.368   1.001   6.767  0.0601  0.3300 -0.3213
   80MOL   H10112899   5.158   1.114   6.752 -0.7076  2.5902  0.4755
   80MOL   H10212900   5.233   1.192   6.891 -2.0618  1.1186  1.4827
   80MOL   H10312901   5.214   0.888   6.870  1.8193 -0.5978 -0.0320
   80MOL   H10412902   5.450   0.943   6.784  0.9063  0.8796 -2.4404
   80MOL   H10512903   5.402   1.096   6.763  3.5829 -0.6126  3.2928
   80MOL   C10612904   5.350   0.969   7.014 -0.2040  0.2917 -0.0747
   80MOL   C10712905   5.314   0.832   7.078  0.0918 -0.4675  0.3303
   80MOL   N10812906   5.413   0.821   7.189  0.0278 -0.2491  0.4391
   80MOL   H10912907   5.457   0.978   6.995 -0.1753  2.8963  1.0278
   80MOL   H11012908   5.331   1.051   7.084 -0.5756 -0.8925  1.2262
   80MOL   H11112909   5.341   0.758   7.003  1.4540  0.1377  0.2042
   80MOL   H11212910   5.446   0.909   7.227 -1.2629 -1.0629  3.5054
   80MOL   H11312911   5.496   0.772   7.160  0.5848 -0.2990  2.0670
   80MOL   C11412912   5.171   0.805   7.136  0.1051  0.3846 -0.0682
   80MOL   C11512913   5.092   0.675   7.115 -0.0680 -0.3100  0.2853
   80MOL   N11612914   4.981   0.666   7.210 -0.1485 -0.1300  0.0596
   80MOL   H11712915   5.176   0.817   7.244 -0.1985 -0.0650 -0.0028
   80MOL   H11812916   5.101   0.884   7.109 -0.6417 -0.2652 -0.0502
   80MOL   H11912917   5.164   0.595   7.132  1.7822  0.5969 -2.8069
   80MOL   H12012918   4.926   0.750   7.218 -0.2964 -0.1155 -0.9993
   80MOL   H12112919   5.016   0.648   0.027  0.5700  0.4490 -0.0896
   80MOL   C12212920   5.033   0.659   6.973  0.1744  0.5328  0.4312
   80MOL   C12312921   4.962   0.530   6.923  0.3547  0.2938 -0.0295
   80MOL   N12412922   4.844   0.511   6.997  0.0816  0.3680 -0.6587
   80MOL   H12512923   4.972   0.749   6.963 -0.2092  0.1866 -0.3730
   80MOL   H12612924   5.119   0.668   6.908 -0.9890 -1.4111 -1.4235
   80MOL   H12712925   5.029   0.447   6.944  0.8620 -0.9348 -5.6866
   80MOL   H12812926   4.846   0.410   7.006  1.7154  0.4095 -0.4901
   80MOL   H12912927   4.856   0.552   7.088 -0.2896  2.2781 -1.4498
   80MOL   C13012928   4.930   0.531   6.776 -0.4696 -0.3744 -0.1769
   80MOL   C13112929   5.062   0.503   6.687  0.3903 -0.1832 -0.7182
   80MOL   N13212930   5.053   0.359   6.655 -0.4291 -0.1434 -0.5917
   80MOL   H13312931   4.850   0.459   6.762  1.1701 -1.8375 -2.3311
   80MOL   H13412932   4.888   0.629   6.752  0.6023  0.0438 -0.3734
   80MOL   H13512933   5.153   0.515   6.746  0.6904 -1.9853 -0.7794
   80MOL   H13612934   5.135   0.336   6.601  1.4778 -0.7052  2.4132
   80MOL   H13712935   5.065   0.297   6.734 -0.3463  1.9880  1.1050
   80MOL   C13812936   5.062   0.590   6.563  0.0515  0.3471  0.0107
   80MOL   C13912937   5.106   0.741   6.607  0.7538  0.5853  0.0780
   80MOL   N14012938   5.255   0.752   6.624 -0.2927 -0.5870  0.1585
   80MOL   H14112939   5.128   0.553   6.484 -0.2508 -1.6475  0.6704
   80MOL   H14212940   4.968   0.577   6.510  1.8579 -2.1366 -2.7926
   80MOL   H14312941   5.051   0.772   6.695 -1.0072  0.9551 -1.1331
   80MOL   H14412942   5.284   0.698   6.704 -0.1079 -1.3646 -0.4306
   80MOL   H14512943   5.274   0.847   6.653  0.5895 -0.4647 -0.8147
   80MOL   C14612944   5.066   0.845   6.505  0.9715  0.1478  0.4092
   80MOL   C14712945   4.913   0.853   6.486 -0.3497 -0.1122  0.1709
   80MOL   N14812946   4.870   0.952   6.579  0.2762 -0.0229  0.2120
   80MOL   H14912947   5.097   0.942   6.542 -1.3656  1.9416 -2.0908
   80MOL   H15012948   5.108   0.819   6.408 -0.2396  0.5461 -0.2295
   80MOL   H15112949   4.852   0.764   6.504  1.8800 -1.6177  0.4553
   80MOL   H15212950   4.774   0.972   6.553  0.6698  0.1267 -1.1273
   80MOL   H15312951   4.908   1.041   6.552  0.7035 -0.5611 -0.9848
   80MOL   C15412952   4.860   0.884   6.345 -0.1760 -0.2296  0.7876
   80MOL   C15512953   4.882   0.762   6.255  0.2636 -0.4547  0.2677
   80MOL   N15612954   4.821   0.757   6.132  0.2279 -0.3490  0.0540
   80MOL   H15712955   4.760   0.927   6.348 -0.3604 -0.7494  2.1514
   80MOL   H15812956   4.921   0.963   6.300  1.0317 -1.3610  0.4183
   80MOL   H15912957   4.854   0.669   6.304  4.2353 -1.6857  0.4261
   80MOL   H16012958   4.811   0.658   6.116  0.1222 -0.2021 -0.7940
   80MOL   H16112959   4.723   0.781   6.132 -0.0356 -1.3499 -1.1915
   80MOL   H16212960   4.990   0.752   6.241  0.4083  1.5337 -0.1694
   81MOL     C112961   0.395   3.834   0.396 -0.0332 -0.0140  0.2702
   81MOL     C212962   0.385   3.980   0.345 -0.2343 -0.0277 -0.3421
   81MOL     N312963   0.505   4.045   0.401  1.0462  0.4519  0.1004
   81MOL     H412964   0.482   3.775   0.366  0.0310  0.0247  0.3791
   81MOL     H512965   0.307   3.783   0.357  0.9221 -0.8544 -0.8514
   81MOL     H612966   0.299   4.029   0.392 -0.6955  0.3033 -1.5302
   81MOL     H712967   0.503   4.056   0.501 -0.1634  0.9211  0.0358
   81MOL     H812968   0.501   4.139   0.367  0.8509  0.1348 -0.7617
   81MOL     H912969   0.377   3.831   0.503  1.0795 -2.3099  0.4209
   81MOL    C1012970   0.389   4.005   0.195  0.5596  0.2731  0.3088
   81MOL    C1112971   0.255   3.983   0.127  0.3518  0.3344  0.0684
   81MOL    N1212972   0.152   4.054   0.190  0.6176  0.4857 -0.3100
   81MOL    H1312973   0.418   4.109   0.182  0.5419  0.4010  1.2735
   81MOL    H1412974   0.466   3.939   0.153 -0.3553 -0.9061  0.4361
   81MOL    H1512975   0.220   3.880   0.129 -1.6567  0.8342 -4.0598
   81MOL    H1612976   0.148   4.023   0.286 -0.2358 -2.3020 -1.2081
   81MOL    H1712977   0.065   4.024   0.149 -0.6900  2.1359  1.1803
   81MOL    C1812978   0.263   4.023   7.249 -0.0728 -0.2467 -0.5271
   81MOL    C1912979   0.325   3.925   7.149  0.5321  0.0398  0.2143
   81MOL    N2012980   0.254   3.792   7.156 -0.6963 -0.1467  0.0725
   81MOL    H2112981   0.163   4.050   7.216 -0.9240  0.3239  2.3946
   81MOL    H2212982   0.325   4.113   7.245 -1.3704  0.6848  0.0227
   81MOL    H2312983   0.429   3.910   7.176  0.6163 -1.7642 -0.9998
   81MOL    H2412984   0.316   3.715   7.136 -0.8972 -0.6631  1.3814
   81MOL    H2512985   0.195   3.786   7.074  0.3136  0.6508 -0.7274
   81MOL    C2612986   0.319   3.978   6.999 -0.2482 -0.1185 -0.1050
   81MOL    C2712987   0.427   4.090   6.962 -0.3728 -0.7843 -0.8135
   81MOL    N2812988   0.561   4.029   6.954 -0.5219  0.1775 -0.2441
   81MOL    H2912989   0.323   3.892   6.932  0.1806 -0.0690 -0.1453
   81MOL    H3012990   0.220   4.013   6.970  0.5092  3.0948  0.9962
   81MOL    H3112991   0.416   4.167   7.038 -0.2890  0.4400 -2.0239
   81MOL    H3212992   0.538   3.942   6.907  0.9759  0.6569 -1.9219
   81MOL    H3312993   0.586   4.007   7.049  1.4214  2.5468 -0.1613
   81MOL    C3412994   0.402   4.155   6.821 -1.2804 -0.0420 -0.4369
   81MOL    C3512995   0.284   4.253   6.813  0.7259 -0.0743  0.0770
   81MOL    N3612996   0.303   4.366   6.894  0.0345 -0.3000 -0.2208
   81MOL    H3712997   0.488   4.208   6.782  0.4312 -2.3274  0.1577
   81MOL    H3812998   0.383   4.069   6.756  0.1128 -0.4673 -0.2884
   81MOL    H3912999   0.191   4.206   6.848 -0.7180  1.6745 -1.3538
   81MOL    H4013000   0.365   4.437   6.859 -0.1720  0.4830  0.9643
   81MOL    H4113001   0.345   4.354   6.985 -2.4413  0.2274  1.0394
   81MOL    C4213002   0.261   4.301   6.668 -0.1313 -0.0887  0.3887
   81MOL    C4313003   0.203   4.195   6.574 -0.7625 -0.3072  0.4417
   81MOL    N4413004   0.072   4.243   6.534 -0.0226 -0.5152 -0.1022
   81MOL    H4513005   0.187   4.380   6.680  0.2453  0.0143  2.1327
   81MOL    H4613006   0.351   4.352   6.630 -1.1184  2.6051  1.5189
   81MOL    H4713007   0.183   4.103   6.628 -2.1312  0.6786  1.6589
   81MOL    H4813008   0.011   4.239   6.614 -1.3738  2.4162 -0.9391
   81MOL    H4913009   0.028   4.177   6.471 -1.0248  0.4352 -0.4161
   81MOL    C5013010   0.296   4.162   6.452 -0.4668 -0.0449  0.3381
   81MOL    C5113011   0.432   4.098   6.475  0.0545 -0.3222 -0.5564
   81MOL    N5213012   0.455   4.002   6.370  0.1814 -0.3860 -0.1566
   81MOL    H5313013   0.240   4.105   6.378  1.3115 -0.2021 -0.8952
   81MOL    H5413014   0.309   4.260   6.404 -1.7776 -0.5577 -1.1155
   81MOL    H5513015   0.427   4.028   6.558 -0.0632  1.8465  1.3422
   81MOL    H5613016   0.532   3.956   6.417 -0.3662 -1.7973 -0.6137
   81MOL    H5713017   0.487   4.043   6.283 -0.3454 -0.2034 -0.2643
   81MOL    C5813018   0.556   4.196   6.479  0.1893  0.8321  0.3183
   81MOL    C5913019   0.678   4.133   6.562  0.1035 -0.6640 -0.0481
   81MOL    N6013020   0.751   4.039   6.479 -0.4796 -0.0870  0.2883
   81MOL    H6113021   0.581   4.208   6.374 -0.8451 -0.5973 -0.1101
   81MOL    H6213022   0.537   4.295   6.519 -1.5182  0.3100  0.8119
   81MOL    H6313023   0.658   4.093   6.661  0.5168 -0.6015  0.0621
   81MOL    H6413024   0.819   3.987   6.534  2.5770  1.2369 -2.0959
   81MOL    H6513025   0.807   4.096   6.418  0.9771 -2.9391 -1.1779
   81MOL    C6613026   0.791   4.239   6.581  0.6187  0.6441 -0.1727
   81MOL    C6713027   0.755   4.349   6.681  0.4964 -0.2882 -0.1590
   81MOL    N6813028   0.772   4.294   6.822  0.1690 -0.0004 -0.0424
   81MOL    H6913029   0.885   4.197   6.617 -0.3440 -1.8008 -0.3903
   81MOL    H7013030   0.813   4.275   6.480 -0.9564  1.4871 -0.2265
   81MOL    H7113031   0.652   4.383   6.674  0.5385  0.1222  1.1405
   81MOL    H7213032   0.707   4.217   6.831 -0.4690  0.5711  0.3187
   81MOL    H7313033   0.726   4.368   6.874 -0.0024  0.5816 -1.0030
   81MOL    C7413034   0.850   4.468   6.663  0.2482  0.0604 -0.2682
   81MOL    C7513035   0.809   4.567   6.553  0.0552 -0.7743 -0.0932
   81MOL    N7613036   0.715   4.663   6.615  0.1892  0.2682  0.5586
   81MOL    H7713037   0.863   4.517   6.760  0.0391 -1.3196  0.4722
   81MOL    H7813038   0.955   4.444   6.645 -0.0322 -1.6576  0.3238
   81MOL    H7913039   0.743   4.513   6.485 -2.1045 -0.2880  1.5477
   81MOL    H8013040   0.631   4.675   6.559  0.0815  0.2985  0.7236
   81MOL    H8113041   0.758   4.754   6.618  0.9673 -0.1442  2.6877
   81MOL    C8213042   0.924   4.642   6.484  0.3632  0.6685 -0.0454
   81MOL    C8313043   1.021   4.549   6.409 -0.4111  0.3297  0.6025
   81MOL    N8413044   0.954   4.468   6.313 -0.3716  0.3972  0.5123
   81MOL    H8513045   0.883   4.723   6.423 -2.7365 -0.2650  0.7168
   81MOL    H8613046   0.991   4.681   6.560  0.5306 -0.2962  0.3153
   81MOL    H8713047   1.077   4.485   6.477  1.9496  1.0317 -0.6311
   81MOL    H8813048   0.864   4.503   6.284 -0.6601  0.2876  1.2505
   81MOL    H8913049   1.011   4.447   6.233 -1.1458  0.3431 -0.0291
   81MOL    C9013050   1.112   4.628   6.312  0.4846 -0.2881 -0.7047
   81MOL    C9113051   1.226   4.706   6.367  1.0007 -0.0157 -0.8115
   81MOL    N9213052   1.332   4.613   6.415 -0.0646 -0.5640  0.1689
   81MOL    H9313053   1.155   4.573   6.227  1.6009  0.3614 -0.5619
   81MOL    H9413054   1.050   4.705   6.266 -0.1896  0.3498  1.2290
   81MOL    H9513055   1.191   4.763   6.454  1.6517 -0.3660 -0.3111
   81MOL    H9613056   1.337   4.578   6.510 -0.6288  0.5874  0.6410
   81MOL    H9713057   1.341   4.534   6.354 -0.3467 -0.7190  0.3293
   81MOL    C9813058   1.282   4.800   6.266 -0.0696 -0.2755 -0.6909
   81MOL    C9913059   1.392   4.887   6.336  0.8713  0.1285  0.0701
   81MOL   N10013060   1.444   4.977   6.235 -0.0042  0.2321 -0.1649
   81MOL   H10113061   1.336   4.752   6.185  1.2611  2.7731 -1.6731
   81MOL   H10213062   1.203   4.861   6.221  0.5617  1.5663  0.6184
   81MOL   H10313063   1.470   4.818   6.369  2.4527  2.1064  0.5827
   81MOL   H10413064   1.372   5.044   6.212  0.5553  0.6547 -0.6910
   81MOL   H10513065   1.444   4.926   6.148 -2.9936 -0.6678  0.2946
   81MOL   C10613066   1.339   4.982   6.447 -0.6144  0.0657 -0.0163
   81MOL   C10713067   1.426   5.012   6.566 -0.3054 -0.2121 -0.3576
   81MOL   N10813068   1.361   5.127   6.624  0.1955 -0.0463 -0.2661
   81MOL   H10913069   1.309   5.071   6.392  0.7202 -1.4780 -3.3604
   81MOL   H11013070   1.239   4.955   6.482 -0.9739  1.7835  0.3436
   81MOL   H11113071   1.528   5.043   6.543 -0.6558  0.1009 -1.5599
   81MOL   H11213072   1.396   5.200   6.564 -0.1071 -0.3440 -0.8080
   81MOL   H11313073   1.394   5.146   6.718  2.7713 -0.2207 -1.0834
   81MOL   C11413074   1.426   4.897   6.670 -0.1792 -0.2760 -0.2605
   81MOL   C11513075   1.564   4.837   6.705 -0.6976  0.3117  0.4269
   81MOL   N11613076   1.558   4.755   6.827 -0.0698  0.2829  0.0692
   81MOL   H11713077   1.371   4.941   6.753 -1.1494 -0.4116 -0.8181
   81MOL   H11813078   1.360   4.822   6.625 -0.9139  1.4008 -2.0242
   81MOL   H11913079   1.641   4.909   6.732 -0.6721  0.4832 -0.1015
   81MOL   H12013080   1.501   4.672   6.815  0.3213 -0.3224  2.2079
   81MOL   H12113081   1.648   4.713   6.846  1.7070  1.7213 -4.4498
   81MOL   C12213082   1.637   4.750   6.599 -0.3403 -0.3416  0.2709
   81MOL   C12313083   1.720   4.827   6.485 -0.1086 -0.5768 -0.2995
   81MOL   N12413084   1.829   4.909   6.544  0.1454 -0.3802  0.0052
   81MOL   H12513085   1.700   4.677   6.650  0.2688  0.3230  0.4567
   81MOL   H12613086   1.554   4.697   6.552 -0.5500  0.6630 -0.5010
   81MOL   H12713087   1.655   4.896   6.433  2.4336  0.9324 -1.5970
   81MOL   H12813088   1.905   4.853   6.581  1.5893  0.7720 -1.1430
   81MOL   H12913089   1.791   4.945   6.630 -1.0331 -1.4114 -0.0624
   81MOL   C13013090   1.782   4.735   6.379 -0.4330  0.4998  0.2665
   81MOL   C13113091   1.707   4.715   6.246  0.2025 -0.4382  0.9204
   81MOL   N13213092   1.700   4.833   6.169 -0.1650 -0.3852  0.1020
   81MOL   H13313093   1.877   4.782   6.354  0.1485 -0.7568  0.0760
   81MOL   H13413094   1.804   4.641   6.429  1.2578 -0.0937 -1.5386
   81MOL   H13513095   1.605   4.681   6.268 -0.0626 -0.0078  0.3699
   81MOL   H13613096   1.619   4.887   6.195  0.4926  0.2011  0.9325
   81MOL   H13713097   1.778   4.890   6.196 -0.2599 -1.2506  2.2563
   81MOL   C13813098   1.786   4.616   6.159 -0.4314  0.2260 -0.2610
   81MOL   C13913099   1.722   4.576   6.028 -0.5367  0.2922  0.0637
   81MOL   N14013100   1.815   4.518   5.931  0.4083 -0.1863 -0.3137
   81MOL   H14113101   1.881   4.666   6.142 -0.0289 -1.2340 -2.4699
   81MOL   H14213102   1.809   4.522   6.208 -2.0484  0.7492  1.5837
   81MOL   H14313103   1.674   4.665   5.986 -0.5436 -0.3454 -1.3166
   81MOL   H14413104   1.782   4.474   5.847  1.0727 -1.5310  0.1168
   81MOL   H14513105   1.888   4.584   5.909 -1.3159  1.2871 -1.7537
   81MOL   C14613106   1.588   4.491   6.038  0.1182 -0.3650  0.3654
   81MOL   C14713107   1.495   4.496   5.911  0.3070  0.0046 -0.2269
   81MOL   N14813108   1.403   4.616   5.913 -0.4246  0.1112 -0.7198
   81MOL   H14913109   1.625   4.391   6.060 -1.5747 -1.2719 -0.8793
   81MOL   H15013110   1.526   4.514   6.124  1.0276  1.4640  0.5520
   81MOL   H15113111   1.424   4.417   5.938  0.2055  0.0285 -0.4317
   81MOL   H15213112   1.453   4.704   5.903 -1.6864  1.0349  0.9143
   81MOL   H15313113   1.364   4.625   6.005  0.0743  2.3423 -0.6968
   81MOL   C15413114   1.561   4.489   5.772 -0.2019  0.3558  0.6420
   81MOL   C15513115   1.633   4.348   5.760  0.4031 -0.3588 -0.1209
   81MOL   N15613116   1.754   4.365   5.678  0.2742  0.1025 -0.1018
   81MOL   H15713117   1.494   4.469   5.689 -0.0935 -1.6847  1.0219
   81MOL   H15813118   1.625   4.572   5.744 -1.4689  0.9915 -0.4364
   81MOL   H15913119   1.560   4.283   5.712 -1.3498  0.6587  1.1138
   81MOL   H16013120   1.756   4.280   5.624 -0.1071  0.4650 -0.7052
   81MOL   H16113121   1.729   4.432   5.606  0.0817 -0.1845 -0.2990
   81MOL   H16213122   1.651   4.301   5.857  0.5514  2.1760  1.1123
   82MOL     C113123   5.670   0.492   1.504  0.5696  0.5722 -0.2145
   82MOL     C213124   5.633   0.604   1.616  0.1383  0.0513 -0.3360
   82MOL     N313125   5.502   0.666   1.593  0.6834 -0.1648 -0.7299
   82MOL     H413126   5.751   0.427   1.535 -0.5216 -0.4581  0.5111
   82MOL     H513127   5.700   0.538   1.409 -1.2007 -1.8670 -2.0200
   82MOL     H613128   5.710   0.681   1.610  1.8089 -1.2182  2.9725
   82MOL     H713129   5.433   0.594   1.573  0.1824  0.1174 -0.0175
   82MOL     H813130   5.483   0.738   1.525  0.6796 -0.8241 -1.4436
   82MOL     H913131   5.585   0.432   1.473  1.7654 -0.9375 -0.6224
   82MOL    C1013132   5.629   0.540   1.758 -0.4145  0.5797  0.4220
   82MOL    C1113133   5.720   0.603   1.861 -0.0943 -1.0078 -0.1544
   82MOL    N1213134   5.683   0.552   2.001 -0.7251 -0.7718  0.6257
   82MOL    H1313135   5.525   0.554   1.790 -1.5325 -1.5200 -2.0223
   82MOL    H1413136   5.642   0.432   1.760 -1.3489  0.4299 -0.6942
   82MOL    H1513137   5.697   0.709   1.863 -0.9914 -1.2083  0.3690
   82MOL    H1613138   5.584   0.532   2.007 -0.9595  0.1301 -0.0191
   82MOL    H1713139   5.723   0.464   2.030 -0.1602 -0.7998 -0.2276
   82MOL    C1813140   5.872   0.578   1.824 -0.3619  0.0798  0.2640
   82MOL    C1913141   5.952   0.712   1.838 -0.3305  0.1006 -0.3109
   82MOL    N2013142   6.093   0.692   1.843  0.1147 -0.0404  0.4117
   82MOL    H2113143   5.922   0.493   1.871 -0.5143 -0.3451 -0.3389
   82MOL    H2213144   5.877   0.553   1.718  0.0062 -0.4979  0.4159
   82MOL    H2313145   5.919   0.760   1.930 -0.0160 -0.5256  0.1338
   82MOL    H2413146   6.120   0.648   1.756 -0.1905  0.9513 -0.1941
   82MOL    H2513147   6.138   0.781   1.852  1.1845 -0.8173  3.1484
   82MOL    C2613148   5.929   0.819   1.732 -0.0207 -0.1804 -0.9554
   82MOL    C2713149   5.989   0.967   1.765 -0.2696 -0.2992  0.3717
   82MOL    N2813150   5.963   1.049   1.653  0.0660  0.4706  0.1785
   82MOL    H2913151   5.947   0.790   1.629 -1.4240  0.3394 -1.3565
   82MOL    H3013152   5.824   0.847   1.726 -0.0335 -0.0116 -0.1241
   82MOL    H3113153   6.097   0.957   1.779 -0.3836  0.2757  1.7348
   82MOL    H3213154   6.009   1.133   1.685  1.3805 -0.0176 -0.4090
   82MOL    H3313155   5.865   1.071   1.640 -0.1150  0.7805  2.0006
   82MOL    C3413156   5.929   1.041   1.887 -0.4847 -0.2470 -1.0216
   82MOL    C3513157   6.042   1.117   1.967  0.1022  0.3082 -0.6311
   82MOL    N3613158   5.968   1.184   2.080 -0.4492  0.3290 -0.1287
   82MOL    H3713159   5.851   1.112   1.858  1.5107  1.5404 -2.2035
   82MOL    H3813160   5.888   0.964   1.952 -1.5264  0.2061 -1.1346
   82MOL    H3913161   6.078   1.192   1.896 -0.3312 -0.6275 -1.8532
   82MOL    H4013162   5.894   1.240   2.041  0.3312  0.1162 -1.9846
   82MOL    H4113163   6.036   1.243   2.127 -0.2403 -0.6584  0.8130
   82MOL    C4213164   6.161   1.045   2.014  0.0656 -0.0280  0.0442
   82MOL    C4313165   6.288   1.074   1.918  0.2182 -0.1227  0.3586
   82MOL    N4413166   6.365   1.187   1.973  0.2279 -0.0561 -0.0205
   82MOL    H4513167   6.180   1.087   2.113 -0.7107  1.7682 -0.5490
   82MOL    H4613168   6.149   0.938   2.033  0.7351  0.2143  1.9386
   82MOL    H4713169   6.260   1.095   1.815  0.5164  3.0793  0.8900
   82MOL    H4813170   6.443   1.227   1.923  1.0585 -0.3523  0.9985
   82MOL    H4913171   6.305   1.265   1.998 -1.0819 -0.7031 -1.1066
   82MOL    C5013172   6.379   0.949   1.925 -0.8105 -0.1677  0.1707
   82MOL    C5113173   6.487   0.936   1.818 -0.3372  0.3134  0.0562
   82MOL    N5213174   6.568   0.820   1.862 -0.2121  0.4632 -0.0252
   82MOL    H5313175   6.422   0.952   2.025 -1.6381 -0.7031  0.5435
   82MOL    H5413176   6.310   0.867   1.908  0.5754 -1.7146  1.9002
   82MOL    H5513177   6.554   1.022   1.825 -0.4572  0.3605  0.6580
   82MOL    H5613178   6.607   0.828   1.954 -3.9588  0.3907  1.6544
   82MOL    H5713179   6.641   0.818   1.792  0.7524  2.3000  0.8889
   82MOL    C5813180   6.444   0.914   1.669  0.0712  0.2329  0.6139
   82MOL    C5913181   6.428   1.046   1.583  0.7095 -0.6019 -0.4946
   82MOL    N6013182   6.537   1.141   1.596 -0.1061 -0.3370  0.8877
   82MOL    H6113183   6.518   0.847   1.624 -1.1286 -0.0174 -1.0105
   82MOL    H6213184   6.354   0.854   1.676  0.6182 -0.8844 -1.4941
   82MOL    H6313185   6.336   1.083   1.627  1.0317 -2.7395  2.1070
   82MOL    H6413186   6.627   1.098   1.577 -0.5544 -0.3016 -1.3988
   82MOL    H6513187   6.556   1.174   1.689  1.3578 -2.7763  1.5021
   82MOL    C6613188   6.393   1.024   1.435 -0.5832  0.3955 -0.0649
   82MOL    C6713189   6.245   0.971   1.425  0.3472 -0.5308 -0.0986
   82MOL    N6813190   6.159   1.091   1.428 -0.1986  0.6248 -0.5918
   82MOL    H6913191   6.402   1.119   1.381  0.5883  0.6319  0.5274
   82MOL    H7013192   6.463   0.948   1.402 -1.7216  0.5413 -2.9588
   82MOL    H7113193   6.221   0.909   1.511  0.7822 -0.2953  0.1897
   82MOL    H7213194   6.188   1.156   1.499 -0.6482  1.5150 -1.2202
   82MOL    H7313195   6.067   1.068   1.463 -0.4066 -0.7985 -1.9855
   82MOL    C7413196   6.212   0.886   1.298  0.5037 -0.6217  0.0762
   82MOL    C7513197   6.277   0.745   1.299  0.0056 -0.7778  0.1110
   82MOL    N7613198   6.230   0.678   1.419 -0.2199  0.1089 -0.1742
   82MOL    H7713199   6.105   0.877   1.281  0.8564  0.3844 -2.9418
   82MOL    H7813200   6.251   0.934   1.209  1.7517 -1.6743  0.0413
   82MOL    H7913201   6.386   0.740   1.309  0.0156 -2.2724 -0.5066
   82MOL    H8013202   6.173   0.754   1.455  1.1487  1.2240 -0.3300
   82MOL    H8113203   6.153   0.621   1.389  0.5864 -0.5315 -1.0397
   82MOL    C8213204   6.248   0.655   1.174  0.0632 -0.5842  0.9220
   82MOL    C8313205   6.355   0.674   1.061 -0.5145  0.2715 -0.4277
   82MOL    N8413206   6.328   0.569   0.966 -0.1617  0.1665  0.1879
   82MOL    H8513207   6.248   0.550   1.203  1.2966 -0.9703 -0.4370
   82MOL    H8613208   6.155   0.670   1.120 -0.3814 -2.0168  1.2892
   82MOL    H8713209   6.451   0.664   1.109  0.2585  0.2625 -1.9351
   82MOL    H8813210   6.414   0.547   0.917 -0.6867  0.5995 -0.9101
   82MOL    H8913211   6.307   0.485   1.019 -0.3026  0.4363  0.5590
   82MOL    C9013212   6.359   0.812   0.989  0.7868  0.3054 -0.4465
   82MOL    C9113213   6.458   0.835   0.873  0.2705 -0.3915 -0.1630
   82MOL    N9213214   6.431   0.965   0.812 -0.0351  0.3390 -0.2431
   82MOL    H9313215   6.259   0.843   0.959  0.3018 -1.6278 -0.8940
   82MOL    H9413216   6.378   0.880   1.073 -3.1731  1.4018 -0.3522
   82MOL    H9513217   6.421   0.771   0.793 -1.8823  2.5615 -1.6412
   82MOL    H9613218   6.470   1.041   0.864 -0.7111  1.2732 -1.0795
   82MOL    H9713219   6.332   0.984   0.812  0.2598  1.9172  0.0413
   82MOL    C9813220   6.606   0.828   0.913 -0.7079 -0.0899 -0.1216
   82MOL    C9913221   6.672   0.696   0.898 -0.4764  0.5282  0.1012
   82MOL   N10013222   6.703   0.684   0.761  0.2362  0.1848  1.1150
   82MOL   H10113223   6.670   0.905   0.868 -0.4040  0.4242  1.1797
   82MOL   H10213224   6.615   0.855   1.018  2.6590  0.8647 -0.5926
   82MOL   H10313225   6.617   0.612   0.941  0.2294  0.0916  0.1568
   82MOL   H10413226   6.623   0.724   0.715  0.6141  0.0771  0.3389
   82MOL   H10513227   6.705   0.588   0.727  2.3770  0.3529  0.6818
   82MOL   C10613228   6.799   0.689   0.986 -0.0985  0.1502 -0.1205
   82MOL   C10713229   6.880   0.559   0.964  0.4353 -0.2106 -0.3583
   82MOL   N10813230   7.018   0.584   0.996 -0.2468  0.3700  0.1795
   82MOL   H10913231   6.860   0.777   0.963 -0.5715  1.0049  1.7908
   82MOL   H11013232   6.763   0.690   1.089  0.6552  0.3729  0.1460
   82MOL   H11113233   6.893   0.550   0.856 -1.4201  0.8252 -0.6937
   82MOL   H11213234   7.023   0.684   1.012  2.0011  0.4985 -1.0589
   82MOL   H11313235   7.067   0.592   0.908  0.0360  0.2753  0.3276
   82MOL   C11413236   6.830   0.435   1.036 -0.1132 -0.3617  0.4444
   82MOL   C11513237   6.831   0.308   0.958 -0.3206  0.2174 -0.4179
   82MOL   N11613238   6.782   0.210   1.055 -0.3543  0.3564  0.0682
   82MOL   H11713239   6.883   0.425   1.131  1.5137 -0.6896 -0.4798
   82MOL   H11813240   6.731   0.459   1.075  0.0735  0.4466  0.4286
   82MOL   H11913241   6.928   0.282   0.917  0.7826  4.1834 -0.4912
   82MOL   H12013242   6.758   0.123   1.008 -1.1837  0.4601  0.2838
   82MOL   H12113243   6.841   0.186   1.133  0.6807  0.3503 -0.7116
   82MOL   C12213244   6.743   0.315   0.830  0.7423 -0.4535  0.5154
   82MOL   C12313245   6.756   0.193   0.737 -0.3018  0.7612 -0.4598
   82MOL   N12413246   6.643   0.201   0.642 -0.1808 -0.1498  0.6398
   82MOL   H12513247   6.645   0.323   0.875  0.6557  0.3432  0.1966
   82MOL   H12613248   6.759   0.406   0.771 -1.6696  0.6528  1.5049
   82MOL   H12713249   6.746   0.096   0.784 -0.6400  1.1154  0.2075
   82MOL   H12813250   6.553   0.203   0.687 -0.4163  0.3519  0.1447
   82MOL   H12913251   6.644   0.108   0.602 -2.1412 -0.9250  2.3138
   82MOL   C13013252   6.896   0.193   0.667 -0.5403  0.5692  0.4652
   82MOL   C13113253   6.911   0.070   0.571 -0.4091  0.0647 -0.1666
   82MOL   N13213254   6.971   0.106   0.439 -0.0859 -0.0476  0.1578
   82MOL   H13313255   6.915   0.281   0.605  1.4680 -0.1203  0.0712
   82MOL   H13413256   6.974   0.210   0.740  0.2288 -1.9607  0.2676
   82MOL   H13513257   6.812   0.030   0.548  0.0928 -1.5257  0.3361
   82MOL   H13613258   7.021   0.193   0.445 -0.8351  0.4018 -0.0860
   82MOL   H13713259   6.896   0.138   0.379 -0.4480 -1.4971 -0.1859
   82MOL   C13813260   7.001   7.236   0.637 -1.2256 -0.2980  1.0093
   82MOL   C13913261   6.963   7.098   0.577  0.0644 -0.3408  0.4486
   82MOL   N14013262   7.030   7.088   0.445 -0.2945  0.3123 -0.0564
   82MOL   H14113263   7.105   7.264   0.622 -0.4589 -1.6227  3.5071
   82MOL   H14213264   6.987   7.229   0.745 -2.2925 -1.7479  0.7895
   82MOL   H14313265   6.855   7.086   0.572  0.4953 -3.9705 -1.4899
   82MOL   H14413266   7.128   7.091   0.467  0.1856 -0.7952 -1.9421
   82MOL   H14513267   7.029   7.175   0.395  4.3520  0.3439 -0.2461
   82MOL   C14613268   7.018   6.983   0.661  0.0700  0.3207 -0.3132
   82MOL   C14713269   6.961   6.952   0.796  0.3543 -0.5378 -0.6732
   82MOL   N14813270   6.846   6.865   0.783  0.0278 -0.3197  0.0225
   82MOL   H14913271   7.010   6.894   0.598  0.1879 -0.1938  0.3997
   82MOL   H15013272   7.124   7.000   0.683  0.0277 -0.9474  0.9641
   82MOL   H15113273   6.938   7.051   0.837 -0.6188 -1.4702  1.0936
   82MOL   H15213274   6.798   6.862   0.872 -0.2162 -2.8467 -0.1397
   82MOL   H15313275   6.785   6.905   0.714 -2.1903 -1.0706  1.4922
   82MOL   C15413276   7.056   6.875   0.893 -0.5008  0.4285  0.4224
   82MOL   C15513277   7.007   6.835   1.029 -0.1321  0.1226  0.0198
   82MOL   N15613278   7.122   6.838   1.113  0.2982  0.8750  0.4849
   82MOL   H15713279   7.093   6.786   0.842  0.3629  1.5113 -0.8749
   82MOL   H15813280   7.148   6.934   0.898 -0.8816  1.1641 -0.8651
   82MOL   H15913281   6.959   6.737   1.035 -0.1553  0.1725  0.6684
   82MOL   H16013282   7.114   6.853   1.213  0.5484  0.0561  0.6406
   82MOL   H16113283   7.168   6.747   1.114 -2.5772 -0.6557 -0.7618
   82MOL   H16213284   6.928   6.900   1.067  0.0189  0.6250 -0.5118
   83MOL     C113285   3.045   0.340   3.684  0.0242  0.4469 -0.5151
   83MOL     C213286   3.121   0.303   3.803 -0.0215 -0.5045 -0.8839
   83MOL     N313287   3.057   0.383   3.901  0.1473 -0.3672 -0.2702
   83MOL     H413288   3.077   0.288   3.594 -1.7050 -1.6044  0.0255
   83MOL     H513289   3.051   0.446   3.660  1.0009  0.1589 -1.5399
   83MOL     H613290   3.220   0.342   3.779  0.0963  0.1817  0.6355
   83MOL     H713291   3.122   0.412   3.972  0.3581 -0.6833 -0.3324
   83MOL     H813292   2.997   0.316   3.947  1.3719  0.4712  2.6486
   83MOL     H913293   2.939   0.319   3.700 -0.3920  2.4225 -0.5695
   83MOL    C1013294   3.131   0.155   3.841  0.3783 -0.2731  0.3984
   83MOL    C1113295   3.238   0.125   3.942  0.0192 -0.2002  0.6144
   83MOL    N1213296   3.186   0.148   4.081 -0.2378  1.1508 -0.2602
   83MOL    H1313297   3.036   0.110   3.868 -0.8193  2.5626  1.1102
   83MOL    H1413298   3.164   0.098   3.754  0.7059  0.3526  0.1104
   83MOL    H1513299   3.328   0.187   3.943 -0.0922 -0.0162 -0.4001
   83MOL    H1613300   3.099   0.097   4.087 -1.1874  2.9992  2.3227
   83MOL    H1713301   3.242   0.099   4.148 -2.2693  0.2289  0.8021
   83MOL    C1813302   3.277   7.256   3.936  0.3913 -0.2618 -0.3932
   83MOL    C1913303   3.369   7.222   3.818  0.2154 -0.4780 -0.0743
   83MOL    N2013304   3.503   0.003   3.846 -0.3814  0.3713  0.4944
   83MOL    H2113305   3.324   7.221   4.029 -1.7487 -0.9178  0.4767
   83MOL    H2213306   3.184   7.200   3.923 -0.0037  0.8003 -2.2261
   83MOL    H2313307   3.334   7.269   3.726 -2.6035 -0.3016  1.0584
   83MOL    H2413308   3.549   0.022   3.758 -2.0406  1.0400 -0.2465
   83MOL    H2513309   3.481   0.099   3.869  1.3661  0.6160  1.1952
   83MOL    C2613310   3.378   7.066   3.787 -0.2267 -0.1568 -0.7606
   83MOL    C2713311   3.436   6.968   3.888  0.3787 -0.2771 -0.2838
   83MOL    N2813312   3.398   6.837   3.845  0.1375  0.6353  0.3862
   83MOL    H2913313   3.280   7.025   3.762  1.1281 -3.5401 -0.6864
   83MOL    H3013314   3.440   7.063   3.697  1.6245  0.3164  0.4700
   83MOL    H3113315   3.417   6.997   3.991  1.6535  0.0034 -0.1206
   83MOL    H3213316   3.316   6.818   3.900 -1.4770 -0.3967 -2.3237
   83MOL    H3313317   3.470   6.776   3.883 -0.2371  0.5555  0.9775
   83MOL    C3413318   3.595   6.962   3.880 -0.4274  0.0142  0.3073
   83MOL    C3513319   3.664   6.908   4.011  0.0400  0.1504  0.1923
   83MOL    N3613320   3.635   6.764   4.016  0.0564  0.3764  0.1048
   83MOL    H3713321   3.632   6.894   3.803 -1.3437 -0.8575  0.6337
   83MOL    H3813322   3.631   7.063   3.861 -1.6594  0.4016 -0.0141
   83MOL    H3913323   3.622   6.965   4.094 -0.4267  0.4653 -0.2533
   83MOL    H4013324   3.711   6.706   4.048  0.6734  1.4031  0.5394
   83MOL    H4113325   3.550   6.756   4.070 -0.7921  0.2129 -1.2246
   83MOL    C4213326   3.819   6.917   3.992  0.1304 -0.1860  0.2361
   83MOL    C4313327   3.892   6.898   4.128 -0.0837 -0.5789  0.3625
   83MOL    N4413328   4.019   6.860   4.081 -0.4640 -0.3822  0.1150
   83MOL    H4513329   3.848   6.846   3.914  0.5355  0.9246 -0.6338
   83MOL    H4613330   3.845   7.019   3.964  0.2436 -0.3424 -0.2317
   83MOL    H4713331   3.840   6.822   4.187 -3.8320  0.9741 -0.8429
   83MOL    H4813332   4.064   6.934   4.029  0.6175  0.1078  1.7255
   83MOL    H4913333   4.008   6.788   4.011  3.1842 -0.7837 -0.1271
   83MOL    C5013334   3.903   7.030   4.219  0.2474  0.2397  0.2944
   83MOL    C5113335   3.967   7.013   4.358  0.0269 -0.5374  0.5989
   83MOL    N5213336   4.095   6.944   4.344  0.6805  0.3264 -1.1045
   83MOL    H5313337   3.958   7.107   4.163 -1.2841 -1.1159 -3.1978
   83MOL    H5413338   3.805   7.072   4.238  0.0439  0.2912 -0.8399
   83MOL    H5513339   3.901   6.947   4.414 -0.0126 -0.4639  0.6396
   83MOL    H5613340   4.165   7.009   4.310  2.8436 -1.1506  0.3875
   83MOL    H5713341   4.094   6.885   4.261 -0.7782  0.3143 -1.0867
   83MOL    C5813342   3.983   7.151   4.431  0.2697  0.6475  0.4521
   83MOL    C5913343   3.906   7.152   4.565 -0.0933 -0.5284  0.5243
   83MOL    N6013344   3.997   7.193   4.674 -0.0391  0.3798 -0.0720
   83MOL    H6113345   4.088   7.153   4.458  0.5214 -0.7056 -0.4146
   83MOL    H6213346   3.949   7.234   4.369 -0.4691  0.0231  0.0104
   83MOL    H6313347   3.889   7.049   4.596  1.5908 -1.5305 -1.7130
   83MOL    H6413348   4.014   0.017   4.677  0.3754  0.3189 -0.4114
   83MOL    H6513349   4.082   7.142   4.661 -0.1174 -0.0019  0.9054
   83MOL    C6613350   3.773   7.239   4.567 -0.3107  0.8004 -0.4332
   83MOL    C6713351   3.666   7.200   4.468  0.6964  0.6052 -0.2571
   83MOL    N6813352   3.601   7.073   4.505  0.2973 -0.6417 -0.0426
   83MOL    H6913353   3.728   7.219   4.664 -1.5531 -1.7007 -1.4737
   83MOL    H7013354   3.807   0.066   4.558  1.4063  0.4172  1.3768
   83MOL    H7113355   3.710   7.183   4.370 -1.0364 -0.7245 -0.8361
   83MOL    H7213356   3.559   7.038   4.420 -1.0996 -3.9206  1.9020
   83MOL    H7313357   3.667   7.003   4.537  0.5269 -0.7053 -0.6442
   83MOL    C7413358   3.548   0.025   4.454 -0.3639  0.1835 -0.7659
   83MOL    C7513359   3.466   0.015   4.329  0.3897 -0.1168  0.4691
   83MOL    N7613360   3.323   0.041   4.345 -1.1171  0.0962 -0.3886
   83MOL    H7713361   3.485   0.011   4.541  0.1128 -1.9768 -0.7364
   83MOL    H7813362   3.596   0.122   4.462 -3.5760  1.8594 -0.9383
   83MOL    H7913363   3.454   7.189   4.291 -2.9535  0.1519  0.6308
   83MOL    H8013364   3.316   0.139   4.370 -0.9807  0.1163 -0.4327
   83MOL    H8113365   3.281   7.261   4.419  1.1216  0.6734  1.3896
   83MOL    C8213366   3.521   0.113   4.216  0.7568 -0.6210 -0.0057
   83MOL    C8313367   3.656   0.084   4.159  0.0086 -0.3879 -0.4786
   83MOL    N8413368   3.648   7.237   4.080  0.1356 -0.2835  0.2657
   83MOL    H8513369   3.436   0.122   4.148 -0.4550 -0.7345  1.4754
   83MOL    H8613370   3.535   0.214   4.253 -1.6361  0.8885 -2.9959
   83MOL    H8713371   3.729   0.078   4.239 -2.7562  2.4620  2.3854
   83MOL    H8813372   3.602   7.249   3.991  2.0798  2.5616 -0.4321
   83MOL    H8913373   3.596   7.168   4.133  0.8404  0.3931  1.8653
   83MOL    C9013374   3.694   0.188   4.055  0.5165 -0.9976 -0.0775
   83MOL    C9113375   3.783   0.305   4.102 -0.3586  0.8125 -0.1887
   83MOL    N9213376   3.919   0.277   4.071  0.2690 -0.2490  0.0195
   83MOL    H9313377   3.753   0.140   3.977  0.5255 -0.1246 -0.6090
   83MOL    H9413378   3.611   0.229   3.998 -2.4860 -4.0430  1.9001
   83MOL    H9513379   3.770   0.304   4.211 -0.5653  0.8223 -0.2131
   83MOL    H9613380   3.915   0.177   4.088  0.0937 -0.2205  0.1531
   83MOL    H9713381   3.989   0.316   4.133 -0.5439 -0.4601  1.0947
   83MOL    C9813382   3.727   0.437   4.046  0.0797  0.0279 -0.2361
   83MOL    C9913383   3.604   0.488   4.119 -0.0967  0.5352 -0.6629
   83MOL   N10013384   3.629   0.561   4.239  0.8212  0.1754  0.3006
   83MOL   H10113385   3.785   0.527   4.032 -0.2741  0.5012  1.2679
   83MOL   H10213386   3.702   0.414   3.942 -3.5740  3.3516 -0.2285
   83MOL   H10313387   3.545   0.402   4.150  0.2620  0.8169  0.8337
   83MOL   H10413388   3.721   0.534   4.270  0.2917  0.2341  1.9466
   83MOL   H10513389   3.638   0.660   4.219 -1.2965  0.3669  0.1832
   83MOL   C10613390   3.524   0.594   4.035 -0.2520  0.2075  0.4858
   83MOL   C10713391   3.448   0.539   3.904  1.0820  0.6792 -0.3398
   83MOL   N10813392   3.323   0.615   3.898 -0.3724  0.4818 -0.3954
   83MOL   H10913393   3.445   0.635   4.098  1.0919  0.2192  2.1980
   83MOL   H11013394   3.598   0.672   4.016 -1.1830  1.0842  0.4267
   83MOL   H11113395   3.432   0.433   3.923  1.1441  0.7464  0.0937
   83MOL   H11213396   3.278   0.608   3.988  0.0681 -2.8276 -0.3752
   83MOL   H11313397   3.261   0.569   3.833 -1.7918  0.2427  1.0943
   83MOL   C11413398   3.535   0.571   3.779 -0.2532  0.4467  0.4206
   83MOL   C11513399   3.516   0.478   3.656 -1.0077 -0.2352 -0.1273
   83MOL   N11613400   3.603   0.527   3.550 -0.4276 -0.6528 -0.6995
   83MOL   H11713401   3.530   0.677   3.755  1.1346  0.8999  2.0069
   83MOL   H11813402   3.638   0.567   3.816  0.5594  1.0687 -1.6995
   83MOL   H11913403   3.411   0.472   3.625 -1.2740 -1.8798  1.0639
   83MOL   H12013404   3.688   0.571   3.580 -1.8928  0.5522  1.8799
   83MOL   H12113405   3.553   0.607   3.513 -1.2215 -0.4371  0.8008
   83MOL   C12213406   3.564   0.334   3.690  0.2145  0.2557 -0.6211
   83MOL   C12313407   3.543   0.234   3.571 -0.2102  0.4025  0.5088
   83MOL   N12413408   3.614   0.111   3.604  0.7207  0.0617  0.3250
   83MOL   H12513409   3.669   0.343   3.718  0.0499  0.2970 -0.0140
   83MOL   H12613410   3.513   0.296   3.779 -1.5948 -0.5485 -1.9766
   83MOL   H12713411   3.599   0.274   3.486 -0.5948  0.1614  0.1427
   83MOL   H12813412   3.591   0.027   3.554  0.2328 -0.3824  1.2762
   83MOL   H12913413   3.712   0.116   3.583  0.8483 -0.5352  0.7807
   83MOL   C13013414   3.393   0.204   3.540 -0.6999  0.1614  0.0395
   83MOL   C13113415   3.373   0.119   3.419 -0.0402  0.8085  0.1272
   83MOL   N13213416   3.290   0.006   3.462 -0.6984  0.7393 -0.4339
   83MOL   H13313417   3.340   0.158   3.623 -0.5800 -0.8298 -0.4331
   83MOL   H13413418   3.341   0.299   3.526  1.1288  1.2224  0.3340
   83MOL   H13513419   3.463   0.063   3.394 -1.8142 -1.9501 -0.3407
   83MOL   H13613420   3.342   7.228   3.529 -0.2530  0.7731 -0.7471
   83MOL   H13713421   3.263   7.220   3.386 -0.9643  1.1436 -0.6722
   83MOL   C13813422   3.308   0.184   3.296  0.4598  0.4003  0.3083
   83MOL   C13913423   3.387   0.290   3.220 -0.3725  0.7068  0.1065
   83MOL   N14013424   3.419   0.225   3.098 -0.0562 -0.1544  0.0968
   83MOL   H14113425   3.263   0.109   3.231  1.1134 -1.2496  1.7214
   83MOL   H14213426   3.222   0.236   3.338 -1.5400 -1.3538 -1.5197
   83MOL   H14313427   3.468   0.320   3.286 -1.4315  0.2346  1.6448
   83MOL   H14413428   3.474   0.284   3.037 -1.9298  0.1740 -1.3232
   83MOL   H14513429   3.337   0.228   3.040 -0.7513  1.0377  1.1257
   83MOL   C14613430   3.302   0.422   3.180 -0.0750  0.2812 -0.4088
   83MOL   C14713431   3.251   0.513   3.304  0.8977  0.0503  0.4959
   83MOL   N14813432   3.367   0.574   3.363  0.1254 -0.2797  0.1594
   83MOL   H14913433   3.341   0.484   3.100  0.9579  1.5413  1.0326
   83MOL   H15013434   3.207   0.380   3.147  0.6802 -3.5115  1.9670
   83MOL   H15113435   3.196   0.454   3.377 -0.8818  1.3202  0.2090
   83MOL   H15213436   3.418   0.620   3.289  0.2679 -1.4551 -0.4795
   83MOL   H15313437   3.432   0.502   3.392 -0.9118 -1.3426 -0.0931
   83MOL   C15413438   3.157   0.621   3.244  0.4758 -0.3725 -0.9969
   83MOL   C15513439   3.013   0.579   3.223  0.6546  0.8122 -0.4552
   83MOL   N15613440   2.942   0.691   3.167 -0.0574 -0.0627 -0.0123
   83MOL   H15713441   3.153   0.698   3.321  2.1821 -0.7177 -0.5416
   83MOL   H15813442   3.193   0.664   3.150 -0.5216  1.6765 -0.4484
   83MOL   H15913443   2.956   0.561   3.314  0.6924  0.4760 -0.4996
   83MOL   H16013444   2.863   0.672   3.107  0.3159 -2.8990  0.3118
   83MOL   H16113445   2.909   0.754   3.239  0.9416  0.1439  0.2849
   83MOL   H16213446   2.994   0.490   3.164  0.5169  0.5733 -0.0540
   84MOL     C113447   0.030   6.086   4.375 -0.0431  0.0932  0.4182
   84MOL     C213448   0.152   6.025   4.303 -0.0544  0.2542 -0.5810
   84MOL     N313449   0.233   6.137   4.245  0.3164  0.1938 -0.1254
   84MOL     H413450   7.261   6.158   4.306  2.2826  0.3591 -0.8985
   84MOL     H513451   0.060   6.136   4.467 -0.3636  1.8650 -0.4232
   84MOL     H613452   0.111   5.959   4.227  1.3755 -0.0017 -1.1436
   84MOL     H713453   0.319   6.139   4.298  0.5348  0.0734 -0.4770
   84MOL     H813454   0.265   6.095   4.159 -0.1229 -0.8781  0.2123
   84MOL     H913455   7.230   6.011   4.396  0.3214 -0.3047  0.3361
   84MOL    C1013456   0.245   5.943   4.387  0.1077  0.4545 -0.8740
   84MOL    C1113457   0.183   5.810   4.439 -0.3442 -0.0155 -0.7374
   84MOL    N1213458   0.193   5.710   4.333  0.1438  0.1361  0.1641
   84MOL    H1313459   0.342   5.922   4.343 -0.7364  0.8207 -2.9784
   84MOL    H1413460   0.270   6.007   4.472  3.0855  0.9032 -2.0346
   84MOL    H1513461   0.077   5.831   4.452 -0.1546  0.1256  0.6569
   84MOL    H1613462   0.150   5.619   4.339  0.1211  0.1441  0.1150
   84MOL    H1713463   0.292   5.694   4.321  0.2139 -0.5419  1.5047
   84MOL    C1813464   0.229   5.754   4.577  0.1537 -0.1826 -0.7029
   84MOL    C1913465   0.219   5.841   4.705 -0.0774  0.3492  0.5087
   84MOL    N2013466   0.083   5.841   4.745  0.3244  0.5333  0.2461
   84MOL    H2113467   0.190   5.654   4.593  0.2959 -0.0270  0.6472
   84MOL    H2213468   0.334   5.743   4.551  0.6917  2.9047 -0.0274
   84MOL    H2313469   0.258   5.939   4.677  2.8055 -0.7934  0.4354
   84MOL    H2413470   0.056   5.745   4.729 -3.1369  1.8101 -2.2441
   84MOL    H2513471   0.068   5.844   4.845 -0.4193 -1.3301  0.2110
   84MOL    C2613472   0.302   5.769   4.816 -0.1033 -0.7008  0.3832
   84MOL    C2713473   0.456   5.772   4.804  0.0762 -0.6076  0.3837
   84MOL    N2813474   0.509   5.910   4.793  0.3168  0.4804  0.1211
   84MOL    H2913475   0.279   5.807   4.915  0.8112 -0.5879  0.5595
   84MOL    H3013476   0.259   5.670   4.830  1.8023 -1.7772 -1.1031
   84MOL    H3113477   0.485   5.718   4.715 -0.1216  0.5402 -0.3911
   84MOL    H3213478   0.486   5.966   4.874  1.8247 -1.4552  1.9290
   84MOL    H3313479   0.609   5.905   4.806  0.4980  0.6346 -1.1437
   84MOL    C3413480   0.529   5.692   4.913  0.4669  0.7138 -0.5136
   84MOL    C3513481   0.583   5.563   4.851  0.0750 -0.2498  0.5614
   84MOL    N3613482   0.674   5.505   4.948 -0.1064  0.4411  0.1357
   84MOL    H3713483   0.598   5.761   4.963  1.0045  0.2957 -0.6735
   84MOL    H3813484   0.468   5.673   5.001 -2.4725  0.4629 -2.5348
   84MOL    H3913485   0.645   5.586   4.765  2.6898  1.1755  2.7658
   84MOL    H4013486   0.744   5.574   4.973 -0.8470  0.2581  2.8812
   84MOL    H4113487   0.625   5.473   5.030  0.1806  0.1355  0.1948
   84MOL    C4213488   0.487   5.453   4.797  0.5244  0.1453 -0.1605
   84MOL    C4313489   0.552   5.328   4.728 -0.0937  0.0949 -0.3265
   84MOL    N4413490   0.457   5.218   4.713  0.2242  0.3267 -0.5519
   84MOL    H4513491   0.436   5.429   4.890  0.9148  1.4254  0.3867
   84MOL    H4613492   0.418   5.503   4.729 -0.1750  1.9690  1.8399
   84MOL    H4713493   0.633   5.293   4.791  0.0855  0.9206 -0.1013
   84MOL    H4813494   0.452   5.151   4.789 -2.1802 -1.6255 -2.3553
   84MOL    H4913495   0.502   5.154   4.648 -0.2303  0.4939 -1.0279
   84MOL    C5013496   0.621   5.363   4.594 -0.1783 -0.1728 -0.2249
   84MOL    C5113497   0.656   5.257   4.481 -0.6798 -0.1743  0.4381
   84MOL    N5213498   0.687   5.322   4.355 -0.4205 -0.0982 -0.6001
   84MOL    H5313499   0.558   5.432   4.537  1.0956  0.2054 -1.1884
   84MOL    H5413500   0.709   5.422   4.622 -1.2080  1.2921  0.0063
   84MOL    H5513501   0.562   5.203   4.468 -1.6542  2.3118 -3.9998
   84MOL    H5613502   0.787   5.326   4.358 -0.5210  1.7980  1.4657
   84MOL    H5713503   0.665   5.256   4.282  0.1029  0.0061 -0.8526
   84MOL    C5813504   0.768   5.150   4.506  0.7073  0.8265 -0.0620
   84MOL    C5913505   0.757   5.069   4.640 -0.5409  0.1416 -0.3042
   84MOL    N6013506   0.636   4.991   4.610 -0.3253  0.6336  0.0526
   84MOL    H6113507   0.757   5.078   4.424  0.0604 -0.2837  0.9921
   84MOL    H6213508   0.868   5.192   4.495  0.9585  0.8077  2.0044
   84MOL    H6313509   0.738   5.127   4.731 -2.0001 -0.0526 -0.4864
   84MOL    H6413510   0.602   4.957   4.699  0.3722 -0.6343 -0.1620
   84MOL    H6513511   0.652   4.919   4.542  3.4707  0.6544  0.8478
   84MOL    C6613512   0.882   4.987   4.675  0.1091  0.3855 -0.0900
   84MOL    C6713513   0.955   5.042   4.798 -0.0262 -0.1662  0.1756
   84MOL    N6813514   1.049   4.952   4.849  0.4001 -0.1717 -0.3840
   84MOL    H6913515   0.853   4.883   4.687 -0.6099  0.9175  3.5196
   84MOL    H7013516   0.946   4.991   4.587  0.1359 -1.4993 -0.1816
   84MOL    H7113517   0.882   5.053   4.878  0.1244 -0.8996  0.4158
   84MOL    H7213518   1.134   4.950   4.794  1.2485 -0.3571  0.9143
   84MOL    H7313519   1.072   4.986   4.941  3.9423  0.3302 -1.3622
   84MOL    C7413520   1.035   5.173   4.763 -0.1041  0.4207 -0.1949
   84MOL    C7513521   0.952   5.302   4.763 -0.0235  0.2003 -0.1665
   84MOL    N7613522   0.889   5.310   4.891 -0.0677  0.0135 -0.9160
   84MOL    H7713523   1.116   5.184   4.836 -1.6119  0.2859  1.5165
   84MOL    H7813524   1.089   5.153   4.670 -0.9895 -1.7054 -0.2769
   84MOL    H7913525   0.873   5.287   4.689 -1.9155 -0.7913  1.9867
   84MOL    H8013526   0.816   5.379   4.877 -1.8425 -1.8461 -1.0875
   84MOL    H8113527   0.833   5.231   4.918  0.7355 -0.9852 -2.1305
   84MOL    C8213528   1.041   5.428   4.747 -0.2047  0.3000  0.6157
   84MOL    C8313529   1.128   5.429   4.618 -0.0961  0.0870 -0.1867
   84MOL    N8413530   1.044   5.468   4.504 -0.2853  0.4365 -0.3882
   84MOL    H8513531   0.973   5.512   4.748 -1.0199 -0.3353 -0.8866
   84MOL    H8613532   1.108   5.431   4.833 -0.2334 -1.2295  0.7107
   84MOL    H8713533   1.174   5.334   4.591  1.1544  0.6603 -0.1120
   84MOL    H8813534   1.101   5.481   4.422  1.0223  3.4631  0.9342
   84MOL    H8913535   1.012   5.563   4.520  1.9981  1.2540 -0.5574
   84MOL    C9013536   1.255   5.520   4.627 -0.8874  0.7226 -0.7516
   84MOL    C9113537   1.370   5.474   4.730  0.0766 -0.7994 -0.1097
   84MOL    N9213538   1.471   5.418   4.650 -0.1392  0.1639 -0.4608
   84MOL    H9313539   1.294   5.508   4.526 -0.0572 -0.9584 -0.2322
   84MOL    H9413540   1.235   5.627   4.620  2.2309  1.3739 -0.6063
   84MOL    H9513541   1.327   5.396   4.792  2.9761 -0.2151  2.7646
   84MOL    H9613542   1.438   5.326   4.627 -0.0148  0.3545 -1.3974
   84MOL    H9713543   1.554   5.407   4.706 -0.1388  0.0454 -0.4858
   84MOL    C9813544   1.425   5.585   4.829 -0.0304  0.1015  0.0084
   84MOL    C9913545   1.476   5.527   4.961  0.2160  0.0841 -0.2303
   84MOL   N10013546   1.564   5.416   4.945 -0.2969 -0.2798 -0.1798
   84MOL   H10113547   1.510   5.634   4.782 -1.1617  1.7700 -0.3586
   84MOL   H10213548   1.352   5.664   4.845 -0.4791 -0.2843 -0.1051
   84MOL   H10313549   1.392   5.489   5.020 -0.5718  0.9839 -0.7617
   84MOL   H10413550   1.635   5.443   4.879 -2.7281  2.3406 -1.8889
   84MOL   H10513551   1.519   5.332   4.913 -1.7956 -0.1712  1.5174
   84MOL   C10613552   1.544   5.629   5.053  0.7623 -0.0418  0.0977
   84MOL   C10713553   1.456   5.676   5.168  0.2978  0.3379 -0.2568
   84MOL   N10813554   1.527   5.758   5.270  0.2450 -0.5454 -0.8629
   84MOL   H10913555   1.638   5.597   5.099  0.1743 -1.2534  0.4643
   84MOL   H11013556   1.579   5.715   4.996  2.2230 -0.8238 -0.2180
   84MOL   H11113557   1.427   5.587   5.224 -1.0318  0.2606 -1.0619
   84MOL   H11213558   1.557   5.848   5.236  1.8088 -0.8128 -0.2247
   84MOL   H11313559   1.610   5.712   5.304 -0.1304 -0.8918 -0.3967
   84MOL   C11413560   1.330   5.755   5.124  0.0162 -0.0806  0.3375
   84MOL   C11513561   1.195   5.697   5.090  0.8593  0.2956  0.3619
   84MOL   N11613562   1.131   5.651   5.209  0.8188  0.1927 -0.4059
   84MOL   H11713563   1.315   5.809   5.217  2.8070 -2.1495  2.0445
   84MOL   H11813564   1.372   5.814   5.042  0.3059 -1.8676 -0.8282
   84MOL   H11913565   1.201   5.626   5.007  0.5605  0.3535  0.2898
   84MOL   H12013566   1.155   5.714   5.284  0.8754  0.3786 -0.5778
   84MOL   H12113567   1.146   5.556   5.237  0.7117  0.5316  0.8211
   84MOL   C12213568   1.107   5.813   5.032 -0.6613 -0.3677  0.1196
   84MOL   C12313569   0.991   5.776   4.934 -0.7593 -1.2825  0.8552
   84MOL   N12413570   0.881   5.714   5.013  1.0120  0.3113  0.1945
   84MOL   H12513571   1.074   5.887   5.105  0.9946  0.7557 -0.2374
   84MOL   H12613572   1.181   5.868   4.974 -0.1242  1.1578  2.1733
   84MOL   H12713573   1.023   5.699   4.864 -1.9215 -1.0888  0.0903
   84MOL   H12813574   0.910   5.622   5.041 -1.4900 -0.6985 -0.4216
   84MOL   H12913575   0.887   5.768   5.098 -0.8207  1.7486 -0.5536
   84MOL   C13013576   0.929   5.906   4.862  0.3561 -0.4291  0.1167
   84MOL   C13113577   0.863   5.878   4.728  0.2226 -0.1799  0.0005
   84MOL   N13213578   0.811   6.002   4.674 -0.1250  0.6637  0.1491
   84MOL   H13313579   0.848   5.950   4.921  0.8779 -0.6845  1.0415
   84MOL   H13413580   1.002   5.986   4.849 -1.2575  1.5571  2.6422
   84MOL   H13513581   0.780   5.809   4.742 -0.1541  0.1401 -0.5786
   84MOL   H13613582   0.742   5.987   4.602  2.5663 -0.1069 -2.3812
   84MOL   H13713583   0.766   6.052   4.749  1.1693  0.4458  1.0829
   84MOL   C13813584   0.961   5.820   4.620 -0.5562  0.6229  0.7366
   84MOL   C13913585   0.905   5.792   4.479  0.7575  0.0139  0.2982
   84MOL   N14013586   1.014   5.731   4.404 -0.5339  0.6557  0.0722
   84MOL   H14113587   1.052   5.881   4.619  0.0192 -0.2257  0.3559
   84MOL   H14213588   1.015   5.737   4.667  0.6762  0.8809 -0.1769
   84MOL   H14313589   0.892   5.891   4.433 -0.9159 -0.9306 -1.3446
   84MOL   H14413590   1.099   5.776   4.435  0.4819 -0.9104 -0.3751
   84MOL   H14513591   1.007   5.730   4.304 -0.8740  0.1561  0.0975
   84MOL   C14613592   0.774   5.704   4.476  0.0734  0.5382  0.6167
   84MOL   C14713593   0.700   5.735   4.344 -0.0703  0.3122  0.1348
   84MOL   N14813594   0.607   5.631   4.338  0.2464  0.0663 -0.1698
   84MOL   H14913595   0.790   5.598   4.499  1.1687  1.0191  2.1676
   84MOL   H15013596   0.706   5.742   4.551 -0.9809  1.5064 -0.8046
   84MOL   H15113597   0.777   5.723   4.267  0.0486 -0.7342  0.4048
   84MOL   H15213598   0.554   5.633   4.252 -1.2132 -2.2080  0.6296
   84MOL   H15313599   0.654   5.542   4.341  0.0105 -0.0453  0.2210
   84MOL   C15413600   0.622   5.869   4.336 -0.2510 -0.3372 -0.5028
   84MOL   C15513601   0.704   5.996   4.298  0.6785 -0.1618 -0.5125
   84MOL   N15613602   0.617   6.095   4.233  0.0974 -0.6766 -0.3506
   84MOL   H15713603   0.546   5.866   4.258  1.3584 -2.6919 -2.0577
   84MOL   H15813604   0.575   5.883   4.433 -1.0940 -2.1890 -0.6107
   84MOL   H15913605   0.774   5.970   4.219  1.8325 -0.3467  0.5658
   84MOL   H16013606   0.671   6.179   4.214 -0.0658 -0.8493 -1.5870
   84MOL   H16113607   0.578   6.068   4.145 -0.7615 -0.8488  0.0819
   84MOL   H16213608   0.761   6.034   4.383  3.2839 -2.3726 -1.2260
   85MOL     C113609   3.808   4.075   0.125  0.0881 -0.3502 -0.7577
   85MOL     C213610   3.798   3.979   0.003  0.3366  0.1068  0.0530
   85MOL     N313611   3.753   4.055   7.164  0.0820  0.0118  0.3078
   85MOL     H413612   3.704   4.104   0.137  0.5637  0.7569  1.0299
   85MOL     H513613   3.860   4.164   0.091 -0.2047  0.6692  1.3557
   85MOL     H613614   3.723   3.902   0.020 -0.8871  0.6705 -2.5990
   85MOL     H713615   3.780   3.990   7.091  1.6595 -0.1451  1.0161
   85MOL     H813616   3.820   4.129   7.147 -1.0146  0.7749 -0.8026
   85MOL     H913617   3.840   4.032   0.221 -0.4007  1.0281  0.0348
   85MOL    C1013618   3.926   3.914   7.239 -0.3399 -0.0835 -0.1095
   85MOL    C1113619   3.904   3.772   7.180 -0.1228  0.1550  0.3632
   85MOL    N1213620   3.989   3.734   7.072 -0.4311  0.2388 -0.1067
   85MOL    H1313621   3.975   3.977   7.165  1.2010  1.1892  1.9502
   85MOL    H1413622   3.979   3.907   0.058 -1.9625 -1.3843  0.7170
   85MOL    H1513623   3.806   3.749   7.140 -0.3525 -0.4757  1.2642
   85MOL    H1613624   3.973   3.635   7.061 -2.3424  0.6382 -1.0453
   85MOL    H1713625   4.089   3.737   7.089 -0.6735 -2.3921  2.0854
   85MOL    C1813626   3.927   3.658   0.014 -0.4225 -0.0490  0.2416
   85MOL    C1913627   3.860   3.669   0.155 -0.6476 -0.0112  0.2742
   85MOL    N2013628   3.716   3.668   0.132 -0.4140  0.2544 -0.3968
   85MOL    H2113629   3.881   3.572   7.241  0.7436  0.7287 -2.3563
   85MOL    H2213630   4.035   3.643   0.017 -0.2894  0.3705 -1.5172
   85MOL    H2313631   3.890   3.756   0.214 -1.2206  1.2012 -1.1783
   85MOL    H2413632   3.677   3.618   0.210  1.6484  1.3255  1.3532
   85MOL    H2513633   3.679   3.760   0.148 -2.0403 -0.1869 -1.5174
   85MOL    C2613634   3.901   3.554   0.249  0.0934  0.0338 -0.3261
   85MOL    C2713635   4.050   3.547   0.287 -0.6943 -0.4346 -0.9338
   85MOL    N2813636   4.077   3.648   0.389 -0.1398 -0.4747 -0.2378
   85MOL    H2913637   3.841   3.568   0.339  0.7578 -0.5290  0.2227
   85MOL    H3013638   3.881   3.454   0.209 -0.2479  0.5885 -1.5637
   85MOL    H3113639   4.113   3.572   0.202 -1.6841 -0.4121 -1.6673
   85MOL    H3213640   4.177   3.644   0.402  0.0532 -0.2386 -1.5928
   85MOL    H3313641   4.059   3.741   0.354  1.6343  0.3618  0.9609
   85MOL    C3413642   4.091   3.410   0.339  0.7417  0.1121  0.1411
   85MOL    C3513643   4.130   3.309   0.239 -0.9848  0.7737  0.8399
   85MOL    N3613644   4.271   3.333   0.215  0.1250  0.2248  0.0653
   85MOL    H3713645   4.161   3.411   0.423  1.0321  1.4143 -0.0959
   85MOL    H3813646   4.001   3.371   0.387 -0.6744  1.5272 -1.3077
   85MOL    H3913647   4.077   3.332   0.147  0.4711 -0.6427 -0.3837
   85MOL    H4013648   4.282   3.326   0.115  2.8433  0.9482  0.2589
   85MOL    H4113649   4.289   3.432   0.230  1.8906  0.0234 -0.6896
   85MOL    C4213650   4.112   3.155   0.271 -0.1070 -0.0251 -0.0541
   85MOL    C4313651   4.103   3.057   0.150 -0.4035  0.0082  0.0814
   85MOL    N4413652   4.114   2.916   0.200  0.3119  0.1532  0.0444
   85MOL    H4513653   4.187   3.125   0.344  1.7211  1.3944 -1.3010
   85MOL    H4613654   4.018   3.152   0.326  0.7000  1.0858  1.4119
   85MOL    H4713655   4.196   3.077   0.095  0.3660  0.4914  1.5304
   85MOL    H4813656   4.051   2.909   0.279  1.2438 -0.8419  0.7212
   85MOL    H4913657   4.203   2.904   0.246 -0.4027 -0.6265  1.2588
   85MOL    C5013658   3.973   3.061   0.070  0.6118 -1.0565 -0.0327
   85MOL    C5113659   3.972   3.148   7.222 -0.4493 -0.4010  0.2374
   85MOL    N5213660   4.061   3.089   7.124  0.3163 -0.6655  0.3210
   85MOL    H5313661   3.943   2.961   0.039 -1.9510 -0.8979  1.7511
   85MOL    H5413662   3.894   3.092   0.139  0.6163 -0.5648 -0.2464
   85MOL    H5513663   4.022   3.244   7.237  0.6939 -0.6086 -1.9697
   85MOL    H5613664   4.154   3.077   7.162 -0.3056 -0.6815  1.8909
   85MOL    H5713665   4.036   2.992   7.110  0.2703 -0.8368  1.5420
   85MOL    C5813666   3.827   3.178   7.163 -0.5918  0.0682 -0.0859
   85MOL    C5913667   3.746   3.279   7.248  0.3983 -0.1591  0.5154
   85MOL    N6013668   3.702   3.386   7.159 -0.1448  0.2451 -0.0860
   85MOL    H6113669   3.820   3.214   7.061 -0.4320 -2.3290 -0.9618
   85MOL    H6213670   3.777   3.082   7.153  1.9140 -1.2619 -0.3507
   85MOL    H6313671   3.817   3.318   0.045  1.4814  0.6645 -0.9407
   85MOL    H6413672   3.601   3.384   7.167 -0.2830 -2.1829 -1.9485
   85MOL    H6513673   3.723   3.476   7.201 -1.2086  0.6236 -0.3373
   85MOL    C6613674   3.622   3.219   0.037  0.5598  0.5334  0.7762
   85MOL    C6713675   3.584   3.246   0.182  0.5255 -0.8545  0.3313
   85MOL    N6813676   3.535   3.385   0.190 -0.8198  0.1566  0.2334
   85MOL    H6913677   3.532   3.221   7.253  0.9156 -0.5850  0.1779
   85MOL    H7013678   3.646   3.113   0.027  0.7470  0.6669 -0.2310
   85MOL    H7113679   3.673   3.248   0.246  0.0503  2.6723  0.9859
   85MOL    H7213680   3.606   3.450   0.160 -0.4117  0.1399  1.1293
   85MOL    H7313681   3.454   3.393   0.130 -0.6462 -0.9908 -0.1566
   85MOL    C7413682   3.469   3.158   0.238  0.0334 -0.1976  0.1406
   85MOL    C7513683   3.432   3.177   0.392  0.0073 -0.5838  0.2375
   85MOL    N7613684   3.320   3.094   0.424 -0.5187 -0.4098 -0.1871
   85MOL    H7713685   3.375   3.167   0.184  1.2933 -0.4569 -2.1483
   85MOL    H7813686   3.501   3.053   0.234  1.6786  0.1743  2.3155
   85MOL    H7913687   3.402   3.282   0.399  0.1419 -0.4872 -0.5724
   85MOL    H8013688   3.323   3.003   0.380 -0.7142 -0.1515 -0.7401
   85MOL    H8113689   3.229   3.127   0.395 -0.0471  0.6374 -0.5206
   85MOL    C8213690   3.539   3.128   0.488  0.2457 -0.3381 -0.8112
   85MOL    C8313691   3.483   3.102   0.629  0.3562  0.0534 -0.1897
   85MOL    N8413692   3.584   3.043   0.713 -0.1647  0.4703  0.1628
   85MOL    H8513693   3.587   3.038   0.450  0.5493 -0.1857 -0.7958
   85MOL    H8613694   3.617   3.204   0.493  0.1722 -0.2919 -0.3613
   85MOL    H8713695   3.407   3.023   0.630  0.2045  0.2063  0.7225
   85MOL    H8813696   3.609   2.947   0.690 -1.1513  0.1203  0.5526
   85MOL    H8913697   3.541   3.042   0.804 -0.7310  1.1977 -0.0890
   85MOL    C9013698   3.417   3.229   0.701 -0.2031 -0.0758 -0.6386
   85MOL    C9113699   3.296   3.204   0.802 -0.4100 -0.1543 -0.2036
   85MOL    N9213700   3.174   3.206   0.722 -0.6119 -0.3222  0.1583
   85MOL    H9313701   3.495   3.275   0.761 -0.9938  0.8791 -0.3363
   85MOL    H9413702   3.387   3.308   0.632 -0.8398 -0.1060 -0.4029
   85MOL    H9513703   3.288   3.292   0.866 -1.2390  0.0448 -0.5704
   85MOL    H9613704   3.171   3.121   0.668 -0.9780  0.6729 -1.4085
   85MOL    H9713705   3.198   3.281   0.658  0.5214  0.4966  1.4931
   85MOL    C9813706   3.305   3.080   0.891  0.9321 -0.1500  0.3234
   85MOL    C9913707   3.212   3.077   1.013  0.2761  0.3044 -0.4882
   85MOL   N10013708   3.088   3.036   0.942  0.6755 -0.1027  0.1199
   85MOL   H10113709   3.289   2.993   0.827  0.4532 -0.0009  0.2383
   85MOL   H10213710   3.406   3.078   0.932  1.5586  1.9427 -1.0044
   85MOL   H10313711   3.206   3.171   1.068 -0.4427  0.5377 -0.9477
   85MOL   H10413712   3.097   3.091   0.858  2.6917 -0.4867  0.0582
   85MOL   H10513713   3.072   2.938   0.924  0.1417  0.4142 -2.3353
   85MOL   C10613714   3.249   2.964   1.110 -0.3630  0.2903  0.9067
   85MOL   C10713715   3.275   3.010   1.253 -0.3096 -0.5457  0.3298
   85MOL   N10813716   3.268   2.891   1.337  0.5647 -0.1031 -0.1502
   85MOL   H10913717   3.184   2.877   1.112  1.9843 -1.6626 -2.4804
   85MOL   H11013718   3.335   2.911   1.069 -0.9036  0.0226  0.1184
   85MOL   H11113719   3.197   3.085   1.266 -1.3400 -1.5470  0.0066
   85MOL   H11213720   3.288   2.915   1.433 -0.5160  0.5056 -0.0720
   85MOL   H11313721   3.173   2.855   1.336 -1.2502  4.3291 -0.0995
   85MOL   C11413722   3.416   3.070   1.264 -0.3682  0.2346 -0.0291
   85MOL   C11513723   3.439   3.175   1.379 -0.0287 -0.1364  0.9191
   85MOL   N11613724   3.586   3.199   1.385 -1.2178  0.1892 -0.2136
   85MOL   H11713725   3.505   3.007   1.265  0.1388  0.9160 -1.3466
   85MOL   H11813726   3.434   3.130   1.176  1.9157  2.7114  2.0374
   85MOL   H11913727   3.408   3.120   1.468 -0.1686 -3.9535 -1.3894
   85MOL   H12013728   3.641   3.115   1.399 -1.7915 -0.0705  0.4880
   85MOL   H12113729   3.624   3.257   1.458 -2.0482 -0.0415  0.4130
   85MOL   C12213730   3.364   3.302   1.354  0.5003 -0.3551 -0.3658
   85MOL   C12313731   3.339   3.384   1.480  0.0744 -0.5199  0.7078
   85MOL   N12413732   3.360   3.528   1.459  0.9703  0.4351  0.0104
   85MOL   H12513733   3.433   3.353   1.287  0.8363  0.9503  0.9365
   85MOL   H12613734   3.273   3.282   1.298 -0.0328 -2.0239  1.0386
   85MOL   H12713735   3.402   3.343   1.559  1.0929  0.3908  0.3730
   85MOL   H12813736   3.322   3.565   1.373  0.2115  2.2265  1.0944
   85MOL   H12913737   3.458   3.545   1.439  0.6091  3.6660  0.7583
   85MOL   C13013738   3.193   3.358   1.527  0.2099  0.3345 -0.0253
   85MOL   C13113739   3.155   3.223   1.596 -0.1999 -0.3098  0.2319
   85MOL   N13213740   3.217   3.214   1.724 -0.0588  1.3111 -0.0786
   85MOL   H13313741   3.172   3.435   1.601 -0.1042 -0.6480  0.9168
   85MOL   H13413742   3.128   3.371   1.439 -0.2983 -0.9980  0.1448
   85MOL   H13513743   3.182   3.141   1.530 -2.2292  0.1924 -1.2934
   85MOL   H13613744   3.314   3.224   1.697 -0.3162 -0.1203 -1.6165
   85MOL   H13713745   3.211   3.116   1.747  1.4960  0.9192 -1.2344
   85MOL   C13813746   3.002   3.216   1.620  1.0116 -0.2319 -0.3742
   85MOL   C13913747   2.905   3.198   1.498  0.7544 -0.1474  0.6560
   85MOL   N14013748   2.929   3.068   1.440 -0.1803  0.4168 -0.3343
   85MOL   H14113749   2.999   3.126   1.681 -1.3856 -1.0546 -1.6417
   85MOL   H14213750   2.971   3.296   1.688  1.7844 -0.3723  0.1491
   85MOL   H14313751   2.924   3.271   1.420  1.7443 -0.1644  0.8859
   85MOL   H14413752   2.852   3.059   1.374 -1.3586  0.7383  0.9757
   85MOL   H14513753   3.012   3.089   1.386  0.1670  0.8636  0.3645
   85MOL   C14613754   2.759   3.203   1.537  0.4567 -0.4636  0.3366
   85MOL   C14713755   2.692   3.335   1.536 -0.3329  0.2984  0.2446
   85MOL   N14813756   2.711   3.392   1.402  0.0316  0.4595 -0.1289
   85MOL   H14913757   2.691   3.145   1.475 -0.5798 -0.5016  1.4811
   85MOL   H15013758   2.725   3.158   1.631  0.1778 -2.3228 -0.6487
   85MOL   H15113759   2.748   3.397   1.606 -1.3740  1.6347 -0.0806
   85MOL   H15213760   2.808   3.388   1.375 -0.2140 -0.2668 -0.9120
   85MOL   H15313761   2.680   3.317   1.342  0.3235  1.1955 -1.2130
   85MOL   C15413762   2.543   3.337   1.584 -0.1661  0.6284 -0.1101
   85MOL   C15513763   2.530   3.341   1.736 -0.0077 -0.2403  1.1520
   85MOL   N15613764   2.400   3.351   1.781 -0.5623  0.1419  0.4582
   85MOL   H15713765   2.494   3.427   1.546  0.4754  1.0355  0.0089
   85MOL   H15813766   2.494   3.255   1.531  1.8751 -0.6915 -0.0014
   85MOL   H15913767   2.581   3.429   1.775  1.5906 -0.7721  0.3149
   85MOL   H16013768   2.375   3.444   1.751 -0.6071  0.2393  0.7908
   85MOL   H16113769   2.342   3.289   1.727  1.4539 -1.8858  0.5498
   85MOL   H16213770   2.578   3.258   1.788 -0.1809 -0.8108  0.4161
   86MOL     C113771   1.625   6.071   7.216  0.0638  0.2112  0.2691
   86MOL     C213772   1.677   5.950   7.128  0.3983 -0.2480 -0.7571
   86MOL     N313773   1.824   5.940   7.158  0.0265  0.4676  0.1192
   86MOL     H413774   1.516   6.076   7.221 -0.0553 -0.8583 -0.7961
   86MOL     H513775   1.656   6.162   7.164 -0.1189 -1.9780 -3.9469
   86MOL     H613776   1.662   5.965   7.021  2.0814  0.6871 -0.8641
   86MOL     H713777   1.874   6.028   7.163  1.7528 -0.3839 -1.3250
   86MOL     H813778   1.871   5.880   7.091 -2.2891 -0.3013 -0.8514
   86MOL     H913779   1.648   6.065   0.047 -1.7174 -0.8510  0.6119
   86MOL    C1013780   1.601   5.819   7.158 -0.0167 -0.6613  0.2620
   86MOL    C1113781   1.444   5.816   7.130 -0.2268 -0.7443  0.2820
   86MOL    N1213782   1.414   5.836   6.989 -0.5740 -0.0414  0.1182
   86MOL    H1313783   1.644   5.744   7.091  0.7943  0.0261  0.0030
   86MOL    H1413784   1.624   5.780   7.256  0.3335 -0.9112  0.0814
   86MOL    H1513785   1.403   5.906   7.177 -0.5753 -0.4888 -0.5034
   86MOL    H1613786   1.375   5.929   6.980 -1.2873 -0.5943 -3.1801
   86MOL    H1713787   1.333   5.781   6.964 -1.1124  0.7632  0.0876
   86MOL    C1813788   1.385   5.692   7.186 -0.2601  0.2782 -0.3280
   86MOL    C1913789   1.237   5.713   7.218 -0.1800 -0.4557  0.1299
   86MOL    N2013790   1.164   5.593   7.177 -0.3925  0.0942 -0.5681
   86MOL    H2113791   1.416   5.606   7.127  0.5750  0.5719 -0.3252
   86MOL    H2213792   1.441   5.677   0.003  2.6934  0.4353 -2.0494
   86MOL    H2313793   1.213   5.801   7.159  1.5653 -0.4489 -0.6171
   86MOL    H2413794   1.178   5.592   7.077  0.5313 -2.5549 -0.4535
   86MOL    H2513795   1.211   5.512   7.217 -3.4244 -0.8041  1.3424
   86MOL    C2613796   1.215   5.738   0.091  0.3542  0.3341 -0.2510
   86MOL    C2713797   1.255   5.881   0.144 -0.6945 -0.3321 -0.0430
   86MOL    N2813798   1.168   5.969   0.073  0.2413  0.3247 -0.4135
   86MOL    H2913799   1.113   5.715   0.121  0.2355  2.4876  1.1032
   86MOL    H3013800   1.271   5.661   0.145 -0.3370  0.5061  0.7088
   86MOL    H3113801   1.358   5.907   0.115 -1.6898  2.1242 -1.6045
   86MOL    H3213802   1.079   5.957   0.120  0.1215  1.4820 -0.3133
   86MOL    H3313803   1.153   5.935   7.255  1.0382  2.7715 -1.4686
   86MOL    C3413804   1.227   5.911   0.293 -0.0901  0.2420 -0.5728
   86MOL    C3513805   1.353   5.909   0.385  0.4597  0.0480 -0.9384
   86MOL    N3613806   1.319   5.912   0.526  0.5452 -0.3104 -0.4257
   86MOL    H3713807   1.181   6.007   0.315 -0.5831 -0.2493  0.5992
   86MOL    H3813808   1.165   5.831   0.334  0.3983 -0.3290 -0.9393
   86MOL    H3913809   1.406   6.000   0.356 -1.5089  1.4892 -0.0892
   86MOL    H4013810   1.260   5.993   0.543 -0.2451 -1.3587  2.1900
   86MOL    H4113811   1.270   5.832   0.564  1.0845  0.8915  3.0211
   86MOL    C4213812   1.446   5.790   0.370  0.0102 -0.0502 -0.0265
   86MOL    C4313813   1.584   5.785   0.455  0.2288  0.1559  0.4417
   86MOL    N4413814   1.624   5.643   0.452  0.0889  0.6105  0.5308
   86MOL    H4513815   1.388   5.700   0.392 -0.7164  0.1198 -1.1971
   86MOL    H4613816   1.482   5.799   0.268 -0.4388  0.6661 -0.1294
   86MOL    H4713817   1.565   5.813   0.559 -2.2397 -1.7927  0.5645
   86MOL    H4813818   1.542   5.586   0.465  0.4918 -0.7313 -2.5254
   86MOL    H4913819   1.691   5.614   0.521  1.2184 -0.0466 -0.8273
   86MOL    C5013820   1.700   5.872   0.390  0.4133  0.0216  0.0823
   86MOL    C5113821   1.693   6.025   0.377  0.7152  0.0428 -0.2000
   86MOL    N5213822   1.640   6.090   0.500 -0.1973  0.2880  1.0689
   86MOL    H5313823   1.787   5.861   0.455  2.5191 -0.3328 -2.6971
   86MOL    H5413824   1.720   5.838   0.289  1.2546 -0.3438  0.3674
   86MOL    H5513825   1.622   6.052   0.300  0.7796 -0.5296 -0.4661
   86MOL    H5613826   1.539   6.091   0.489  0.0963  2.0814 -1.8897
   86MOL    H5713827   1.658   6.020   0.570  0.9001  1.2346  1.7531
   86MOL    C5813828   1.833   6.084   0.327  0.0129  0.4588  0.0260
   86MOL    C5913829   1.833   6.227   0.278 -0.6049  0.4534  0.3883
   86MOL    N6013830   1.839   6.310   0.399 -0.0533  0.0473 -0.6711
   86MOL    H6113831   1.918   6.061   0.390  0.8155  0.3586 -1.0848
   86MOL    H6213832   1.847   6.028   0.234  0.7905 -0.6387  0.7924
   86MOL    H6313833   1.751   6.251   0.211 -1.0938 -0.0596  0.7995
   86MOL    H6413834   1.927   6.292   0.445  0.0637  0.1248 -0.8662
   86MOL    H6513835   1.764   6.274   0.457 -0.7176  1.9349 -0.2977
   86MOL    C6613836   1.963   6.258   0.207 -0.1963  0.2400 -0.3189
   86MOL    C6713837   1.969   6.379   0.119 -0.0178  0.4310  0.6341
   86MOL    N6813838   2.114   6.406   0.095  0.4170 -0.1256  0.7559
   86MOL    H6913839   2.041   6.265   0.283  0.9974  2.6487 -1.7212
   86MOL    H7013840   1.997   6.171   0.151  1.5668  0.0114  1.0558
   86MOL    H7113841   1.909   6.463   0.153 -2.7115 -0.3363 -1.9517
   86MOL    H7213842   2.172   6.402   0.177  0.6847 -1.6102  0.4999
   86MOL    H7313843   2.139   6.327   0.037 -0.0460  0.5670 -0.4160
   86MOL    C7413844   1.902   6.352   7.255  0.5786 -0.4276 -0.5719
   86MOL    C7513845   1.866   6.469   7.165 -0.7767  0.1347  0.5329
   86MOL    N7613846   1.879   6.433   7.031  0.4998 -0.1443  0.1172
   86MOL    H7713847   1.945   6.278   7.187  0.4768 -0.7894 -0.2460
   86MOL    H7813848   1.815   6.290   7.272  0.0656  0.6916  1.0310
   86MOL    H7913849   1.937   6.551   7.180  1.0654 -0.9032 -2.0640
   86MOL    H8013850   1.866   6.515   6.974  0.4237  1.3372  2.2019
   86MOL    H8113851   1.800   6.376   7.004  0.5827  0.0640 -0.5582
   86MOL    C8213852   1.729   6.525   7.184  0.2294 -0.3385 -0.4196
   86MOL    C8313853   1.691   6.587   0.042  0.2776  0.1241 -0.8984
   86MOL    N8413854   1.728   6.729   0.044  0.2419  0.0692 -0.0733
   86MOL    H8513855   1.709   6.601   7.108 -0.2636 -1.0183 -0.9784
   86MOL    H8613856   1.654   6.450   7.158  1.0541 -1.7200  1.0913
   86MOL    H8713857   1.732   6.541   0.132 -1.1780 -0.6752 -0.6262
   86MOL    H8813858   1.686   6.760   0.130  3.0615  0.2643  1.2867
   86MOL    H8913859   1.826   6.739   0.066 -0.4928 -0.0208  3.5025
   86MOL    C9013860   1.541   6.582   0.074  0.5707 -0.7296 -0.2964
   86MOL    C9113861   1.485   6.440   0.111 -0.1669  0.6979  0.0506
   86MOL    N9213862   1.536   6.427   0.254 -0.0895  0.2784  0.4895
   86MOL    H9313863   1.519   6.661   0.146 -1.3720 -0.2499 -1.3900
   86MOL    H9413864   1.484   6.625   7.267  0.2848  0.0261  0.2900
   86MOL    H9513865   1.526   6.356   0.055 -0.4550  2.7769 -3.3883
   86MOL    H9613866   1.519   6.331   0.280  0.0339  0.2312  0.3937
   86MOL    H9713867   1.636   6.429   0.267 -0.2757 -0.3945  2.0578
   86MOL    C9813868   1.335   6.430   0.115 -0.4400 -0.6066 -0.1537
   86MOL    C9913869   1.275   6.304   0.053  0.2597 -0.1409 -0.4338
   86MOL   N10013870   1.329   6.193   0.126 -0.4286 -0.2100  0.1185
   86MOL   H10113871   1.293   6.446   0.214  0.4846 -1.3185  0.3673
   86MOL   H10213872   1.308   6.513   0.049  0.0542 -1.0400 -0.9115
   86MOL   H10313873   1.310   6.290   7.227 -0.0990  1.3071 -0.7737
   86MOL   H10413874   1.257   6.123   0.137 -0.4201 -0.5722 -1.9957
   86MOL   H10513875   1.341   6.223   0.222  0.2975  0.3361 -0.1442
   86MOL   C10613876   1.123   6.306   0.064 -0.3811 -0.4633 -0.5548
   86MOL   C10713877   1.044   6.438   0.085 -0.1253  0.2699  0.8937
   86MOL   N10813878   0.987   6.465   7.225  0.0817 -0.1831 -0.8055
   86MOL   H10913879   1.082   6.244   7.261 -1.3250 -1.1702  0.4781
   86MOL   H11013880   1.100   6.248   0.153 -0.7664  1.1799  0.4417
   86MOL   H11113881   1.103   6.525   0.115 -0.8690  0.4248  1.9407
   86MOL   H11213882   0.960   6.562   7.235 -0.6270 -0.3723 -0.8381
   86MOL   H11313883   1.057   6.467   7.153 -0.2085 -1.0133 -1.1203
   86MOL   C11413884   0.918   6.431   0.176 -0.5234  0.2613  1.0689
   86MOL   C11513885   0.963   6.450   0.321 -0.4697  0.4860 -0.7472
   86MOL   N11613886   0.950   6.591   0.362 -0.2222  0.3899  0.6378
   86MOL   H11713887   0.839   6.501   0.151 -2.4786 -2.1549  0.3967
   86MOL   H11813888   0.881   6.331   0.157 -3.1810  1.2779  0.7634
   86MOL   H11913889   1.067   6.421   0.334 -0.6118 -0.4253 -1.5515
   86MOL   H12013890   1.042   6.632   0.353 -0.2427 -0.1778 -2.8963
   86MOL   H12113891   0.899   6.642   0.291 -0.4020 -2.3769 -1.2912
   86MOL   C12213892   0.874   6.359   0.414  0.1477  0.2588 -0.1262
   86MOL   C12313893   0.894   6.205   0.416  0.8779  0.1845 -0.0623
   86MOL   N12413894   1.012   6.179   0.496 -0.1696  0.4849  0.4131
   86MOL   H12513895   0.902   6.399   0.512  0.6950 -2.3933  0.8528
   86MOL   H12613896   0.769   6.381   0.400 -0.3084 -1.2830  0.6726
   86MOL   H12713897   0.910   6.169   0.314  0.8882 -0.4957  0.1785
   86MOL   H12813898   1.009   6.079   0.508  0.8441  0.3567 -0.3334
   86MOL   H12913899   0.995   6.218   0.588 -0.0637  1.0302  0.2054
   86MOL   C13013900   0.781   6.131   0.482  0.8452  0.1184 -0.0027
   86MOL   C13113901   0.661   6.123   0.382 -0.1471  0.5623 -0.1008
   86MOL   N13213902   0.689   6.024   0.275 -0.3189  0.3946  0.8542
   86MOL   H13313903   0.811   6.031   0.511  1.7569  0.2310 -0.5420
   86MOL   H13413904   0.748   6.184   0.571  2.0967  1.9089 -0.5858
   86MOL   H13513905   0.647   6.221   0.336 -0.6061 -0.0472 -1.2839
   86MOL   H13613906   0.763   6.055   0.213  1.1376 -0.9578  1.8794
   86MOL   H13713907   0.616   5.995   0.211  0.9565 -0.7960 -0.1082
   86MOL   C13813908   0.534   6.080   0.447  0.2508 -0.0828 -0.1299
   86MOL   C13913909   0.438   6.198   0.483 -0.1916  0.4112  0.5084
   86MOL   N14013910   0.309   6.144   0.521  0.5196 -0.9381 -0.0485
   86MOL   H14113911   0.477   6.007   0.389  0.2418  0.5751 -0.9490
   86MOL   H14213912   0.548   6.035   0.546  2.4873 -1.2647 -0.9409
   86MOL   H14313913   0.438   6.258   0.392 -1.9925 -0.2925  0.0317
   86MOL   H14413914   0.292   6.129   0.620  3.6608 -2.5537  0.3207
   86MOL   H14513915   0.240   6.211   0.490 -0.0052 -1.3958  0.1264
   86MOL   C14613916   0.488   6.287   0.592  0.3510 -0.7566  0.1813
   86MOL   C14713917   0.400   6.413   0.616 -0.0290  0.4889 -0.3940
   86MOL   N14813918   0.433   6.468   0.740 -0.3797 -0.8487  0.6888
   86MOL   H14913919   0.520   6.219   0.670 -0.2083 -1.9971 -0.6587
   86MOL   H15013920   0.588   6.313   0.556  0.0867  0.5268  0.3434
   86MOL   H15113921   0.294   6.388   0.624 -0.8510  4.2949  2.2344
   86MOL   H15213922   0.371   6.430   0.810  0.2800  1.3547  2.5393
   86MOL   H15313923   0.414   6.567   0.742  0.6641 -0.6265 -0.2460
   86MOL   C15413924   0.427   6.516   0.506  0.6560  0.6577 -0.0809
   86MOL   C15513925   0.322   6.517   0.398  0.3396  0.2920  0.6096
   86MOL   N15613926   0.378   6.591   0.286 -0.0997  0.8531 -0.6232
   86MOL   H15713927   0.419   6.621   0.533  1.2859  1.1659 -1.8079
   86MOL   H15813928   0.528   6.498   0.470 -0.2841 -1.0766 -1.9483
   86MOL   H15913929   0.227   6.554   0.435 -0.7354 -2.6685  0.9251
   86MOL   H16013930   0.311   6.630   0.221 -1.2175  1.1849  0.6952
   86MOL   H16113931   0.437   6.669   0.309  1.2498  0.2369 -1.8772
   86MOL   H16213932   0.295   6.419   0.358 -0.6937  0.4702  0.8743
   87MOL     C113933   0.060   5.783   6.700 -0.3807 -0.8679  0.3839
   87MOL     C213934   7.188   5.736   6.673  0.1840 -1.0169  0.4548
   87MOL     N313935   7.190   5.655   6.548 -0.4993 -0.0468  0.0791
   87MOL     H413936   0.109   5.720   6.774  0.4741 -0.6328  0.0223
   87MOL     H513937   0.049   5.886   6.734 -2.3329 -0.9514  0.0828
   87MOL     H613938   7.128   5.821   6.640  1.9506 -0.2733 -0.9729
   87MOL     H713939   7.242   5.570   6.561  1.1182  1.1396  1.6151
   87MOL     H813940   7.103   5.645   6.498 -0.1951 -0.1357 -0.4329
   87MOL     H913941   0.106   5.781   6.601 -2.1815 -0.3433 -0.4883
   87MOL    C1013942   7.117   5.653   6.778 -0.0045 -0.1217 -0.2190
   87MOL    C1113943   7.055   5.728   6.898  0.5118 -0.9495 -0.5698
   87MOL    N1213944   6.943   5.645   6.953 -0.3961  0.5191  0.4933
   87MOL    H1313945   7.029   5.606   6.735  0.7857 -2.2094  0.3572
   87MOL    H1413946   7.178   5.571   6.816  0.3073  0.7050  1.0812
   87MOL    H1513947   7.004   5.814   6.856  0.0765  0.5180  2.7989
   87MOL    H1613948   6.908   5.681   7.041  1.1148 -1.0838  1.7744
   87MOL    H1713949   6.867   5.630   6.887 -0.6733  0.8643  0.7301
   87MOL    C1813950   7.146   5.764   7.015 -0.2288 -0.3136 -0.1097
   87MOL    C1913951   7.098   5.883   7.092 -0.2861  1.1125  0.3512
   87MOL    N2013952   7.120   5.851   7.234 -0.0397  0.0594 -0.2107
   87MOL    H2113953   7.158   5.677   7.079 -1.5887 -2.1213 -2.2395
   87MOL    H2213954   7.248   5.779   6.981 -0.5298 -0.7734 -1.2177
   87MOL    H2313955   6.991   5.898   7.075 -0.4168 -1.4259 -1.4881
   87MOL    H2413956   7.220   5.865   7.239 -0.1597  0.0686  3.2071
   87MOL    H2513957   7.081   5.930   0.008  0.1948  1.5583 -2.3426
   87MOL    C2613958   7.183   6.009   7.063 -0.0183 -0.2146  0.1164
   87MOL    C2713959   7.099   6.136   7.104  0.1887  0.4274  0.4321
   87MOL    N2813960   7.176   6.246   7.165  0.3405  0.5574  0.0664
   87MOL    H2913961   0.003   6.010   7.115  0.6845 -0.4618 -1.1822
   87MOL    H3013962   7.200   6.010   6.956  0.8260 -1.7486  0.2240
   87MOL    H3113963   7.028   6.108   7.182 -1.3097  0.0387 -1.0358
   87MOL    H3213964   7.136   6.339   7.160 -2.2136 -0.5289 -0.7231
   87MOL    H3313965   7.252   6.262   7.101  0.2526 -1.2073 -0.5050
   87MOL    C3413966   7.014   6.188   6.981 -0.3833  0.3267  0.1945
   87MOL    C3513967   6.972   6.340   6.974 -0.6180 -0.5499  0.5331
   87MOL    N3613968   6.901   6.363   6.844  0.0629  0.3933 -0.1880
   87MOL    H3713969   7.072   6.176   6.889  0.2701 -0.0664  0.6517
   87MOL    H3813970   6.929   6.129   6.947 -0.4680 -1.0782  2.7376
   87MOL    H3913971   7.057   6.406   6.988 -0.1805 -1.1870  0.9118
   87MOL    H4013972   6.862   6.456   6.843 -1.2515 -0.1212  1.7449
   87MOL    H4113973   6.973   6.369   6.773 -0.0505 -0.9418 -0.4173
   87MOL    C4213974   6.864   6.372   7.082  1.4631  0.1785  0.5047
   87MOL    C4313975   6.812   6.511   7.087 -0.5985 -0.1653  1.1162
   87MOL    N4413976   6.691   6.521   7.170 -0.3080  0.3566 -0.0013
   87MOL    H4513977   6.778   6.308   7.063  0.1857  2.1810 -0.5291
   87MOL    H4613978   6.903   6.337   7.178  2.6004  1.6988  0.6055
   87MOL    H4713979   6.786   6.537   6.985 -0.5840  0.5202  1.2795
   87MOL    H4813980   6.720   6.489   7.262 -0.6424 -0.0418 -0.0325
   87MOL    H4913981   6.627   6.448   7.142 -0.2195 -0.3539  1.5711
   87MOL    C5013982   6.919   6.610   7.134  0.2298  0.2669  0.8493
   87MOL    C5113983   6.872   6.759   7.119  0.3243  0.0059 -1.0446
   87MOL    N5213984   6.940   6.839   7.220 -0.7283  0.2925 -0.1190
   87MOL    H5313985   6.935   6.599   7.241  1.0731 -1.3839  0.5602
   87MOL    H5413986   7.016   6.591   7.088 -1.1572 -1.6163 -1.3942
   87MOL    H5513987   6.765   6.769   7.135  0.7442  0.4571  1.7515
   87MOL    H5613988   6.946   6.940   7.220  1.7635  0.1825  0.3584
   87MOL    H5713989   6.925   6.797   0.034  2.5504  0.1993  0.4581
   87MOL    C5813990   6.913   6.827   6.986  0.3447 -0.6965 -0.3347
   87MOL    C5913991   6.847   6.755   6.861  0.4069  0.0791 -0.3512
   87MOL    N6013992   6.708   6.762   6.861  0.1421 -0.2319  0.0551
   87MOL    H6113993   6.882   6.931   6.989  2.2181 -0.1196 -0.3624
   87MOL    H6213994   7.021   6.834   6.975  0.1547  1.1315 -1.2327
   87MOL    H6313995   6.879   6.651   6.851 -1.3186 -0.5277  0.2791
   87MOL    H6413996   6.670   6.855   6.873 -2.0827 -1.2625  1.2700
   87MOL    H6513997   6.671   6.716   6.943  1.3093  0.2729  0.8880
   87MOL    C6613998   6.896   6.806   6.728  0.1718 -0.5673  0.4115
   87MOL    C6713999   7.045   6.752   6.700 -0.2216 -0.0900  0.3654
   87MOL    N6814000   7.024   6.639   6.610 -0.6843 -0.5320 -0.1357
   87MOL    H6914001   6.836   6.785   6.640  1.1717 -2.5278  0.1628
   87MOL    H7014002   6.904   6.914   6.722  0.7988 -0.6016  0.5769
   87MOL    H7114003   7.106   6.720   6.785  0.1815 -0.5630 -0.0956
   87MOL    H7214004   6.936   6.663   6.567  0.1081  0.8625 -1.0167
   87MOL    H7314005   6.989   6.558   6.658  0.2031 -0.6531  0.3324
   87MOL    C7414006   7.125   6.856   6.615 -0.3560  0.5733  0.0847
   87MOL    C7514007   7.157   6.995   6.674  0.2639 -0.3621  0.6179
   87MOL    N7614008   0.011   6.989   6.736  0.2677 -0.2387  0.0154
   87MOL    H7714009   7.214   6.804   6.577 -1.1271 -1.6463  1.2631
   87MOL    H7814010   7.058   6.874   6.531  0.5991  0.0649 -0.7989
   87MOL    H7914011   7.090   7.006   6.759 -0.7976 -0.7028 -0.1785
   87MOL    H8014012   7.271   6.911   6.798 -0.4353 -0.4521 -0.4276
   87MOL    H8114013   0.006   7.075   6.789  0.3451  1.0458 -2.0149
   87MOL    C8214014   7.148   7.106   6.566 -0.0726 -0.1246  0.4789
   87MOL    C8314015   7.042   7.215   6.596 -0.5600 -0.2637  0.0566
   87MOL    N8414016   7.104   0.029   6.693 -0.0834 -0.0262  0.3883
   87MOL    H8514017   7.247   7.144   6.543  1.5415 -2.5250  3.0903
   87MOL    H8614018   7.122   7.056   6.473  0.1191  2.3067 -0.9325
   87MOL    H8714019   6.955   7.173   6.646 -0.7639  0.6419  0.4717
   87MOL    H8814020   7.081   7.265   6.783 -0.8882 -0.3551  0.0395
   87MOL    H8914021   7.045   0.111   6.704 -1.8841 -1.1359 -0.9697
   87MOL    C9014022   6.998   0.027   6.477  0.1039 -0.3704  0.4687
   87MOL    C9114023   6.905   7.239   6.374  0.0468 -0.1132  0.2949
   87MOL    N9214024   6.767   0.016   6.396 -0.8156  0.5406 -0.1012
   87MOL    H9314025   6.956   0.126   6.500 -0.5929 -0.6628  0.4746
   87MOL    H9414026   7.089   0.057   6.427 -0.6675  2.1084  0.4650
   87MOL    H9514027   6.906   7.133   6.401 -1.7603 -0.3494 -0.4922
   87MOL    H9614028   6.729   7.272   6.488 -0.7962 -1.3016 -0.4771
   87MOL    H9714029   6.703   7.254   6.328  0.5348 -1.1056 -0.4949
   87MOL    C9814030   6.946   7.244   6.221 -0.3366 -0.2451  0.5507
   87MOL    C9914031   7.065   7.155   6.181 -0.3603  0.1329 -0.2996
   87MOL   N10014032   7.033   7.017   6.200  0.5551  0.4312 -0.0918
   87MOL   H10114033   6.864   7.204   6.162  1.4692  0.7280 -2.7570
   87MOL   H10214034   6.967   0.072   6.195 -3.2808 -0.0125 -1.1057
   87MOL   H10314035   7.142   7.171   6.257  1.1884 -0.7500 -1.6345
   87MOL   H10414036   7.118   6.968   6.223 -0.4521 -0.5759  1.6938
   87MOL   H10514037   6.976   7.013   6.284  1.9596 -1.9764  0.7757
   87MOL   C10614038   7.122   7.185   6.037 -1.3389  0.1114  0.1119
   87MOL   C10714039   7.275   7.194   6.024  0.1510  0.6431 -0.2572
   87MOL   N10814040   0.036   7.166   5.892 -0.0615  0.6960 -0.6485
   87MOL   H10914041   7.085   7.107   5.971 -0.6962  0.6779 -0.9215
   87MOL   H11014042   7.081   7.275   5.992  0.2647  0.4168 -0.7632
   87MOL   H11114043   0.046   7.111   6.077 -1.2418 -1.7301 -2.5918
   87MOL   H11214044   0.006   7.072   5.868  0.8029  0.0435  0.7554
   87MOL   H11314045   7.265   7.224   5.824 -0.1735  0.6406 -0.6189
   87MOL   C11414046   0.058   0.052   6.066 -0.1087  0.2243 -0.3297
   87MOL   C11514047   0.046   0.083   6.216  0.2707  0.1351  0.3320
   87MOL   N11614048   0.111   7.254   6.291  0.3454 -0.3091 -0.9964
   87MOL   H11714049   0.160   0.049   6.027 -0.4997  0.3076 -1.3648
   87MOL   H11814050   0.020   0.132   6.003  1.1875  1.4297  0.3719
   87MOL   H11914051   7.216   0.095   6.238  0.6864 -0.2496  2.6382
   87MOL   H12014052   0.212   7.248   6.281  0.3562 -2.0403 -0.0474
   87MOL   H12114053   0.101   7.273   6.389 -3.4681  0.9464 -1.5703
   87MOL   C12214054   0.123   0.214   6.246  0.5857  0.3050  0.0760
   87MOL   C12314055   0.031   0.325   6.308 -0.8871 -0.4668 -0.1906
   87MOL   N12414056   0.118   0.437   6.346  0.0780 -0.3207 -0.4881
   87MOL   H12514057   0.213   0.210   6.308  0.9745  1.7006 -0.3618
   87MOL   H12614058   0.174   0.246   6.155 -0.9187 -3.3864 -2.1223
   87MOL   H12714059   7.248   0.292   6.394 -1.0482 -1.0899 -0.5378
   87MOL   H12814060   0.189   0.413   6.414 -1.6842 -0.3825  1.4111
   87MOL   H12914061   0.071   0.513   6.393  0.8564  0.0853 -0.3643
   87MOL   C13014062   7.210   0.384   6.201 -0.1400  0.1125 -0.5370
   87MOL   C13114063   7.086   0.448   6.253 -0.2512 -0.1556 -0.1660
   87MOL   N13214064   7.019   0.522   6.150 -0.0690  0.2208  0.8255
   87MOL   H13314065   7.269   0.455   6.143 -0.5125  2.1189  1.4579
   87MOL   H13414066   7.186   0.303   6.133  0.8274 -0.1080 -0.6288
   87MOL   H13514067   7.113   0.513   6.336  1.2835 -0.6251 -0.2744
   87MOL   H13614068   6.919   0.514   6.165 -0.3530  1.9323 -0.0324
   87MOL   H13714069   7.030   0.494   6.054 -1.0529  0.8048  0.5235
   87MOL   C13814070   6.976   0.348   6.310 -0.3173  0.9031  0.2048
   87MOL   C13914071   6.873   0.418   6.401 -0.3852 -0.2533 -0.6377
   87MOL   N14014072   6.749   0.344   6.396  0.3058 -0.0896  0.0788
   87MOL   H14114073   6.940   0.298   6.220  3.0520  1.2032 -1.4006
   87MOL   H14214074   7.030   0.266   6.358 -1.7612 -0.6591 -0.8010
   87MOL   H14314075   6.863   0.520   6.365  1.0898  0.3241  0.5177
   87MOL   H14414076   6.767   0.251   6.432 -2.2095 -1.6650 -2.4789
   87MOL   H14514077   6.719   0.331   6.300 -1.3035 -0.9641  0.6722
   87MOL   C14614078   6.924   0.421   6.547 -0.2712  0.2718 -0.1503
   87MOL   C14714079   6.874   0.546   6.624 -0.6954 -0.2913  0.2367
   87MOL   N14814080   6.889   0.517   6.769 -0.8183  0.2855 -0.2958
   87MOL   H14914081   6.892   0.329   6.596 -1.7297  0.5331 -0.5784
   87MOL   H15014082   7.033   0.425   6.544 -0.2977  0.4752 -1.0696
   87MOL   H15114083   6.770   0.557   6.595 -1.1639 -0.8791  1.6265
   87MOL   H15214084   6.798   0.481   6.796 -0.2638 -0.9030  0.0075
   87MOL   H15314085   6.898   0.608   6.811  1.4729 -0.3144  0.5457
   87MOL   C15414086   6.954   0.677   6.589  0.3608  0.1633  0.0928
   87MOL   C15514087   6.924   0.744   6.451 -0.6505  0.0673 -0.3897
   87MOL   N15614088   6.968   0.882   6.468 -0.2744  0.0233  0.1530
   87MOL   H15714089   6.925   0.751   6.663 -0.1728 -0.5854  0.6378
   87MOL   H15814090   7.056   0.657   6.622  0.5465  1.1559  0.1151
   87MOL   H15914091   6.817   0.756   6.435 -0.3705  2.3045 -0.7362
   87MOL   H16014092   6.921   0.929   6.393 -1.2371  0.1743  0.8388
   87MOL   H16114093   7.069   0.889   6.465 -0.2692 -0.6703 -3.1075
   87MOL   H16214094   6.972   0.694   6.367  1.9935  0.6776  0.6990
   88MOL     C114095   3.663   3.622   0.567  0.6254  0.2663  0.1588
   88MOL     C214096   3.777   3.687   0.632  0.3742  0.2601  0.1983
   88MOL     N314097   3.738   3.821   0.678 -0.3938  0.1804 -0.2267
   88MOL     H414098   3.694   3.523   0.533 -0.6147 -1.0460  2.7118
   88MOL     H514099   3.641   3.673   0.473  1.8223 -2.5880 -1.7755
   88MOL     H614100   3.850   3.697   0.551 -0.6877  1.3582 -0.6511
   88MOL     H714101   3.817   3.866   0.721 -0.0309 -0.0828 -0.6105
   88MOL     H814102   3.729   3.880   0.597 -0.8489 -1.2042 -1.2141
   88MOL     H914103   3.572   3.609   0.626  0.2816 -1.5004 -0.7131
   88MOL    C1014104   3.840   3.607   0.750 -0.0462  1.1924 -0.1435
   88MOL    C1114105   3.932   3.489   0.698  0.4313 -0.2758 -0.3814
   88MOL    N1214106   4.057   3.542   0.659 -0.2384 -0.6565 -0.1871
   88MOL    H1314107   3.895   3.677   0.814 -0.3493  1.0870  0.2340
   88MOL    H1414108   3.766   3.555   0.811  0.4491  0.9341  0.2386
   88MOL    H1514109   3.880   3.442   0.614 -0.5028 -0.3323  0.2259
   88MOL    H1614110   4.049   3.573   0.563  1.1833 -1.8817 -0.7185
   88MOL    H1714111   4.085   3.628   0.704  1.6132 -0.6295 -1.3135
   88MOL    C1814112   3.949   3.386   0.820 -0.0511 -0.1901 -0.1992
   88MOL    C1914113   3.833   3.291   0.851  0.8073 -0.1614  0.5629
   88MOL    N2014114   3.843   3.182   0.756  0.2771  0.1148 -0.0023
   88MOL    H2114115   4.039   3.325   0.809  0.9021  0.5285  3.0091
   88MOL    H2214116   3.966   3.443   0.911 -0.1047 -2.2118  1.1101
   88MOL    H2314117   3.744   3.349   0.827 -0.3511 -1.8953  0.5755
   88MOL    H2414118   3.750   3.143   0.750  0.3418 -0.1893  0.9366
   88MOL    H2514119   3.868   3.216   0.664  3.3019  2.3789  1.5667
   88MOL    C2614120   3.833   3.255   1.001 -0.0311 -0.1818  0.0566
   88MOL    C2714121   3.807   3.359   1.110 -0.6857 -0.6919  0.6340
   88MOL    N2814122   3.662   3.368   1.123  0.1023 -0.5199 -0.5582
   88MOL    H2914123   3.774   3.165   1.012 -2.3693  1.2747 -0.2315
   88MOL    H3014124   3.937   3.223   1.013  0.2707  1.2518  1.4520
   88MOL    H3114125   3.836   3.457   1.071 -4.4505  0.0040 -0.6923
   88MOL    H3214126   3.639   3.300   1.194  0.0613 -1.1435 -1.1557
   88MOL    H3314127   3.616   3.447   1.164 -0.3843 -1.2642  0.3477
   88MOL    C3414128   3.885   3.342   1.248  0.1323 -0.4295 -0.1610
   88MOL    C3514129   4.035   3.372   1.236  0.8130  0.4382 -0.4398
   88MOL    N3614130   4.072   3.512   1.263  0.0031  0.7066  0.1791
   88MOL    H3714131   3.838   3.401   1.327  2.7898  0.4351  0.8431
   88MOL    H3814132   3.871   3.240   1.283  0.4405  0.1927  1.8350
   88MOL    H3914133   4.062   3.367   1.131  0.0347 -1.7466 -0.5694
   88MOL    H4014134   4.021   3.535   1.347  0.2543 -0.6443  0.7100
   88MOL    H4114135   4.169   3.512   1.288  0.2439  0.1898 -0.7480
   88MOL    C4214136   4.125   3.285   1.322 -0.0407  0.3841 -0.0224
   88MOL    C4314137   4.138   3.144   1.265  0.7181  0.4812  0.7230
   88MOL    N4414138   4.271   3.122   1.205 -0.4682  0.1828 -0.8452
   88MOL    H4514139   4.222   3.327   1.345 -0.0629 -0.6695  2.0578
   88MOL    H4614140   4.070   3.286   1.416 -1.0786  1.4677 -0.6215
   88MOL    H4714141   4.077   3.148   1.175  0.7779 -3.0582  0.4763
   88MOL    H4814142   4.287   3.167   1.116 -0.3678 -1.2579 -1.5656
   88MOL    H4914143   4.289   3.026   1.180 -0.2011  0.8340 -3.2633
   88MOL    C5014144   4.092   3.033   1.362  0.4203  0.2122 -0.1961
   88MOL    C5114145   4.079   2.890   1.303  0.0158  0.2147  0.0341
   88MOL    N5214146   4.103   2.799   1.416 -0.9465 -0.0402  0.3585
   88MOL    H5314147   4.171   3.027   1.437  0.1703 -1.3114 -0.0205
   88MOL    H5414148   3.998   3.067   1.406  0.6464 -3.2090  3.2345
   88MOL    H5514149   4.161   2.870   1.234 -0.4425 -0.0306 -0.4375
   88MOL    H5614150   4.197   2.816   1.447 -1.1715  1.0008  0.4872
   88MOL    H5714151   4.039   2.810   1.494  0.8894 -0.2631  1.9397
   88MOL    C5814152   3.952   2.871   1.220  0.2005 -0.5568 -0.4386
   88MOL    C5914153   3.912   2.725   1.169 -1.0306 -0.5053  0.6064
   88MOL    N6014154   3.843   2.657   1.281 -0.5277  0.1015  0.3688
   88MOL    H6114155   3.878   2.911   1.290  2.6919  1.8342  0.9441
   88MOL    H6214156   3.955   2.943   1.138  2.0812 -0.1239 -0.0277
   88MOL    H6314157   4.013   2.688   1.150 -0.6733  1.5555 -1.8134
   88MOL    H6414158   3.900   2.674   1.362  2.2176 -1.4473 -1.1753
   88MOL    H6514159   3.753   2.702   1.289 -2.1392 -3.0047  0.3208
   88MOL    C6614160   3.819   2.725   1.042 -0.6235 -0.2147  0.2971
   88MOL    C6714161   3.897   2.709   0.908  0.4787  0.7187 -0.4243
   88MOL    N6814162   3.796   2.665   0.815 -0.1069  0.2312  0.3397
   88MOL    H6914163   3.740   2.654   1.066 -0.3429 -0.1759  1.3858
   88MOL    H7014164   3.770   2.823   1.045 -1.3652 -0.6132  2.0578
   88MOL    H7114165   3.974   2.632   0.904  0.5446  0.6769  1.3474
   88MOL    H7214166   3.732   2.738   0.786 -2.1182 -2.0220 -1.1031
   88MOL    H7314167   3.845   2.651   0.728  0.5694  3.7232  0.0975
   88MOL    C7414168   3.958   2.844   0.854  0.2436  0.4136 -0.4662
   88MOL    C7514169   4.113   2.842   0.823 -0.0750 -0.3669  0.4069
   88MOL    N7614170   4.152   2.964   0.745 -0.3490  0.8818 -0.1846
   88MOL    H7714171   3.893   2.866   0.770  1.5516  0.8226 -1.3864
   88MOL    H7814172   3.939   2.927   0.922  0.5733 -0.3676  0.6012
   88MOL    H7914173   4.131   2.757   0.756 -3.2908 -0.5905 -0.2494
   88MOL    H8014174   4.068   2.995   0.698 -0.1553 -0.6785 -1.6092
   88MOL    H8114175   4.173   3.024   0.823  2.4636  0.6884 -0.7380
   88MOL    C8214176   4.195   2.836   0.954  0.1028 -0.1979 -0.1861
   88MOL    C8314177   4.352   2.847   0.943 -1.3005 -0.0884 -0.1154
   88MOL    N8414178   4.403   2.893   1.070 -0.0957 -0.1879 -0.1787
   88MOL    H8514179   4.153   2.917   1.014 -0.5883 -0.4532 -0.3274
   88MOL    H8614180   4.184   2.744   1.010  3.4368  0.2363  1.3262
   88MOL    H8714181   4.378   2.934   0.882  2.2047 -0.4477  0.7673
   88MOL    H8814182   4.410   2.810   1.127 -0.6838 -1.1173 -1.4384
   88MOL    H8914183   4.501   2.919   1.065 -0.7272  3.3549  3.1678
   88MOL    C9014184   4.430   2.725   0.899 -0.7453 -0.3766  0.1886
   88MOL    C9114185   4.578   2.759   0.859  0.0006  0.1097  0.1393
   88MOL    N9214186   4.656   2.652   0.910 -0.2469  0.0232 -0.3585
   88MOL    H9314187   4.433   2.661   0.988  0.3047 -0.7812 -0.1288
   88MOL    H9414188   4.374   2.672   0.822 -0.5023 -0.2622 -0.0675
   88MOL    H9514189   4.625   2.849   0.897 -0.9945  0.1443  1.3187
   88MOL    H9614190   4.651   2.638   1.010  0.5608 -1.3616 -0.4910
   88MOL    H9714191   4.629   2.564   0.867 -2.1161 -0.0839  1.0152
   88MOL    C9814192   4.604   2.758   0.704 -0.2787  0.0114 -0.2089
   88MOL    C9914193   4.540   2.865   0.615  0.2464 -0.0686 -0.1701
   88MOL   N10014194   4.631   2.978   0.621  0.0655 -0.2075  0.4389
   88MOL   H10114195   4.709   2.754   0.675 -0.9707 -0.9690 -2.7262
   88MOL   H10214196   4.557   2.666   0.668 -0.5913 -0.8710  2.3483
   88MOL   H10314197   4.445   2.897   0.659  0.3796  0.0761  0.0150
   88MOL   H10414198   4.668   2.980   0.715  0.6413 -2.0439  0.2688
   88MOL   H10514199   4.709   2.958   0.560  0.6346 -3.2279  2.0455
   88MOL   C10614200   4.521   2.824   0.470  0.4757 -0.3054 -0.2513
   88MOL   C10714201   4.408   2.719   0.436 -0.6302 -1.6908 -0.0905
   88MOL   N10814202   4.288   2.800   0.453 -0.4083 -0.0678  0.2366
   88MOL   H10914203   4.512   2.922   0.423 -3.2515 -0.3661  0.1974
   88MOL   H11014204   4.617   2.785   0.438 -0.4464 -2.3016 -0.6432
   88MOL   H11114205   4.404   2.637   0.507 -0.2458 -0.4889  1.3353
   88MOL   H11214206   4.204   2.745   0.443 -0.3474 -0.0337 -0.4369
   88MOL   H11314207   4.289   2.848   0.542 -0.5782  0.0277  0.1874
   88MOL   C11414208   4.406   2.664   0.293 -0.3290 -0.3038  0.2917
   88MOL   C11514209   4.548   2.585   0.264 -0.3154  0.3517  0.1269
   88MOL   N11614210   4.572   2.491   0.373  0.2885  0.3640 -0.4662
   88MOL   H11714211   4.319   2.598   0.291 -1.4347  0.8347  5.0938
   88MOL   H11814212   4.395   2.739   0.214 -1.5527  0.8824  1.5678
   88MOL   H11914213   4.622   2.664   0.278 -0.0139  0.0492  0.2335
   88MOL   H12014214   4.651   2.431   0.356 -0.7717 -1.2729  0.3225
   88MOL   H12114215   4.486   2.438   0.365  0.5495 -0.8697  3.6989
   88MOL   C12214216   4.582   2.521   0.129 -0.1174  0.2201 -0.4637
   88MOL   C12314217   4.571   2.600   0.001  0.1860 -0.9477  0.2584
   88MOL   N12414218   4.664   2.538   7.186 -0.0484 -0.5406 -0.4675
   88MOL   H12514219   4.682   2.478   0.131  0.5547  1.8048  0.4197
   88MOL   H12614220   4.523   2.429   0.123  1.1160 -0.6320  0.1817
   88MOL   H12714221   4.611   2.701   0.012 -2.5691  0.2143  0.1440
   88MOL   H12814222   4.640   2.440   7.189 -0.8014 -0.2946  2.5540
   88MOL   H12914223   4.761   2.546   7.214 -0.5531 -2.8429  2.1359
   88MOL   C13014224   4.427   2.595   7.220  0.0448  0.1012  0.0384
   88MOL   C13114225   4.411   2.705   7.109 -0.0646 -0.7751 -0.6858
   88MOL   N13214226   4.300   2.673   7.026 -0.2541  0.0808  0.3029
   88MOL   H13314227   4.418   2.491   7.189 -0.4168 -0.4109  1.8010
   88MOL   H13414228   4.350   2.608   0.021 -1.6888  1.4070 -1.8889
   88MOL   H13514229   4.502   2.717   7.051  0.6733 -0.3813  0.5309
   88MOL   H13614230   4.327   2.584   6.988 -0.3487  0.8327 -1.5809
   88MOL   H13714231   4.297   2.732   6.944 -1.5826  0.7911  0.8494
   88MOL   C13814232   4.399   2.846   7.173  0.2828 -0.5500  0.4185
   88MOL   C13914233   4.480   2.957   7.111 -0.0354 -0.0457 -0.1290
   88MOL   N14014234   4.417   3.087   7.154 -0.8150  0.4874 -1.2031
   88MOL   H14114235   4.296   2.880   7.184  0.2261 -0.6271  0.1475
   88MOL   H14214236   4.424   2.849   0.003  1.1694  3.4159  0.1598
   88MOL   H14314237   4.474   2.946   7.003 -2.1481  0.2460 -0.0721
   88MOL   H14414238   4.429   3.097   7.254  1.5116  1.8449 -1.5754
   88MOL   H14514239   4.462   3.165   7.108 -1.7768  2.1011  0.5171
   88MOL   C14614240   4.626   2.947   7.153  0.9640 -0.0346  0.2792
   88MOL   C14714241   4.722   3.039   7.076  0.0304  0.3068  0.4927
   88MOL   N14814242   4.848   3.057   7.147  0.1736  0.2577  0.4476
   88MOL   H14914243   4.640   2.954   7.261  1.9724 -0.0282  0.1535
   88MOL   H15014244   4.646   2.843   7.126  2.0410  0.2079  0.0946
   88MOL   H15114245   4.671   3.135   7.065 -0.9843 -0.4019 -1.2144
   88MOL   H15214246   4.915   3.118   7.102 -0.8024  0.3764 -0.8917
   88MOL   H15314247   4.828   3.102   7.234  0.4482 -1.3694  1.3711
   88MOL   C15414248   4.744   2.999   6.931  0.5891  0.6023 -0.6046
   88MOL   C15514249   4.825   3.100   6.852 -0.0417 -0.0987  0.1279
   88MOL   N15614250   4.855   3.054   6.719 -0.1502  0.1098 -0.4857
   88MOL   H15714251   4.793   2.901   6.932  0.0457  0.3361 -0.1973
   88MOL   H15814252   4.647   2.981   6.884 -0.8317  2.1968  1.6739
   88MOL   H15914253   4.919   3.096   6.907 -0.1156  0.7805  0.3323
   88MOL   H16014254   4.877   2.957   6.733 -0.9746  0.2439  1.9562
   88MOL   H16114255   4.935   3.101   6.679 -0.0651  2.3241  2.1757
   88MOL   H16214256   4.777   3.197   6.865 -1.0793 -0.5887  0.0058
   89MOL     C114257   6.524   2.016   7.040  0.6711 -0.1296  0.0095
   89MOL     C214258   6.579   2.122   6.950  0.3456 -0.4613 -0.0531
   89MOL     N314259   6.468   2.177   6.862  0.2137  0.2051 -0.1589
   89MOL     H414260   6.500   1.936   6.971  1.2967 -0.9178  0.6916
   89MOL     H514261   6.442   2.063   7.096  2.5086  3.2815 -0.0393
   89MOL     H614262   6.660   2.084   6.888  2.8660  2.8823  1.0760
   89MOL     H714263   6.452   2.104   6.793 -0.4519 -2.2337  2.4743
   89MOL     H814264   6.521   2.243   6.806 -2.5178 -0.3468 -3.6093
   89MOL     H914265   6.600   1.980   7.109  0.2023 -1.4953 -0.1681
   89MOL    C1014266   6.626   2.245   7.024 -0.4405 -0.7304  0.4446
   89MOL    C1114267   6.779   2.256   7.033  0.3793  0.3995  0.0522
   89MOL    N1214268   6.839   2.310   6.911  0.0679  0.1276  0.0072
   89MOL    H1314269   6.589   2.343   6.994  2.3199  0.8308  1.9548
   89MOL    H1414270   6.585   2.243   7.125  0.1702 -0.6888  0.6943
   89MOL    H1514271   6.804   2.153   7.060 -0.3605  0.1559 -0.1830
   89MOL    H1614272   6.856   2.233   6.849 -0.7063 -0.5221  0.5796
   89MOL    H1714273   6.932   2.349   6.917 -0.0692  0.5244 -0.4424
   89MOL    C1814274   6.838   2.340   7.159 -0.0842  0.6370 -0.4182
   89MOL    C1914275   6.836   2.278   0.025 -0.2790  0.1916  0.1711
   89MOL    N2014276   6.936   2.173   0.020  0.0175 -0.7006  0.1025
   89MOL    H2114277   6.941   2.366   7.140  0.3670  1.1300  2.4849
   89MOL    H2214278   6.787   2.436   7.161 -1.8492 -0.2372 -1.1229
   89MOL    H2314279   6.736   2.243   0.051  0.2709 -1.7018 -0.1855
   89MOL    H2414280   6.903   2.117   7.218  0.6447  0.7838 -1.2563
   89MOL    H2514281   6.927   2.108   0.098 -0.7687 -1.2085 -0.4057
   89MOL    C2614282   6.870   2.377   0.136 -0.2993 -0.4532  1.0369
   89MOL    C2714283   6.755   2.377   0.243 -0.6345 -0.4694 -1.2383
   89MOL    N2814284   6.804   2.448   0.356 -0.3391  0.3601 -0.6195
   89MOL    H2914285   6.963   2.344   0.183 -0.0726 -1.7146 -0.2375
   89MOL    H3014286   6.887   2.477   0.095 -2.3030 -1.5282 -2.7158
   89MOL    H3114287   6.735   2.275   0.278  0.3494  0.1769  1.2886
   89MOL    H3214288   6.846   2.374   0.411  1.9666 -0.9448 -3.9607
   89MOL    H3314289   6.723   2.472   0.412  0.0751  1.3906 -0.4688
   89MOL    C3414290   6.634   2.457   0.203  0.5447  1.0617  0.4582
   89MOL    C3514291   6.497   2.393   0.232  0.6780  0.4396 -0.0382
   89MOL    N3614292   6.405   2.501   0.255  0.3427 -0.2582  0.1830
   89MOL    H3714293   6.636   2.558   0.242  1.0640  0.8320  1.0238
   89MOL    H3814294   6.644   2.478   0.096  1.2678 -2.1587 -0.1573
   89MOL    H3914295   6.498   2.336   0.325  0.0185 -1.8712 -1.4058
   89MOL    H4014296   6.375   2.541   0.167  0.8206 -0.0275  0.1230
   89MOL    H4114297   6.460   2.573   0.300 -0.2506  0.7164 -0.6389
   89MOL    C4214298   6.444   2.293   0.125  0.3034  0.1186  0.2746
   89MOL    C4314299   6.308   2.238   0.156 -0.0808  0.0320 -0.9257
   89MOL    N4414300   6.229   2.206   0.038  0.1027  0.6998  0.2949
   89MOL    H4514301   6.452   2.332   0.024  0.4333  0.8278  0.5586
   89MOL    H4614302   6.508   2.205   0.132 -1.3080 -1.3182 -2.3913
   89MOL    H4714303   6.245   2.314   0.203  2.1146  1.0420  0.4503
   89MOL    H4814304   6.263   2.124   7.267  0.6020  0.1809  1.5496
   89MOL    H4914305   6.237   2.293   7.262 -1.9864  0.1326 -1.0229
   89MOL    C5014306   6.314   2.124   0.259 -0.0090 -0.0903 -0.0827
   89MOL    C5114307   6.195   2.113   0.358  0.2360 -0.4713 -0.3762
   89MOL    N5214308   6.080   2.080   0.276  0.9089  0.0358 -0.3613
   89MOL    H5314309   6.350   2.026   0.226 -1.1403 -0.7228  0.5059
   89MOL    H5414310   6.394   2.152   0.328 -0.8325  0.1666  0.7779
   89MOL    H5514311   6.180   2.211   0.403  0.0946  1.2502 -3.9684
   89MOL    H5614312   6.094   2.136   0.193  1.4423 -0.4343 -0.5893
   89MOL    H5714313   6.088   1.983   0.252 -0.1019 -0.8581  2.7113
   89MOL    C5814314   6.209   2.005   0.466  0.8932 -0.0737  0.1002
   89MOL    C5914315   6.312   2.046   0.574 -0.5081 -0.3821 -0.1853
   89MOL    N6014316   6.262   2.169   0.639  0.4282  0.0190  0.0560
   89MOL    H6114317   6.117   1.985   0.521  1.4733 -0.2869  1.0066
   89MOL    H6214318   6.244   1.914   0.416 -2.2372 -1.5214  0.3905
   89MOL    H6314319   6.412   2.045   0.531 -0.3684 -1.2440  0.1533
   89MOL    H6414320   6.283   2.253   0.587  0.1247  0.5377  0.7590
   89MOL    H6514321   6.333   2.170   0.711 -0.9901 -1.8765  1.5470
   89MOL    C6614322   6.338   1.950   0.692  0.4935  0.6108  0.4005
   89MOL    C6714323   6.400   1.818   0.651 -0.1336  0.6154  0.2681
   89MOL    N6814324   6.500   1.778   0.747 -0.6787 -0.0644  0.4242
   89MOL    H6914325   6.411   1.999   0.756 -0.7660  0.4383  2.0013
   89MOL    H7014326   6.241   1.940   0.741 -1.5287  2.0380 -3.0815
   89MOL    H7114327   6.458   1.832   0.560  1.2231  1.3243  1.2344
   89MOL    H7214328   6.525   1.688   0.709 -1.3690  0.2387 -0.7721
   89MOL    H7314329   6.587   1.831   0.750 -1.2315  0.8690  0.3139
   89MOL    C7414330   6.307   1.703   0.610  0.4325 -0.4375  0.2524
   89MOL    C7514331   6.370   1.560   0.592 -0.4562  0.0805  0.6060
   89MOL    N7614332   6.251   1.483   0.547  0.1613  0.1648 -0.4913
   89MOL    H7714333   6.228   1.695   0.685 -0.7552  0.1600 -0.9121
   89MOL    H7814334   6.249   1.731   0.522  1.6989  2.8008  0.3621
   89MOL    H7914335   6.417   1.527   0.685  1.0251 -2.2155 -0.9112
   89MOL    H8014336   6.282   1.395   0.510  1.8049  0.7748 -0.5944
   89MOL    H8114337   6.203   1.533   0.472 -0.3179  0.1934 -0.1689
   89MOL    C8214338   6.479   1.563   0.482 -0.5330  0.1081  0.5835
   89MOL    C8314339   6.555   1.431   0.450 -0.3439 -0.2916 -0.8349
   89MOL    N8414340   6.652   1.458   0.342 -0.0154 -0.2515  0.0103
   89MOL    H8514341   6.460   1.618   0.390  1.0760  0.1698  0.2614
   89MOL    H8614342   6.558   1.623   0.529  0.6682  0.6114 -1.9651
   89MOL    H8714343   6.480   1.363   0.409 -0.0687 -1.5992  0.8052
   89MOL    H8814344   6.736   1.509   0.367  0.8911 -0.7431 -1.9466
   89MOL    H8914345   6.689   1.369   0.312 -0.7949  0.0009 -1.8046
   89MOL    C9014346   6.609   1.363   0.585  0.1822 -0.1459  0.5835
   89MOL    C9114347   6.711   1.248   0.570 -0.3984  0.3368  0.9814
   89MOL    N9214348   6.737   1.220   0.706 -0.1457 -0.2562 -0.4576
   89MOL    H9314349   6.661   1.439   0.644  0.7571  0.7649 -1.0398
   89MOL    H9414350   6.524   1.339   0.648  0.3583 -0.3850  0.7306
   89MOL    H9514351   6.795   1.285   0.511  0.1985 -0.5943  1.2380
   89MOL    H9614352   6.753   1.309   0.752 -2.5890  0.7709 -1.4999
   89MOL    H9714353   6.664   1.171   0.756 -1.2145 -0.4147 -2.1348
   89MOL    C9814354   6.644   1.126   0.500 -0.4476  0.3355  0.6279
   89MOL    C9914355   6.734   0.996   0.499  0.5580 -0.1420  0.2409
   89MOL   N10014356   6.648   0.887   0.458  0.4974  0.4906 -0.7710
   89MOL   H10114357   6.550   1.101   0.550 -0.4055  0.4997  0.7883
   89MOL   H10214358   6.608   1.150   0.400 -1.3883 -3.4116 -0.0343
   89MOL   H10314359   6.758   0.981   0.604  3.5095  0.0953 -0.3558
   89MOL   H10414360   6.709   0.809   0.479 -1.5008 -0.4867  1.6440
   89MOL   H10514361   6.568   0.874   0.518  1.8271 -0.8808  0.7572
   89MOL   C10614362   6.855   1.012   0.409 -0.1419  0.1489 -0.2554
   89MOL   C10714363   6.982   0.927   0.465 -0.1755 -0.4999  0.0355
   89MOL   N10814364   7.090   0.943   0.369 -0.2064 -0.3253 -0.1724
   89MOL   H10914365   6.835   0.997   0.303 -2.6287 -1.9204  0.4437
   89MOL   H11014366   6.892   1.115   0.417  1.6857 -0.3313 -2.2152
   89MOL   H11114367   6.968   0.819   0.473  1.3472 -0.7594 -0.6761
   89MOL   H11214368   7.179   0.914   0.405  1.1780  1.6683 -1.8938
   89MOL   H11314369   7.078   0.889   0.284  0.0283 -1.5752  0.5888
   89MOL   C11414370   7.045   0.968   0.609 -0.0037 -0.2583  0.7195
   89MOL   C11514371   6.995   0.904   0.736 -0.4443 -0.0030 -0.6630
   89MOL   N11614372   7.022   0.763   0.726  0.5577  0.7198 -0.3336
   89MOL   H11714373   7.152   0.947   0.604 -0.2764 -1.4322 -0.7503
   89MOL   H11814374   7.028   1.074   0.622 -1.1779  0.1252 -3.0989
   89MOL   H11914375   6.889   0.929   0.738 -0.6589 -0.9721  0.4269
   89MOL   H12014376   6.935   0.713   0.736  2.2479 -1.8267  2.5864
   89MOL   H12114377   7.049   0.735   0.633  1.6428 -1.3138  0.5753
   89MOL   C12214378   7.072   0.965   0.854  0.1793  0.5352 -0.1568
   89MOL   C12314379   7.012   1.096   0.915 -0.3977  0.2429  0.2475
   89MOL   N12414380   6.911   1.066   1.008  0.0267 -0.4438  0.1850
   89MOL   H12514381   7.082   0.897   0.939 -0.3848  1.8270  0.9642
   89MOL   H12614382   7.175   0.991   0.831  0.4115  0.4701  0.7675
   89MOL   H12714383   6.968   1.155   0.834  2.2389  1.3675 -0.4139
   89MOL   H12814384   6.861   1.150   1.034  1.0846  0.8837 -1.9653
   89MOL   H12914385   6.844   1.015   0.952  0.5592  0.1334 -0.9965
   89MOL   C13014386   7.106   1.190   0.987 -0.0130 -0.4386 -0.4854
   89MOL   C13114387   7.207   1.256   0.894 -0.1477  0.1565  0.0884
   89MOL   N13214388   7.130   1.367   0.829  0.0513  0.2266  0.2601
   89MOL   H13314389   7.065   1.268   1.052  0.9155 -0.1468 -0.2344
   89MOL   H13414390   7.169   1.135   1.058 -0.6934  1.6694  1.8601
   89MOL   H13514391   7.246   1.185   0.821  1.5888  1.5914 -0.4421
   89MOL   H13614392   7.192   1.420   0.769  0.7908  0.0012  0.8270
   89MOL   H13714393   7.101   1.435   0.897 -2.2375 -0.7067  0.2475
   89MOL   C13814394   0.052   1.309   0.974 -0.1954 -0.2743  0.1852
   89MOL   C13914395   0.174   1.266   0.903 -0.3459  0.1901  0.1414
   89MOL   N14014396   0.278   1.364   0.921  0.0602 -0.1782  0.0647
   89MOL   H14114397   0.053   1.418   0.984 -0.1965 -0.4193  1.8966
   89MOL   H14214398   0.050   1.277   1.078  3.1113  0.7742  0.6616
   89MOL   H14314399   0.159   1.279   0.796 -0.0910  0.2990  0.1161
   89MOL   H14414400   0.365   1.314   0.929 -0.0741 -0.5118 -0.5591
   89MOL   H14514401   0.270   1.409   1.011  1.9560  1.2246 -0.4290
   89MOL   C14614402   0.218   1.124   0.928 -0.0150  0.1055  0.6388
   89MOL   C14714403   0.286   1.056   0.802 -0.1802  0.3181  0.6009
   89MOL   N14814404   0.326   0.921   0.839 -0.1590 -0.2223 -0.2511
   89MOL   H14914405   0.291   1.128   1.009  0.3748 -1.5260  0.3978
   89MOL   H15014406   0.130   1.066   0.953 -0.2147 -0.0586 -0.4431
   89MOL   H15114407   0.378   1.104   0.771 -0.0379  0.2631  0.9391
   89MOL   H15214408   0.366   0.916   0.931  0.0224  0.2932 -0.3022
   89MOL   H15314409   0.234   0.881   0.852 -1.0555  1.5703 -0.8577
   89MOL   C15414410   0.186   1.032   0.685  0.8820 -0.4803  0.4327
   89MOL   C15514411   0.249   0.977   0.558  0.0377 -0.6185 -0.3728
   89MOL   N15614412   0.147   0.992   0.456  0.2384  0.6244  0.2129
   89MOL   H15714413   0.092   0.988   0.718 -0.8939  2.0330 -1.0006
   89MOL   H15814414   0.159   1.128   0.640  0.1543 -0.8859 -0.0123
   89MOL   H15914415   0.282   0.873   0.565  0.9347 -0.3111 -0.0267
   89MOL   H16014416   0.182   0.962   0.366 -3.4923  0.9900 -1.4773
   89MOL   H16114417   0.137   1.092   0.457  1.2287  0.7349 -0.0822
   89MOL   H16214418   0.343   1.025   0.533 -0.1082 -1.0346 -1.7777
   90MOL     C114419   6.557   1.946   4.252 -0.4032 -0.3494  0.0956
   90MOL     C214420   6.676   1.988   4.168 -0.1129  0.0213  0.7483
   90MOL     N314421   6.632   2.073   4.057 -0.1070  0.4197  0.8435
   90MOL     H414422   6.479   1.894   4.196 -0.6796 -1.0934  1.1604
   90MOL     H514423   6.509   2.022   4.313  3.6465 -1.2749  4.6985
   90MOL     H614424   6.719   1.897   4.128  1.3416  1.0524 -0.1116
   90MOL     H714425   6.532   2.058   4.052  0.3823 -2.7976 -0.7588
   90MOL     H814426   6.635   2.168   4.089 -2.7224  0.1959  1.9228
   90MOL     H914427   6.579   1.878   4.334 -0.7120 -1.5488 -0.7877
   90MOL    C1014428   6.782   2.065   4.252  1.0690 -0.8766  0.3970
   90MOL    C1114429   6.833   1.999   4.375 -0.9836  0.2463  0.6274
   90MOL    N1214430   6.975   2.028   4.380 -0.0263 -0.3790  0.1924
   90MOL    H1314431   6.860   2.087   4.180  1.7409  0.5475  1.5273
   90MOL    H1414432   6.739   2.161   4.282  0.7979 -1.2708  1.3108
   90MOL    H1514433   6.827   1.892   4.358  2.3310  0.0830  0.2189
   90MOL    H1614434   7.029   1.976   4.447 -0.0001  0.6880  1.0170
   90MOL    H1714435   6.998   2.125   4.398  1.0157 -0.6548  0.3796
   90MOL    C1814436   6.770   2.038   4.507 -0.1690  0.5091 -0.2731
   90MOL    C1914437   6.812   1.951   4.623  0.2946  0.1843  0.0292
   90MOL    N2014438   6.746   2.015   4.733 -0.1550  0.4095 -0.3853
   90MOL    H2114439   6.801   2.138   4.539 -1.5718  1.1759 -0.9736
   90MOL    H2214440   6.662   2.046   4.509 -0.2655 -0.7431 -0.0733
   90MOL    H2314441   6.920   1.958   4.640  0.1235  0.1676  1.1513
   90MOL    H2414442   6.789   2.106   4.731  0.7880 -0.0527 -1.9225
   90MOL    H2514443   6.788   1.980   4.818  1.8444 -0.0741 -1.5533
   90MOL    C2614444   6.760   1.806   4.620 -0.1939 -0.8467  0.6987
   90MOL    C2714445   6.859   1.709   4.688 -0.0054  0.3528 -0.1048
   90MOL    N2814446   6.786   1.586   4.696 -0.5715 -0.0123  0.3673
   90MOL    H2914447   6.658   1.799   4.658 -0.8146 -0.3475 -0.8172
   90MOL    H3014448   6.768   1.763   4.520  0.9814 -0.9523  0.8307
   90MOL    H3114449   6.875   1.729   4.794 -0.4155  0.9703 -0.1546
   90MOL    H3214450   6.726   1.583   4.777 -0.6721 -3.1255  0.2333
   90MOL    H3314451   6.849   1.515   4.731  0.3928  1.2478  1.2184
   90MOL    C3414452   6.994   1.694   4.606  0.5116 -0.8660 -0.4421
   90MOL    C3514453   7.121   1.671   4.693  0.4507  0.1390 -0.6581
   90MOL    N3614454   7.233   1.622   4.603  0.1792 -0.1209 -0.3306
   90MOL    H3714455   6.983   1.615   4.533 -0.6969  0.8004 -2.0920
   90MOL    H3814456   7.004   1.779   4.538 -0.6977 -0.4296 -0.0830
   90MOL    H3914457   7.103   1.599   4.772  0.7140 -1.4043 -1.9845
   90MOL    H4014458   7.268   1.690   4.537  0.4221  0.7928  0.7242
   90MOL    H4114459   0.040   1.622   4.661 -0.5563 -0.2473  0.7318
   90MOL    C4214460   7.175   1.806   4.761  0.4163  0.2626  0.1558
   90MOL    C4314461   7.246   1.801   4.897 -0.4829  0.1682  0.4563
   90MOL    N4414462   0.033   1.928   4.927  0.0040  0.8913  0.1389
   90MOL    H4514463   7.242   1.852   4.688 -0.0994 -1.9645 -1.8049
   90MOL    H4614464   7.089   1.870   4.776  0.1087 -0.3606  1.0919
   90MOL    H4714465   0.057   1.735   4.892 -1.0729 -0.5992  0.3228
   90MOL    H4814466   0.086   1.913   5.012 -1.6430  0.4721  1.1231
   90MOL    H4914467   0.099   1.957   4.857 -0.3762  1.5902  0.0660
   90MOL    C5014468   7.144   1.775   5.018  0.1759  0.3848 -0.2194
   90MOL    C5114469   7.201   1.653   5.101  0.8954  0.2534 -0.7100
   90MOL    N5214470   7.128   1.679   5.223 -0.3726  0.4387  0.1559
   90MOL    H5314471   7.129   1.866   5.076 -0.2394 -1.0124  1.9331
   90MOL    H5414472   7.048   1.751   4.973  0.0545  0.3878  0.0391
   90MOL    H5514473   0.032   1.669   5.116  0.6107  0.6944  0.8404
   90MOL    H5614474   7.070   1.757   5.194 -0.4559 -0.2126 -1.5004
   90MOL    H5714475   7.061   1.604   5.226 -2.4836  2.2500 -0.1180
   90MOL    C5814476   7.179   1.512   5.047 -0.4054 -0.3387 -0.2148
   90MOL    C5914477   7.234   1.399   5.139 -0.5737  0.4823  1.1680
   90MOL    N6014478   7.131   1.302   5.147  0.2511 -0.0169  0.1445
   90MOL    H6114479   7.075   1.504   5.017 -0.2192  0.8514 -1.2373
   90MOL    H6214480   7.233   1.502   4.953 -0.9402  1.3287 -0.7264
   90MOL    H6314481   7.263   1.438   5.237  0.2549  1.6219  0.4905
   90MOL    H6414482   7.061   1.336   5.211 -1.4938 -0.3692 -1.5181
   90MOL    H6514483   7.164   1.218   5.192  3.1277  1.6998  1.3967
   90MOL    C6614484   0.079   1.337   5.070 -0.0773  0.4753 -0.0214
   90MOL    C6714485   0.221   1.418   5.064  0.3125  0.1837  0.6297
   90MOL    N6814486   0.299   1.384   5.180  0.5514 -0.7134 -0.0815
   90MOL    H6914487   0.108   1.240   5.111  2.7481  1.4499  0.4196
   90MOL    H7014488   0.039   1.316   4.971  0.2641  0.6677 -0.2013
   90MOL    H7114489   0.193   1.523   5.070 -0.5243  0.0588 -1.0295
   90MOL    H7214490   0.293   1.286   5.205 -1.1034  0.0624  2.8468
   90MOL    H7314491   0.259   1.424   5.264 -2.8706  0.0051 -1.9428
   90MOL    C7414492   0.311   1.394   4.934 -0.2099  0.1757  0.7351
   90MOL    C7514493   0.246   1.422   4.798 -0.3008 -0.4958 -0.1325
   90MOL    N7614494   0.237   1.565   4.774  0.4164 -0.6137 -0.0253
   90MOL    H7714495   0.406   1.448   4.935  0.9748 -1.8479  2.1357
   90MOL    H7814496   0.336   1.288   4.935 -0.4361  0.1229  0.7137
   90MOL    H7914497   0.147   1.375   4.800 -0.7016  0.1752 -2.4906
   90MOL    H8014498   0.267   1.568   4.678 -3.5820  1.0866 -1.2959
   90MOL    H8114499   0.315   1.596   4.831 -1.4306  1.6168  1.3925
   90MOL    C8214500   0.312   1.354   4.675  0.6527 -0.0313 -0.4022
   90MOL    C8314501   0.207   1.305   4.578 -0.0971  0.2225  0.2075
   90MOL    N8414502   0.270   1.286   4.447 -0.2613 -0.4337 -0.1975
   90MOL    H8514503   0.394   1.416   4.639  1.4162 -1.2769 -0.8475
   90MOL    H8614504   0.365   1.270   4.720 -0.2248  0.4334  1.5243
   90MOL    H8714505   0.135   1.385   4.569 -2.1603 -1.5900  0.2188
   90MOL    H8814506   0.337   1.361   4.433 -2.4677  1.5016 -0.6349
   90MOL    H8914507   0.314   1.195   4.453  1.1548  0.2014 -0.5724
   90MOL    C9014508   0.143   1.167   4.618 -0.0382  0.0676  0.2272
   90MOL    C9114509   7.269   1.139   4.601 -0.3549  0.0303  1.2753
   90MOL    N9214510   7.232   0.998   4.597  0.0505 -0.1532  0.0170
   90MOL    H9314511   0.186   1.084   4.561  1.9016  1.1612  0.0345
   90MOL    H9414512   0.177   1.134   4.716  1.8318  0.6232 -0.2161
   90MOL    H9514513   7.230   1.183   4.509 -0.5066  0.4394  1.5405
   90MOL    H9614514   0.005   0.949   4.523 -1.0054  0.1893 -0.9178
   90MOL    H9714515   7.133   0.984   4.585 -0.1256  1.1506 -0.1492
   90MOL    C9814516   7.202   1.212   4.722 -0.1138  0.4078  0.4532
   90MOL    C9914517   7.044   1.219   4.718  0.1224 -0.0049  0.0800
   90MOL   N10014518   7.005   1.291   4.840 -0.4447  0.4576 -0.2012
   90MOL   H10114519   7.241   1.158   4.809 -4.0790 -2.2813  0.7055
   90MOL   H10214520   7.246   1.310   4.707  0.7141 -0.0572 -0.1467
   90MOL   H10314521   7.009   1.116   4.727  2.0516 -0.6216  0.7333
   90MOL   H10414522   7.012   1.390   4.819  1.1237  0.4238  0.0527
   90MOL   H10514523   7.054   1.279   4.927 -1.6693  1.3361  0.6243
   90MOL   C10614524   6.985   1.293   4.594  0.2633  0.2493  0.5909
   90MOL   C10714525   6.840   1.258   4.569  0.0932 -0.6727 -0.0546
   90MOL   N10814526   6.767   1.357   4.490 -0.2133 -0.2110 -0.4260
   90MOL   H10914527   6.993   1.401   4.609  2.2420  0.1677  0.2252
   90MOL   H11014528   7.045   1.272   4.506  0.0741 -0.5740  0.6537
   90MOL   H11114529   6.785   1.243   4.661 -1.3842 -1.8032 -1.1002
   90MOL   H11214530   6.668   1.340   4.490 -0.6265  2.0221  0.3020
   90MOL   H11314531   6.781   1.448   4.532 -0.0630 -1.0303  1.3549
   90MOL   C11414532   6.821   1.127   4.493 -0.2082  0.9163  0.3860
   90MOL   C11514533   6.690   1.050   4.507  0.0219  1.0452  0.2403
   90MOL   N11614534   6.691   0.919   4.451 -0.5282 -0.2638 -0.1012
   90MOL   H11714535   6.855   1.135   4.390  0.0581  0.9662  0.4795
   90MOL   H11814536   6.893   1.057   4.535  0.0894 -0.0984 -1.7262
   90MOL   H11914537   6.620   1.104   4.444 -0.0830  0.6338  0.0024
   90MOL   H12014538   6.595   0.889   4.448  0.0097 -1.9674 -0.7090
   90MOL   H12114539   6.719   0.922   4.354  0.9045  0.7311  0.3247
   90MOL   C12214540   6.632   1.032   4.653  0.0187 -0.5636  0.1600
   90MOL   C12314541   6.532   1.142   4.706 -0.0070 -0.6767  0.4042
   90MOL   N12414542   6.418   1.126   4.619 -1.5784 -0.3402 -0.2747
   90MOL   H12514543   6.596   0.931   4.676  0.1352 -0.3287  1.3964
   90MOL   H12614544   6.723   1.044   4.711  1.2535 -0.5179 -1.7632
   90MOL   H12714545   6.567   1.245   4.695  1.6370 -1.0249  2.1572
   90MOL   H12814546   6.335   1.174   4.651 -1.6011  1.4820 -2.8491
   90MOL   H12914547   6.381   1.032   4.624  0.3160 -1.1335 -0.8267
   90MOL   C13014548   6.491   1.148   4.852  0.1770  0.2514 -0.3877
   90MOL   C13114549   6.597   1.232   4.928 -0.1039  0.1970  0.6286
   90MOL   N13214550   6.526   1.360   4.956 -0.6426 -0.1311 -0.0087
   90MOL   H13314551   6.390   1.186   4.870 -0.2957 -1.6766  1.2454
   90MOL   H13414552   6.476   1.049   4.896  0.9282 -0.3004 -1.3614
   90MOL   H13514553   6.689   1.244   4.872  0.4911  1.0593  1.7726
   90MOL   H13614554   6.592   1.432   4.983 -2.2538  0.8612  1.4330
   90MOL   H13714555   6.480   1.397   4.874  1.3873 -0.1189 -1.1844
   90MOL   C13814556   6.641   1.169   5.071 -0.3543 -0.3856 -0.3230
   90MOL   C13914557   6.718   1.036   5.065  0.9096  0.2518 -0.8041
   90MOL   N14014558   6.855   1.062   5.030  0.0251  0.0533  0.0129
   90MOL   H14114559   6.705   1.242   5.121  0.3669 -2.3375  1.7079
   90MOL   H14214560   6.549   1.173   5.128 -0.8549  2.5307 -1.2768
   90MOL   H14314561   6.673   0.978   4.985 -1.4263  0.9938 -0.0810
   90MOL   H14414562   6.882   1.023   4.941  0.4119 -0.3407  0.3023
   90MOL   H14514563   6.870   1.160   5.013 -1.3166  0.6892  2.3142
   90MOL   C14614564   6.721   0.956   5.201  0.4838 -0.3932  0.3425
   90MOL   C14714565   6.753   0.808   5.184  0.3524  0.4969 -0.5876
   90MOL   N14814566   6.745   0.755   5.319 -0.5319 -0.4224 -0.1964
   90MOL   H14914567   6.797   0.991   5.271  0.5914 -2.8187  1.4886
   90MOL   H15014568   6.627   0.973   5.253 -0.0584 -0.2466 -0.6725
   90MOL   H15114569   6.857   0.798   5.151  0.5353 -0.2392  0.2193
   90MOL   H15214570   6.656   0.764   5.366  1.8496  1.4239  4.3092
   90MOL   H15314571   6.812   0.799   5.380 -0.9134 -0.9920  0.6572
   90MOL   C15414572   6.645   0.725   5.100 -0.6241  0.4963 -0.1668
   90MOL   C15514573   6.688   0.579   5.073 -0.1964  0.0822  0.0731
   90MOL   N15614574   6.580   0.525   4.993  0.4425  0.0556 -0.0383
   90MOL   H15714575   6.543   0.738   5.135 -0.6562  0.0012 -0.0769
   90MOL   H15814576   6.644   0.772   5.001  1.2884 -0.0115 -0.4422
   90MOL   H15914577   6.696   0.519   5.164 -1.4083  1.5716  1.1926
   90MOL   H16014578   6.605   0.430   4.969 -0.7997 -0.7136  1.5832
   90MOL   H16114579   6.576   0.566   4.901  1.9266  1.7330  0.6270
   90MOL   H16214580   6.778   0.575   5.012  0.2319  1.2949  0.6155
   91MOL     C114581   5.325   1.798   1.711 -0.0047  0.1718 -0.6168
   91MOL     C214582   5.263   1.934   1.681  0.8266 -0.6135 -0.3172
   91MOL     N314583   5.128   1.900   1.650  0.2142  0.5701  0.0790
   91MOL     H414584   5.292   1.723   1.638 -0.6680  0.2859 -0.4337
   91MOL     H514585   5.306   1.760   1.811 -0.2508 -0.6053 -0.9535
   91MOL     H614586   5.313   1.974   1.593  1.7582  0.7295  0.8116
   91MOL     H714587   5.118   1.842   1.568 -2.9618 -1.5253  1.8493
   91MOL     H814588   5.092   1.992   1.628 -0.5080  0.4427  0.6926
   91MOL     H914589   5.434   1.797   1.702  0.1337 -1.7283  0.9681
   91MOL    C1014590   5.268   2.053   1.777  0.0729  0.6153 -0.1597
   91MOL    C1114591   5.404   2.132   1.783  0.3000 -0.3376  0.1041
   91MOL    N1214592   5.380   2.268   1.825  0.1733  0.6639  0.1375
   91MOL    H1314593   5.188   2.120   1.746 -1.4656 -1.2282 -0.2886
   91MOL    H1414594   5.243   2.015   1.876 -1.3338  0.5903 -0.5042
   91MOL    H1514595   5.442   2.135   1.681 -0.0817  1.8156  0.0178
   91MOL    H1614596   5.333   2.318   1.751 -0.8443 -0.3112  0.1102
   91MOL    H1714597   5.470   2.314   1.824  1.0505 -0.9857  1.2072
   91MOL    C1814598   5.504   2.065   1.882 -0.2950  0.3852  0.0539
   91MOL    C1914599   5.649   2.119   1.894  1.0086  0.2416  0.4834
   91MOL    N2014600   5.725   2.062   2.011  0.1672 -0.2783 -0.1965
   91MOL    H2114601   5.463   2.078   1.982  2.3703 -0.5855  1.3064
   91MOL    H2214602   5.497   1.956   1.873  1.6895  0.4024 -2.1459
   91MOL    H2314603   5.644   2.224   1.922  2.0188  0.1861  0.8973
   91MOL    H2414604   5.816   2.104   2.012  0.8247 -1.6035 -1.5775
   91MOL    H2514605   5.756   1.969   1.986 -1.4375 -0.1813 -2.7839
   91MOL    C2614606   5.729   2.102   1.763 -0.6417 -0.3440 -0.4980
   91MOL    C2714607   5.826   2.219   1.736  0.6193 -0.6568  0.5157
   91MOL    N2814608   5.949   2.170   1.676  0.9397  0.3548  0.2782
   91MOL    H2914609   5.785   2.010   1.779 -1.7043 -0.6482  1.6608
   91MOL    H3014610   5.662   2.074   1.682  1.8469 -3.6329 -1.5536
   91MOL    H3114611   5.842   2.274   1.829  1.2166  0.2553 -0.1194
   91MOL    H3214612   6.003   2.236   1.623 -1.0010 -0.0877 -2.3186
   91MOL    H3314613   6.008   2.149   1.756 -0.0860  0.2493  1.0191
   91MOL    C3414614   5.767   2.320   1.635 -0.4282 -0.1714  0.5564
   91MOL    C3514615   5.798   2.472   1.670  0.6178  0.2501 -0.2087
   91MOL    N3614616   5.735   2.543   1.557  0.7930 -0.3060  0.3294
   91MOL    H3714617   5.794   2.286   1.535  2.3671  0.7354  0.9786
   91MOL    H3814618   5.659   2.308   1.634 -0.8927  3.0930  2.5400
   91MOL    H3914619   5.905   2.492   1.665  0.9567 -1.4069  0.2822
   91MOL    H4014620   5.650   2.491   1.539  1.6220 -1.2186 -0.9981
   91MOL    H4114621   5.795   2.519   1.480  0.3290 -0.9637  0.1656
   91MOL    C4214622   5.722   2.527   1.795  0.1115 -0.0184 -0.1230
   91MOL    C4314623   5.778   2.661   1.853  0.1083 -0.2256 -0.4347
   91MOL    N4414624   5.685   2.719   1.948  0.2847  0.0505  0.4619
   91MOL    H4514625   5.619   2.549   1.767 -0.0399 -1.3059 -0.5916
   91MOL    H4614626   5.710   2.449   1.870  1.9498  1.5426  1.8772
   91MOL    H4714627   5.770   2.742   1.781 -2.4381 -0.8337 -0.8941
   91MOL    H4814628   5.724   2.803   1.990  0.5654  1.5702 -2.6591
   91MOL    H4914629   5.608   2.752   1.892  1.2250  0.2261 -0.7684
   91MOL    C5014630   5.922   2.665   1.915  0.1206 -0.2984 -0.0013
   91MOL    C5114631   5.972   2.807   1.962  0.0252 -0.4751 -0.7001
   91MOL    N5214632   6.069   2.780   2.064  0.0334  0.2964  1.0004
   91MOL    H5314633   5.911   2.597   1.999  0.1752 -2.3036 -1.5959
   91MOL    H5414634   5.999   2.639   1.842  0.1493 -1.4054  0.4171
   91MOL    H5514635   5.889   2.857   2.012  0.1039 -1.1617  0.1400
   91MOL    H5614636   6.020   2.734   2.140  0.6246 -1.1290  0.5247
   91MOL    H5714637   6.109   2.864   2.104  0.9518  0.0957  0.4968
   91MOL    C5814638   6.043   2.904   1.859  0.6349 -0.6448  0.0016
   91MOL    C5914639   5.982   2.924   1.719  0.4256  0.3028  0.4795
   91MOL    N6014640   5.846   2.974   1.739  0.4044  0.4163 -0.2809
   91MOL    H6114641   6.060   3.003   1.901 -0.1157 -0.4176 -0.2297
   91MOL    H6214642   6.145   2.869   1.844  1.2029  1.3154 -0.9519
   91MOL    H6314643   5.972   2.829   1.666 -1.3261 -0.9965  3.0369
   91MOL    H6414644   5.816   2.904   1.806  0.0398 -0.6021 -1.5022
   91MOL    H6514645   5.854   3.059   1.793 -0.8728  0.1498  0.3608
   91MOL    C6614646   6.062   3.017   1.632  0.5743  0.3574  0.3517
   91MOL    C6714647   6.206   2.979   1.588 -0.5739  0.4644 -0.0760
   91MOL    N6814648   6.204   2.894   1.468 -0.6001  0.1058 -0.1190
   91MOL    H6914649   5.999   3.028   1.543  1.6284  0.4700 -0.3986
   91MOL    H7014650   6.057   3.120   1.668  2.0129  0.5411  0.0635
   91MOL    H7114651   6.261   2.927   1.666 -1.2434 -0.5146 -0.2427
   91MOL    H7214652   6.114   2.901   1.423  0.5128  1.5093 -2.1771
   91MOL    H7314653   6.215   2.797   1.493 -1.4718 -0.2004 -0.8810
   91MOL    C7414654   6.289   3.106   1.559 -0.2375 -0.2736  0.1153
   91MOL    C7514655   6.401   3.141   1.657  0.5839  0.1313 -0.0858
   91MOL    N7614656   6.487   3.245   1.611  0.3273 -0.4443  0.3943
   91MOL    H7714657   6.323   3.110   1.455  0.6840 -0.3950  0.4155
   91MOL    H7814658   6.225   3.195   1.557  0.3001  0.1069 -1.1736
   91MOL    H7914659   6.478   3.065   1.668  0.1100 -0.3041  0.2584
   91MOL    H8014660   6.428   3.324   1.585  1.9352  0.9976  1.0471
   91MOL    H8114661   6.528   3.279   1.696  0.6433 -1.0851  0.4945
   91MOL    C8214662   6.346   3.186   1.798 -0.5974  0.1421 -0.2020
   91MOL    C8314663   6.435   3.130   1.917  0.3876  0.0167  0.3894
   91MOL    N8414664   6.571   3.179   1.890  0.5671  0.1797  0.4756
   91MOL    H8514665   6.341   3.295   1.802 -1.2844  0.0865  0.4856
   91MOL    H8614666   6.244   3.152   1.821  0.3935 -1.1521  2.4793
   91MOL    H8714667   6.429   3.021   1.916 -0.5295  0.0360 -2.1771
   91MOL    H8814668   6.623   3.148   1.971 -0.9662  2.3483  2.4046
   91MOL    H8914669   6.606   3.131   1.809  0.0239 -0.1470  0.4325
   91MOL    C9014670   6.393   3.182   2.054 -0.3613  0.1637 -0.2182
   91MOL    C9114671   6.248   3.134   2.101  0.1332  0.3437  0.1421
   91MOL    N9214672   6.265   3.010   2.178  0.3722 -0.1468 -0.5680
   91MOL    H9314673   6.469   3.147   2.123 -0.9396  0.3007  0.5000
   91MOL    H9414674   6.399   3.291   2.056 -0.9735  0.2052 -0.4056
   91MOL    H9514675   6.191   3.112   2.011 -0.2057  1.9212 -0.0469
   91MOL    H9614676   6.265   3.031   2.277 -1.9836  2.4921 -1.0670
   91MOL    H9714677   6.350   2.961   2.153 -0.6361 -1.5209 -1.3892
   91MOL    C9814678   6.190   3.235   2.192  0.1455 -0.5679  0.2951
   91MOL    C9914679   6.143   3.373   2.123  0.4578 -0.3150  1.1162
   91MOL   N10014680   6.059   3.343   2.009  0.1581 -0.4470 -0.2084
   91MOL   H10114681   6.103   3.196   2.244 -1.2449  1.5312 -0.3901
   91MOL   H10214682   6.265   3.258   2.269  0.8013 -2.1018  0.1194
   91MOL   H10314683   6.235   3.419   2.088  1.7527 -3.4477  0.2267
   91MOL   H10414684   6.113   3.290   1.942  0.3823 -2.0776  1.2191
   91MOL   H10514685   6.038   3.430   1.963 -0.8319 -0.0887  0.8784
   91MOL   C10614686   6.072   3.471   2.224 -0.6275 -0.0297  0.6549
   91MOL   C10714687   6.164   3.591   2.262 -0.1170  0.7891  0.0043
   91MOL   N10814688   6.080   3.702   2.293  0.8389 -1.1957 -0.2746
   91MOL   H10914689   5.982   3.509   2.176 -0.4130  2.0480  1.8276
   91MOL   H11014690   6.038   3.411   2.308  1.3284 -1.0127  0.7645
   91MOL   H11114691   6.222   3.620   2.174  0.2424 -0.8338 -0.3056
   91MOL   H11214692   6.125   3.791   2.312  1.7106 -1.2584 -1.9463
   91MOL   H11314693   6.029   3.695   2.380  0.6354  0.2731 -0.2554
   91MOL   C11414694   6.262   3.578   2.381  0.2436  0.1344  0.2599
   91MOL   C11514695   6.350   3.694   2.409 -1.1100 -0.0435  0.1697
   91MOL   N11614696   6.405   3.660   2.541 -0.1314  0.1569  0.4505
   91MOL   H11714697   6.205   3.553   2.471 -2.1077  1.4501 -0.8091
   91MOL   H11814698   6.321   3.487   2.381  0.1109  0.0069  2.5552
   91MOL   H11914699   6.287   3.780   2.432  0.1563 -0.1131  4.3233
   91MOL   H12014700   6.338   3.687   2.612  0.2268  1.3902  0.3283
   91MOL   H12114701   6.490   3.711   2.563  0.2220 -0.9809  1.7862
   91MOL   C12214702   6.452   3.723   2.305  0.2382 -0.1700 -0.2449
   91MOL   C12314703   6.523   3.856   2.339 -0.3934 -0.5851  0.3694
   91MOL   N12414704   6.625   3.873   2.238  1.2468  0.5013 -0.4227
   91MOL   H12514705   6.524   3.643   2.287 -0.8905 -0.9440 -1.3924
   91MOL   H12614706   6.413   3.740   2.205 -0.5053  1.4103  0.2927
   91MOL   H12714707   6.579   3.852   2.433  0.4169 -0.6749 -0.1057
   91MOL   H12814708   6.678   3.787   2.232 -1.8083 -1.3760 -1.0486
   91MOL   H12914709   6.691   3.944   2.268  1.4916 -0.2530  0.8757
   91MOL   C13014710   6.428   3.977   2.347 -0.0392  0.2240  0.3413
   91MOL   C13114711   6.391   4.024   2.493  0.5342 -0.9272  0.3492
   91MOL   N13214712   6.505   4.096   2.554 -0.0183  1.0523 -0.0672
   91MOL   H13314713   6.463   4.062   2.289  0.2900 -0.9586 -1.2477
   91MOL   H13414714   6.343   3.945   2.286  0.5719  1.4961 -1.2110
   91MOL   H13514715   6.355   3.940   2.553  0.9139 -0.5051  1.1756
   91MOL   H13614716   6.472   4.105   2.649 -0.2484 -0.7764  0.0522
   91MOL   H13714717   6.586   4.036   2.559 -0.4836  0.4168 -0.0434
   91MOL   C13814718   6.291   4.144   2.495 -0.2123  0.6961  0.4609
   91MOL   C13914719   6.200   4.139   2.616 -0.2192 -0.6981  0.4243
   91MOL   N14014720   6.130   4.264   2.623 -0.1632  0.1465  0.5025
   91MOL   H14114721   6.335   4.243   2.485  0.0031  0.6817  1.2200
   91MOL   H14214722   6.227   4.122   2.410 -1.6806 -0.0166  1.7376
   91MOL   H14314723   6.262   4.142   2.705  1.5223  2.5394 -0.8106
   91MOL   H14414724   6.066   4.256   2.700  1.1084 -1.0636  1.4540
   91MOL   H14514725   6.072   4.281   2.542 -0.4640  1.2879  0.9421
   91MOL   C14614726   6.105   4.021   2.630 -0.4872 -0.4613 -0.0108
   91MOL   C14714727   6.097   3.967   2.771 -0.0202  0.7411 -0.2497
   91MOL   N14814728   5.976   3.887   2.779 -0.1465  0.9351  0.5050
   91MOL   H14914729   6.005   4.052   2.602 -0.5782  0.7150  1.5573
   91MOL   H15014730   6.133   3.945   2.557  2.9367  1.1475 -0.5038
   91MOL   H15114731   6.090   4.050   2.841  1.6932 -0.3354  1.2610
   91MOL   H15214732   5.978   3.868   2.878  0.6139  0.2193  0.3574
   91MOL   H15314733   5.895   3.948   2.772  2.6157  4.5779 -1.2156
   91MOL   C15414734   6.221   3.880   2.819 -0.7745  0.1745 -0.0537
   91MOL   C15514735   6.312   3.946   2.916  0.8526  0.0408  0.0329
   91MOL   N15614736   6.430   3.872   2.946 -0.0849  0.9031 -0.4789
   91MOL   H15714737   6.192   3.789   2.871 -1.6863  0.5244  0.0656
   91MOL   H15814738   6.278   3.850   2.730 -0.0259  0.1828  0.4225
   91MOL   H15914739   6.261   3.979   3.006  0.1028  2.6314 -1.3032
   91MOL   H16014740   6.403   3.791   3.000 -1.5489  0.6538 -1.5302
   91MOL   H16114741   6.494   3.930   2.997  3.9578 -2.7126 -1.1241
   91MOL   H16214742   6.347   4.032   2.859 -2.6700  0.0061 -2.3531
   92MOL     C114743   4.672   4.480   5.307  0.2741 -0.1551 -0.2137
   92MOL     C214744   4.679   4.612   5.366 -0.1884 -0.5795  0.3559
   92MOL     N314745   4.555   4.683   5.343 -0.6644 -0.2641  0.1611
   92MOL     H414746   4.764   4.428   5.280 -0.6262 -2.0654  0.3109
   92MOL     H514747   4.617   4.485   5.213 -3.0960 -1.6962  1.6059
   92MOL     H614748   4.756   4.669   5.313 -0.5310 -1.5228 -1.1935
   92MOL     H714749   4.484   4.631   5.392 -0.2403 -0.7935  0.2167
   92MOL     H814750   4.548   4.768   5.397  1.3730 -0.2330  0.4068
   92MOL     H914751   4.615   4.414   5.372  1.3352  0.1551  1.0616
   92MOL    C1014752   4.720   4.608   5.512 -0.1178 -0.3077 -0.3905
   92MOL    C1114753   4.753   4.740   5.577  0.2551  0.6443 -0.0844
   92MOL    N1214754   4.757   4.722   5.726  0.1989  0.3559  0.6859
   92MOL    H1314755   4.642   4.556   5.567 -0.1672  1.2333  1.0015
   92MOL    H1414756   4.802   4.538   5.528  1.8812  1.9267 -0.5253
   92MOL    H1514757   4.673   4.814   5.572 -1.1750 -0.6539  2.6837
   92MOL    H1614758   4.825   4.783   5.770  0.2044  1.2181 -0.4983
   92MOL    H1714759   4.795   4.633   5.753  0.3597  0.9520  2.5470
   92MOL    C1814760   4.882   4.806   5.518 -0.0265 -0.0592  0.2355
   92MOL    C1914761   4.990   4.697   5.480 -0.3993  0.6861 -0.2538
   92MOL    N2014762   5.094   4.762   5.416 -0.2686 -0.2877 -0.7617
   92MOL    H2114763   4.850   4.858   5.427 -0.0937 -2.8696 -1.4058
   92MOL    H2214764   4.919   4.883   5.585 -0.0398  1.2372 -1.2259
   92MOL    H2314765   4.956   4.631   5.401  0.4622 -2.4326  1.8953
   92MOL    H2414766   5.063   4.783   5.323 -0.2692  0.1420 -0.6635
   92MOL    H2514767   5.174   4.700   5.405  1.6939  2.1991 -0.9737
   92MOL    C2614768   5.046   4.631   5.610 -0.0054  0.5261  0.0916
   92MOL    C2714769   5.170   4.544   5.602 -0.3766  0.0583 -0.1305
   92MOL    N2814770   5.189   4.478   5.732 -0.2107  0.2595 -0.2294
   92MOL    H2914771   5.072   4.716   5.673  4.1147  0.3754 -1.2742
   92MOL    H3014772   4.962   4.582   5.661 -1.3932 -0.9991 -3.4769
   92MOL    H3114773   5.254   4.611   5.585 -0.9887  1.0152  0.5905
   92MOL    H3214774   5.253   4.403   5.711 -1.6959 -1.1537  0.2218
   92MOL    H3314775   5.102   4.427   5.746 -0.9728  1.0514 -1.9443
   92MOL    C3414776   5.160   4.434   5.483  0.3491 -1.0324  0.4474
   92MOL    C3514777   5.296   4.371   5.423  0.7670  0.1789 -0.1864
   92MOL    N3614778   5.245   4.289   5.316 -0.3932 -0.2785 -0.1293
   92MOL    H3714779   5.094   4.354   5.515 -2.4141  0.5142 -1.1921
   92MOL    H3814780   5.108   4.481   5.399  2.3629  0.9077  0.2224
   92MOL    H3914781   5.340   4.311   5.503  2.4874  0.2616 -1.0401
   92MOL    H4014782   5.207   4.199   5.345 -0.1017 -0.1693  0.5967
   92MOL    H4114783   5.303   4.251   5.242 -2.4978 -0.5416 -1.6793
   92MOL    C4214784   5.406   4.468   5.372  0.5771  0.3469 -0.3636
   92MOL    C4314785   5.552   4.426   5.397  0.0671  0.9456  0.2061
   92MOL    N4414786   5.639   4.509   5.311  0.8743  0.0594  0.1639
   92MOL    H4514787   5.392   4.496   5.268 -1.6710  0.0360 -0.1614
   92MOL    H4614788   5.389   4.565   5.419 -1.5813 -0.5180  0.7032
   92MOL    H4714789   5.557   4.321   5.368  0.5621  1.1159 -0.3324
   92MOL    H4814790   5.649   4.595   5.364  0.8482  1.8340 -2.6182
   92MOL    H4914791   5.733   4.472   5.305 -0.0127 -2.0824 -1.0369
   92MOL    C5014792   5.590   4.439   5.542 -0.0590  0.3992  0.2695
   92MOL    C5114793   5.723   4.381   5.590  0.2822 -0.7520  0.0978
   92MOL    N5214794   5.776   4.465   5.698  0.0396 -0.4854 -0.3652
   92MOL    H5314795   5.577   4.544   5.568  2.9290  0.2465  2.6210
   92MOL    H5414796   5.517   4.388   5.605 -0.0561  0.4507  0.3148
   92MOL    H5514797   5.792   4.377   5.506 -0.2037 -2.5018 -0.2388
   92MOL    H5614798   5.705   4.463   5.770  0.9565  0.8112  0.6045
   92MOL    H5714799   5.796   4.563   5.682  0.3273  0.0913  3.0981
   92MOL    C5814800   5.707   4.238   5.645  0.4059 -0.1130  0.1680
   92MOL    C5914801   5.721   4.130   5.538  0.3456  0.2000 -0.0022
   92MOL    N6014802   5.795   4.016   5.599 -0.8358 -0.4902  0.1762
   92MOL    H6114803   5.774   4.213   5.727  0.4347  1.3693  0.6087
   92MOL    H6214804   5.614   4.232   5.702  0.8540 -0.0984  0.9057
   92MOL    H6314805   5.774   4.172   5.452 -0.5550  0.0362 -0.6447
   92MOL    H6414806   5.895   4.029   5.589 -0.6279 -1.8149  0.4658
   92MOL    H6514807   5.799   3.936   5.538  2.6868  0.2629 -0.7253
   92MOL    C6614808   5.583   4.078   5.496  0.6280  0.6575  0.0361
   92MOL    C6714809   5.570   4.003   5.363  0.1132 -0.1025 -0.7360
   92MOL    N6814810   5.441   3.940   5.361 -0.5072  0.5674 -0.0292
   92MOL    H6914811   5.546   4.010   5.573 -0.4338  1.5948  0.3662
   92MOL    H7014812   5.523   4.169   5.502 -0.5730 -0.0430 -0.9351
   92MOL    H7114813   5.639   3.919   5.375 -1.0635 -1.0595 -0.5029
   92MOL    H7214814   5.431   3.957   5.261 -0.6730 -0.8759 -0.2766
   92MOL    H7314815   5.382   4.012   5.400 -1.1279  0.0015  0.0898
   92MOL    C7414816   5.608   4.084   5.240 -0.7749 -0.1863 -0.9117
   92MOL    C7514817   5.587   4.004   5.113  0.0616  0.0358 -0.0376
   92MOL    N7614818   5.454   4.040   5.060 -0.3829  0.7362  0.7117
   92MOL    H7714819   5.542   4.168   5.221 -0.4363  0.6219  1.3224
   92MOL    H7814820   5.709   4.124   5.245 -0.7720 -0.0961 -1.7454
   92MOL    H7914821   5.590   3.898   5.138 -0.0146  0.1747  0.5683
   92MOL    H8014822   5.465   4.125   5.008 -0.1579 -0.0480 -0.5498
   92MOL    H8114823   5.431   3.978   4.984 -0.3104  2.1619 -0.4978
   92MOL    C8214824   5.696   4.029   5.010  0.2326  0.7761 -0.1386
   92MOL    C8314825   5.829   3.958   5.049 -0.1571  0.8073  0.3693
   92MOL    N8414826   5.819   3.817   5.023 -0.0150 -0.0843  0.1386
   92MOL    H8514827   5.661   3.991   4.915 -2.2978  1.4582  0.4605
   92MOL    H8614828   5.714   4.135   4.989  1.1918  0.6319 -0.0757
   92MOL    H8714829   5.861   3.962   5.153 -0.2491 -0.7763  0.4766
   92MOL    H8814830   5.781   3.797   4.932 -0.1079 -0.5874  0.2900
   92MOL    H8914831   5.914   3.783   5.022 -0.5333 -1.5922  0.5382
   92MOL    C9014832   5.941   4.025   4.962  0.1419 -0.0101  0.0306
   92MOL    C9114833   6.090   3.971   4.979  0.6549  0.4900  0.7719
   92MOL    N9214834   6.165   4.062   4.889  0.1578 -0.2353  0.1670
   92MOL    H9314835   5.914   4.022   4.856  0.7129  0.0460 -0.1173
   92MOL    H9414836   5.935   4.133   4.974 -1.8744  0.0349 -1.1399
   92MOL    H9514837   6.098   3.866   4.953  0.3663 -0.1527  3.1271
   92MOL    H9614838   6.144   4.045   4.791 -1.3297  1.3995  0.1602
   92MOL    H9714839   6.135   4.158   4.901 -0.0381 -0.3594  0.6678
   92MOL    C9814840   6.136   3.982   5.124  0.0364 -0.5000  0.4655
   92MOL    C9914841   6.261   3.890   5.155  0.1174 -0.0104  0.2707
   92MOL   N10014842   6.320   3.939   5.277  0.0930  0.0765 -0.7676
   92MOL   H10114843   6.173   4.083   5.143  1.2005 -1.3121  2.6830
   92MOL   H10214844   6.051   3.957   5.187  0.2227 -0.6746  0.6508
   92MOL   H10314845   6.336   3.904   5.078 -1.9426 -1.1821 -2.0340
   92MOL   H10414846   6.405   3.990   5.259  0.2536  0.0548 -0.0637
   92MOL   H10514847   6.365   3.856   5.312 -0.3284  0.4542  0.6758
   92MOL   C10614848   6.220   3.740   5.174 -0.2585  0.9212  0.2170
   92MOL   C10714849   6.343   3.644   5.189  0.3106 -0.1189 -0.1173
   92MOL   N10814850   6.298   3.512   5.229 -0.1447  0.3433  0.3592
   92MOL   H10914851   6.163   3.736   5.267  0.3868  0.6154  0.6062
   92MOL   H11014852   6.160   3.700   5.093  2.1537 -3.0864  0.3015
   92MOL   H11114853   6.403   3.686   5.269  0.2500  0.3078 -0.2939
   92MOL   H11214854   6.237   3.472   5.159  0.5126 -0.5753  0.2994
   92MOL   H11314855   6.236   3.517   5.309  0.2779 -4.4641  1.1243
   92MOL   C11414856   6.440   3.634   5.069 -0.0866 -0.0844 -0.2119
   92MOL   C11514857   6.579   3.565   5.094 -0.3420 -0.6717  0.3802
   92MOL   N11614858   6.645   3.569   4.959 -0.3050 -0.4529 -0.1783
   92MOL   H11714859   6.399   3.574   4.987  0.2508 -0.0309 -0.4208
   92MOL   H11814860   6.452   3.733   5.025 -1.8759 -0.6884 -2.1287
   92MOL   H11914861   6.568   3.461   5.123 -0.3698 -0.4805  1.0611
   92MOL   H12014862   6.598   3.509   4.893 -0.5141  0.1800 -0.6063
   92MOL   H12114863   6.731   3.519   4.976  1.2200  2.0797 -0.3134
   92MOL   C12214864   6.671   3.644   5.192  0.0385 -0.9291 -0.5195
   92MOL   C12314865   6.728   3.549   5.294 -0.7648 -0.4828  0.5785
   92MOL   N12414866   6.835   3.620   5.354  0.0261  0.1671 -0.6508
   92MOL   H12514867   6.756   3.682   5.136  0.2316 -0.8250 -0.1608
   92MOL   H12614868   6.617   3.726   5.239  0.4921 -1.9994  1.9275
   92MOL   H12714869   6.770   3.461   5.245  1.3592  0.3943  0.7676
   92MOL   H12814870   6.871   3.695   5.297  2.2390 -2.2284 -2.5216
   92MOL   H12914871   6.797   3.667   5.435 -1.3436  2.3203 -2.4785
   92MOL   C13014872   6.622   3.514   5.403 -0.0360 -0.0173  0.1673
   92MOL   C13114873   6.674   3.394   5.487 -0.4670  0.2640  0.4981
   92MOL   N13214874   6.584   3.371   5.598  0.3119  0.2860  0.0934
   92MOL   H13314875   6.610   3.587   5.483 -2.3379 -0.1051 -0.0676
   92MOL   H13414876   6.525   3.492   5.359  0.3272  0.6440 -0.9735
   92MOL   H13514877   6.781   3.406   5.505 -0.0172 -1.7021 -0.7208
   92MOL   H13614878   6.573   3.456   5.651  1.3463  0.1695  0.5073
   92MOL   H13714879   6.497   3.357   5.549  1.5660 -3.3108 -1.3269
   92MOL   C13814880   6.663   3.258   5.403 -0.1412  0.2601  0.1397
   92MOL   C13914881   6.770   3.149   5.442  0.3368 -0.1621  0.3823
   92MOL   N14014882   6.721   3.023   5.390 -0.9647  0.3732  0.4744
   92MOL   H14114883   6.562   3.218   5.416 -0.1768 -0.0294 -0.9855
   92MOL   H14214884   6.674   3.285   5.298  1.6802  0.1228  0.2880
   92MOL   H14314885   6.757   3.141   5.550 -1.0314  0.6632  0.2923
   92MOL   H14414886   6.620   3.022   5.394 -0.9721 -1.5888 -0.0390
   92MOL   H14514887   6.746   2.952   5.458 -0.6442 -0.5400 -0.5955
   92MOL   C14614888   6.921   3.180   5.407 -0.0421  0.1468 -0.4039
   92MOL   C14714889   7.030   3.156   5.521 -0.4366 -0.3904  0.1059
   92MOL   N14814890   7.022   3.245   5.635  0.4744 -0.1983  0.0749
   92MOL   H14914891   6.939   3.123   5.316 -1.7656 -0.7745 -0.1908
   92MOL   H15014892   6.922   3.282   5.370  1.0896 -0.1016 -1.1174
   92MOL   H15114893   7.130   3.173   5.480  0.3808  1.0071  2.5380
   92MOL   H15214894   7.065   3.335   5.620  1.1208 -0.3246  1.1905
   92MOL   H15314895   6.924   3.269   5.648  1.5168  3.7664  1.4111
   92MOL   C15414896   7.022   3.016   5.582 -0.1408 -0.2893  0.0183
   92MOL   C15514897   7.115   2.915   5.520  0.1882  0.6872  0.1685
   92MOL   N15614898   7.099   2.782   5.573 -0.4391  0.8489 -0.1153
   92MOL   H15714899   7.057   3.022   5.686  0.6416 -1.1485 -0.1897
   92MOL   H15814900   6.919   2.981   5.577 -0.0105 -0.9920  1.9108
   92MOL   H15914901   7.221   2.941   5.525  0.6755 -1.1788 -0.0446
   92MOL   H16014902   7.166   2.720   5.529 -2.2356 -1.0538 -0.2117
   92MOL   H16114903   7.017   2.753   5.522 -1.1744  0.5425  1.2141
   92MOL   H16214904   7.096   2.907   5.413 -0.9502 -1.4323  0.4947
   93MOL     C114905   0.685   5.949   2.426  0.6370  0.0930  0.1419
   93MOL     C214906   0.723   5.900   2.288 -0.0030 -0.3477  0.7691
   93MOL     N314907   0.641   5.790   2.254  0.2199  0.3624 -0.0953
   93MOL     H414908   0.583   5.986   2.425  0.9522  1.1193  2.4017
   93MOL     H514909   0.753   6.033   2.443 -0.5875  1.4311 -1.4726
   93MOL     H614910   0.824   5.858   2.297 -0.0690 -1.0386 -1.5987
   93MOL     H714911   0.614   5.738   2.336 -2.3429  0.0166 -1.1003
   93MOL     H814912   0.547   5.811   2.224 -0.0694  0.1785  0.6741
   93MOL     H914913   0.694   5.867   2.498 -2.1716  0.5076  1.0304
   93MOL    C1014914   0.734   6.008   2.178 -0.0176  0.6869 -0.0471
   93MOL    C1114915   0.858   6.013   2.089  0.3168  0.0497  0.3413
   93MOL    N1214916   0.813   6.068   1.960  0.7602 -0.0261 -0.0265
   93MOL    H1314917   0.650   6.004   2.109 -1.9688 -2.0424  2.3832
   93MOL    H1414918   0.723   6.108   2.220 -1.0527 -0.0151  1.3711
   93MOL    H1514919   0.890   5.912   2.067  1.8977  0.3211  1.3128
   93MOL    H1614920   0.746   6.010   1.912  0.0981  1.3303 -0.7763
   93MOL    H1714921   0.765   6.156   1.974  3.0418  1.0928  0.9080
   93MOL    C1814922   0.977   6.091   2.142 -0.3115 -0.4197  1.3602
   93MOL    C1914923   1.043   6.050   2.275 -0.9935 -0.0801  0.1609
   93MOL    N2014924   1.137   5.942   2.248  0.1064  0.4846 -0.0668
   93MOL    H2114925   1.054   6.093   2.065 -1.0855 -0.6693  0.5699
   93MOL    H2214926   0.938   6.192   2.148  2.3037  0.7169  0.1926
   93MOL    H2314927   0.976   6.015   2.353 -1.8531  0.3499 -0.3743
   93MOL    H2414928   1.162   5.930   2.151 -0.5459 -1.7751  0.0243
   93MOL    H2514929   1.081   5.860   2.265 -1.0764  1.1289 -0.8147
   93MOL    C2614930   1.118   6.168   2.340  0.1324 -0.0750 -0.2785
   93MOL    C2714931   1.048   6.275   2.416 -0.3156 -0.0760 -0.0484
   93MOL    N2814932   1.141   6.315   2.522 -0.0777  0.8276  0.6085
   93MOL    H2914933   1.198   6.111   2.388 -0.1289 -0.7045 -0.5870
   93MOL    H3014934   1.170   6.225   2.263 -0.5924  1.9431  0.6823
   93MOL    H3114935   0.965   6.226   2.465  0.6000 -0.3089  1.3032
   93MOL    H3214936   1.194   6.239   2.564 -1.0101  1.1596  2.4649
   93MOL    H3314937   1.208   6.374   2.475 -0.2960  0.9013  0.3905
   93MOL    C3414938   1.002   6.401   2.337 -0.3021 -0.2928 -0.2793
   93MOL    C3514939   0.890   6.476   2.407 -0.1643  0.5740  0.3044
   93MOL    N3614940   0.888   6.612   2.361 -0.0546  0.4384 -0.2272
   93MOL    H3714941   1.096   6.455   2.325  0.5812 -1.4653  1.2518
   93MOL    H3814942   0.970   6.376   2.236  1.0355  0.3025 -0.8774
   93MOL    H3914943   0.891   6.502   2.513 -4.1544  3.1078 -0.1493
   93MOL    H4014944   0.835   6.668   2.427 -0.3701  1.0193 -0.9661
   93MOL    H4114945   0.979   6.654   2.352 -0.2673  1.2805  1.3585
   93MOL    C4214946   0.751   6.395   2.376  0.3497  0.2368 -0.3001
   93MOL    C4314947   0.640   6.414   2.474  0.1489 -0.1898  0.5146
   93MOL    N4414948   0.511   6.377   2.410  0.3504 -0.2085  0.3367
   93MOL    H4514949   0.718   6.430   2.279  1.1468  0.3781 -0.5254
   93MOL    H4614950   0.764   6.288   2.360 -0.7851 -0.0404  0.5371
   93MOL    H4714951   0.643   6.522   2.486 -2.3295 -0.1940  1.6294
   93MOL    H4814952   0.431   6.418   2.455 -0.5700  0.6956 -2.0564
   93MOL    H4914953   0.507   6.276   2.409 -0.3407 -0.1958  1.3300
   93MOL    C5014954   0.659   6.338   2.602 -0.4831  0.0123 -0.8186
   93MOL    C5114955   0.597   6.402   2.725  0.5443  0.0532 -0.3667
   93MOL    N5214956   0.582   6.298   2.832 -0.0935  0.3209  0.2600
   93MOL    H5314957   0.620   6.237   2.585  0.2240 -0.1853 -1.2840
   93MOL    H5414958   0.763   6.316   2.622 -1.1275 -3.1782 -0.7407
   93MOL    H5514959   0.492   6.426   2.712  0.9157  0.7920 -2.1397
   93MOL    H5614960   0.518   6.226   2.800  0.7287 -0.9857  1.5000
   93MOL    H5714961   0.529   6.340   2.906  0.2236 -0.7122  1.0839
   93MOL    C5814962   0.685   6.509   2.784  0.3155  0.1490 -0.1991
   93MOL    C5914963   0.635   6.576   2.918  0.4948  1.0234 -0.2091
   93MOL    N6014964   0.680   6.495   3.027  0.4546 -0.0060 -0.8475
   93MOL    H6114965   0.784   6.466   2.800  0.5750  0.2288 -1.5963
   93MOL    H6214966   0.692   6.591   2.713 -0.2411  0.2013 -0.2004
   93MOL    H6314967   0.526   6.572   2.929  0.5094  2.2004  0.4141
   93MOL    H6414968   0.599   6.480   3.084  0.8513  0.1792 -0.2308
   93MOL    H6514969   0.694   6.400   2.995  0.2579  0.4175 -2.2415
   93MOL    C6614970   0.661   6.720   2.955  0.8083  0.4811 -0.4604
   93MOL    C6714971   0.807   6.759   2.945  0.1695 -0.3574 -0.5419
   93MOL    N6814972   0.842   6.796   2.808  0.3280  0.3431  0.7976
   93MOL    H6914973   0.611   6.771   2.872 -0.0166  1.0227  0.3592
   93MOL    H7014974   0.604   6.758   3.039  0.4404 -0.6619 -0.1921
   93MOL    H7114975   0.858   6.668   2.977  0.8154  0.2928  0.2749
   93MOL    H7214976   0.765   6.763   2.751 -0.0328  1.8716  0.3782
   93MOL    H7314977   0.917   6.733   2.785 -1.2311 -1.2940  0.0393
   93MOL    C7414978   0.835   6.865   3.043 -0.2408  0.2779 -0.6874
   93MOL    C7514979   0.841   6.795   3.180 -0.2748  0.2061 -0.2110
   93MOL    N7614980   0.976   6.740   3.192  0.3312 -0.2002 -0.0344
   93MOL    H7714981   0.927   6.913   3.011  0.6806 -1.2923 -0.4468
   93MOL    H7814982   0.757   6.941   3.037  0.6776  1.1324 -1.8256
   93MOL    H7914983   0.759   6.722   3.181  0.0619 -0.1848  1.2773
   93MOL    H8014984   1.012   6.700   3.107  0.0419  4.1567 -2.3904
   93MOL    H8114985   0.978   6.673   3.267 -0.3968 -0.9024 -0.6286
   93MOL    C8214986   0.823   6.896   3.300 -0.5029  0.2143  0.0512
   93MOL    C8314987   0.683   6.957   3.285 -0.1779  0.5323 -0.6004
   93MOL    N8414988   0.617   6.945   3.414  0.2638  0.0159 -0.2244
   93MOL    H8514989   0.844   6.837   3.389  0.3169  0.7135  0.1903
   93MOL    H8614990   0.892   6.979   3.290  0.6233 -0.9518 -2.2641
   93MOL    H8714991   0.621   6.894   3.222  0.8486 -0.4994 -0.5940
   93MOL    H8814992   0.644   7.025   3.469  1.8091  0.9290 -2.2339
   93MOL    H8914993   0.522   6.963   3.388 -0.1373  0.0262  1.1980
   93MOL    C9014994   0.666   7.111   3.247 -0.3999  1.0092  0.3264
   93MOL    C9114995   0.518   7.151   3.210  0.7190 -0.6973  0.4644
   93MOL    N9214996   0.502   0.017   3.235 -0.4927 -0.1669 -0.1325
   93MOL    H9314997   0.716   7.163   3.328 -0.1959  0.2116  0.7213
   93MOL    H9414998   0.729   7.128   3.160  1.3050  0.9883  1.5287
   93MOL    H9514999   0.456   7.099   3.283 -0.3656  1.2197  0.9258
   93MOL    H9615000   0.517   0.015   3.335 -2.2850 -0.7286  0.1532
   93MOL    H9715001   0.404   0.040   3.228 -0.4398  0.2661  0.4569
   93MOL    C9815002   0.472   7.112   3.074 -0.6397  0.8682 -0.5446
   93MOL    C9915003   0.327   7.125   3.050  0.5857  0.0242 -0.3731
   93MOL   N10015004   0.300   7.171   2.913 -0.2835  0.2315 -0.5345
   93MOL   H10115005   0.535   7.170   3.007 -0.4485  0.3811 -0.7868
   93MOL   H10215006   0.502   7.009   3.056  1.3839  1.8702 -3.1073
   93MOL   H10315007   0.281   7.203   3.109  0.9692  0.2965 -0.4275
   93MOL   H10415008   0.340   7.261   2.888  0.5331 -0.3345 -1.3035
   93MOL   H10515009   0.354   7.115   2.849 -0.6295  0.7655 -1.3143
   93MOL   C10615010   0.252   6.988   3.072 -0.0030 -0.2714  0.0581
   93MOL   C10715011   0.110   6.980   3.022 -0.4225 -0.6242 -0.0283
   93MOL   N10815012   0.061   6.846   3.036 -0.1614 -0.0401 -0.1978
   93MOL   H10915013   0.306   6.908   3.021  0.4084  0.3464 -0.4971
   93MOL   H11015014   0.254   6.970   3.179  0.7127 -3.8481 -0.4708
   93MOL   H11115015   0.102   6.991   2.914 -1.2531 -0.8210  0.0113
   93MOL   H11215016   7.257   6.833   2.975  0.6532 -0.1165 -1.2705
   93MOL   H11315017   0.141   6.795   3.000 -1.0003 -1.7958  0.3760
   93MOL   C11415018   0.022   7.072   3.110 -0.0190 -0.6169  0.0775
   93MOL   C11515019   7.155   7.088   3.055 -0.0966  0.3111  0.0225
   93MOL   N11615020   7.073   7.143   3.156  0.5831  0.3165  0.0459
   93MOL   H11715021   0.037   7.060   3.217 -0.5411 -1.4988  0.0645
   93MOL   H11815022   0.066   7.170   3.092 -1.0256 -0.5457 -2.1973
   93MOL   H11915023   7.116   6.988   3.039  0.3664 -0.1958  1.9385
   93MOL   H12015024   7.052   7.073   3.226  1.1011  0.4449  0.3302
   93MOL   H12115025   6.981   7.173   3.126  0.4390 -0.2774 -0.1053
   93MOL   C12215026   7.129   7.180   2.929 -0.3399 -0.4126  0.2013
   93MOL   C12315027   7.185   7.143   2.790  0.2128 -0.3283  0.1905
   93MOL   N12415028   7.111   7.032   2.739 -0.3031 -0.2220 -0.1003
   93MOL   H12515029   7.025   7.205   2.910  0.3247  1.0221 -1.8015
   93MOL   H12615030   7.167   0.004   2.952  0.4616 -0.7564  0.3774
   93MOL   H12715031   0.015   7.116   2.783  0.5844  1.1080  0.1992
   93MOL   H12815032   7.115   7.026   2.638  0.5580 -0.9293 -0.0366
   93MOL   H12915033   7.153   6.944   2.765  1.7419  0.4666 -0.9357
   93MOL   C13015034   7.170   7.262   2.695  0.4112 -0.0611 -0.3454
   93MOL   C13115035   7.262   0.104   2.699 -0.3598 -0.0799 -0.2445
   93MOL   N13215036   0.110   0.074   2.632  0.8776 -0.0024 -0.0627
   93MOL   H13315037   7.162   7.229   2.591 -1.8461 -1.5007  0.2373
   93MOL   H13415038   7.067   0.021   2.709 -0.7216 -2.9234 -1.2677
   93MOL   H13515039   0.023   0.127   2.799 -0.1287  2.1046 -0.8108
   93MOL   H13615040   0.169   0.149   2.666 -0.4938  1.5278 -0.9817
   93MOL   H13715041   0.157   7.265   2.663 -1.2994 -1.0803  0.3479
   93MOL   C13815042   7.186   0.218   2.627  0.0293  0.5450 -0.2833
   93MOL   C13915043   7.093   0.288   2.730 -0.6655 -0.5468  0.2429
   93MOL   N14015044   7.172   0.345   2.835 -0.1701  0.0830  0.5850
   93MOL   H14115045   7.265   0.287   2.598 -1.1627  1.1922 -2.1355
   93MOL   H14215046   7.137   0.184   2.535 -2.4726  2.8708  0.1262
   93MOL   H14315047   7.037   0.206   2.776 -0.5853  0.0350  1.3890
   93MOL   H14415048   7.211   0.273   2.893  1.3417 -0.4983 -1.0949
   93MOL   H14515049   7.111   0.401   2.893  1.2918  0.7467  1.4929
   93MOL   C14615050   6.991   0.393   2.689  0.0765 -0.7059 -0.3893
   93MOL   C14715051   6.870   0.341   2.616  0.4550  0.9641 -0.1372
   93MOL   N14815052   6.900   0.297   2.481  0.0255  0.6844  0.1862
   93MOL   H14915053   6.945   0.445   2.773 -2.0239  0.0376 -1.9397
   93MOL   H15015054   7.047   0.463   2.627  0.4578 -0.1494  0.5663
   93MOL   H15115055   6.799   0.424   2.608  1.1260  1.6406  0.7468
   93MOL   H15215056   6.826   0.240   2.442 -0.4561  1.6831 -0.3758
   93MOL   H15315057   6.977   0.232   2.479 -0.6673 -0.1240 -0.7350
   93MOL   C15415058   6.783   0.229   2.682 -0.1975  0.5329  0.0778
   93MOL   C15515059   6.727   0.264   2.826 -0.0094  0.1009 -0.1476
   93MOL   N15615060   6.657   0.146   2.891 -0.1170 -0.9196  0.3446
   93MOL   H15715061   6.697   0.212   2.616  0.5590  0.2022 -0.8255
   93MOL   H15815062   6.824   0.129   2.693  2.1085  1.4126 -0.4480
   93MOL   H15915063   6.650   0.340   2.811 -0.4115 -0.0539  1.0670
   93MOL   H16015064   6.571   0.127   2.841 -0.6872 -1.2869  1.4549
   93MOL   H16115065   6.707   0.061   2.868  1.6130  0.1033  0.2507
   93MOL   H16215066   6.804   0.305   2.892  0.0433 -1.1049  0.5498
   94MOL     C115067   0.040   6.342   3.834  0.3089  0.7098  0.0357
   94MOL     C215068   0.042   6.376   3.988 -0.1797 -0.9908 -0.2042
   94MOL     N315069   0.026   6.259   4.068 -0.0451 -0.2342  0.9136
   94MOL     H415070   0.040   6.430   3.769 -2.4249 -0.9741 -2.3859
   94MOL     H515071   7.227   6.281   3.815 -0.8331  2.2536  0.2755
   94MOL     H615072   7.232   6.441   4.002  0.4766  0.5199 -2.7948
   94MOL     H715073   0.114   6.221   4.102  0.6135 -2.8253 -3.3371
   94MOL     H815074   7.259   6.298   4.151 -0.5502 -0.1583  0.6191
   94MOL     H915075   0.132   6.292   3.805  1.4966  1.8539  1.7670
   94MOL    C1015076   0.161   6.468   4.032 -0.4668  0.4917  0.5153
   94MOL    C1115077   0.172   6.609   3.961 -0.8496 -0.2079  0.1327
   94MOL    N1215078   0.054   6.690   3.988  0.4410  0.1816 -0.4805
   94MOL    H1315079   0.170   6.481   4.140  1.7208  0.5214  0.3463
   94MOL    H1415080   0.239   6.402   3.996  1.3397  2.2699  1.1191
   94MOL    H1515081   0.186   6.597   3.854  1.7980 -1.6356  0.6049
   94MOL    H1615082   0.053   6.789   3.970 -1.3514  0.3730  0.5521
   94MOL    H1715083   7.247   6.657   3.940 -0.4624 -0.5073  1.4993
   94MOL    C1815084   0.296   6.689   4.003  0.1382 -0.5340 -0.0027
   94MOL    C1915085   0.428   6.640   3.945 -0.2812  0.0755  0.5933
   94MOL    N2015086   0.425   6.670   3.802  0.6012 -0.8953 -0.0518
   94MOL    H2115087   0.282   6.792   3.970  1.3577  0.2584  1.9093
   94MOL    H2215088   0.301   6.692   4.111  2.3897  0.1090 -0.0981
   94MOL    H2315089   0.425   6.531   3.945 -2.0815  0.1013  1.2018
   94MOL    H2415090   0.377   6.593   3.758  1.4640 -1.1809 -0.5106
   94MOL    H2515091   0.519   6.670   3.764  0.4345 -1.0899 -0.4763
   94MOL    C2615092   0.552   6.710   4.011  0.2187  0.2361 -0.2277
   94MOL    C2715093   0.599   6.653   4.148  0.0439 -0.5420  0.6459
   94MOL    N2815094   0.620   6.511   4.126 -0.2774  0.0928  0.4751
   94MOL    H2915095   0.630   6.695   3.937  0.0208  1.2793 -0.6579
   94MOL    H3015096   0.537   6.817   4.004 -0.2530  0.3230  1.7969
   94MOL    H3115097   0.520   6.651   4.224  0.4980  0.7046  1.1609
   94MOL    H3215098   0.689   6.514   4.053 -1.0534  1.5837 -0.2109
   94MOL    H3315099   0.674   6.473   4.203  0.1160  1.1360  0.7149
   94MOL    C3415100   0.726   6.727   4.206  0.1949  0.3007  0.2907
   94MOL    C3515101   0.707   6.867   4.275  0.0940 -0.1598 -0.1359
   94MOL    N3615102   0.831   6.900   4.342 -0.2992 -0.3144 -0.5721
   94MOL    H3715103   0.780   6.660   4.272  0.5464  0.7687  0.4814
   94MOL    H3815104   0.795   6.736   4.122 -2.1984  1.7875 -1.5992
   94MOL    H3915105   0.629   6.847   4.348  0.1155  0.8043  0.1689
   94MOL    H4015106   0.829   6.975   4.409 -0.9364 -0.5294 -0.3465
   94MOL    H4115107   0.908   6.931   4.283 -0.0676 -0.3875 -0.3070
   94MOL    C4215108   0.661   6.983   4.176  0.4197  0.1506  0.2849
   94MOL    C4315109   0.509   7.021   4.170 -0.8954 -0.7320 -0.1155
   94MOL    N4415110   0.475   7.068   4.300 -0.2233  0.0366  0.2662
   94MOL    H4515111   0.713   7.074   4.207 -1.7673  1.2669  0.7197
   94MOL    H4615112   0.704   6.966   4.077 -1.2837  2.8884 -0.9909
   94MOL    H4715113   0.442   6.939   4.146 -0.5725 -1.6977  2.1516
   94MOL    H4815114   0.443   6.988   4.352  0.0430  0.6130  1.3363
   94MOL    H4915115   0.384   7.109   4.286 -0.1448  0.0073 -0.3287
   94MOL    C5015116   0.481   7.143   4.080  0.5901  0.3531 -0.2320
   94MOL    C5115117   0.488   7.091   3.934 -0.9287  0.0882 -0.1700
   94MOL    N5215118   0.370   7.014   3.910  0.0486 -0.2909  0.0032
   94MOL    H5315119   0.392   7.203   4.100  1.5923  1.1726  1.8457
   94MOL    H5415120   0.562   7.215   4.093  0.4535  0.3468  0.6488
   94MOL    H5515121   0.575   7.026   3.928  1.7566  3.4769  0.7852
   94MOL    H5615122   0.385   6.927   3.960  1.1722 -1.1207 -1.7246
   94MOL    H5715123   0.370   6.984   3.814 -0.1706  0.7973 -0.3405
   94MOL    C5815124   0.490   7.201   3.828 -1.0890 -0.1957 -0.1363
   94MOL    C5915125   0.572   7.164   3.707  0.3409  0.2801  0.1657
   94MOL    N6015126   0.498   7.194   3.588 -0.1496 -0.2852  0.3008
   94MOL    H6115127   0.391   7.234   3.798 -0.5833  0.1530 -1.4968
   94MOL    H6215128   0.521   0.020   3.871 -1.8491 -0.8950  2.0152
   94MOL    H6315129   0.570   7.056   3.696 -1.6046  0.4751 -1.6918
   94MOL    H6415130   0.439   0.000   3.597 -1.8140 -1.4470  0.2901
   94MOL    H6515131   0.423   7.126   3.581  0.8436 -1.1211 -2.4485
   94MOL    C6615132   0.717   7.217   3.707 -0.7643  0.1440  0.4342
   94MOL    C6715133   0.811   7.160   3.817  0.9721 -0.7368  0.6512
   94MOL    N6815134   0.864   7.028   3.773 -0.6478 -0.2988  0.1261
   94MOL    H6915135   0.761   7.204   3.608 -0.7608 -2.3660  0.7374
   94MOL    H7015136   0.719   0.045   3.743  1.2699 -0.1749  1.3021
   94MOL    H7115137   0.753   7.148   3.909 -0.1343  0.8522  0.1845
   94MOL    H7215138   0.946   7.013   3.830 -1.7133  2.6865  2.6058
   94MOL    H7315139   0.893   7.054   3.680 -0.1068  0.5878  0.5244
   94MOL    C7415140   0.931   7.238   3.865  0.1355 -0.1758 -0.6807
   94MOL    C7515141   1.011   7.167   3.984  0.0194  0.3477  0.7924
   94MOL    N7615142   1.115   7.079   3.932  0.3800 -0.2069 -0.9523
   94MOL    H7715143   0.997   7.267   3.784  0.3021  0.4744 -0.3144
   94MOL    H7815144   0.888   0.054   3.907  0.7491  0.0571 -0.5600
   94MOL    H7915145   0.949   7.105   4.048 -0.2155  0.9853  1.1799
   94MOL    H8015146   1.170   7.060   4.015 -0.0260  0.2751 -0.5647
   94MOL    H8115147   1.182   7.134   3.879 -0.0109  1.0330 -0.1950
   94MOL    C8215148   1.083   7.263   4.073 -0.5601 -0.0375  0.2375
   94MOL    C8315149   0.996   0.079   4.165  0.8039  0.1939 -0.1616
   94MOL    N8415150   0.915   7.266   4.243  0.0802 -0.4374  0.3462
   94MOL    H8515151   1.156   7.214   4.138 -0.8105  0.2604  0.7460
   94MOL    H8615152   1.139   0.056   4.009 -1.2284  1.0174  0.7667
   94MOL    H8715153   0.926   0.135   4.102  0.2408 -0.0583  0.2329
   94MOL    H8815154   0.853   7.221   4.177  0.0711 -0.7017  0.5332
   94MOL    H8915155   0.857   0.033   4.314 -2.0559 -2.2967 -0.2054
   94MOL    C9015156   1.084   0.174   4.246  0.2539  0.1915 -0.1689
   94MOL    C9115157   1.046   0.320   4.231 -0.0160  0.4678  0.0835
   94MOL    N9215158   1.124   0.397   4.329  0.0666  1.1333 -0.8419
   94MOL    H9315159   1.086   0.156   4.353 -0.1717 -1.3391 -0.4026
   94MOL    H9415160   1.187   0.174   4.211 -0.4286  1.2359 -2.3082
   94MOL    H9515161   0.942   0.337   4.262  0.2490  1.8093  0.2877
   94MOL    H9615162   1.072   0.387   4.415  0.3737 -0.6194 -0.8493
   94MOL    H9715163   1.123   0.495   4.303  1.2528  2.0336  2.3715
   94MOL    C9815164   1.063   0.378   4.089 -0.5204 -0.3034  0.0967
   94MOL    C9915165   0.977   0.515   4.062 -0.0250 -0.3574  0.7212
   94MOL   N10015166   1.063   0.631   4.061 -0.1230 -0.0841 -1.0826
   94MOL   H10115167   1.166   0.387   4.052 -0.2758 -3.3671 -0.1051
   94MOL   H10215168   1.036   0.302   4.016 -0.6332  1.2295 -1.4676
   94MOL   H10315169   0.917   0.517   4.152 -1.1555  0.9985 -0.0347
   94MOL   H10415170   1.092   0.656   4.154 -2.7124 -0.2084 -0.2148
   94MOL   H10515171   1.007   0.710   4.030  0.2016 -0.4940 -2.7861
   94MOL   C10615172   0.897   0.518   3.930  1.0673  0.3492  0.0448
   94MOL   C10715173   0.796   0.402   3.906  0.3467  0.2992  0.4699
   94MOL   N10815174   0.690   0.411   4.010 -0.1664 -0.0660  0.1232
   94MOL   H10915175   0.844   0.611   3.907 -1.3585 -0.6270  1.5138
   94MOL   H11015176   0.960   0.520   3.841 -0.7988 -2.0010 -1.3849
   94MOL   H11115177   0.861   0.317   3.925 -0.4443 -0.8156 -1.6640
   94MOL   H11215178   0.614   0.345   3.999  0.4303 -0.6968 -0.3304
   94MOL   H11315179   0.737   0.375   4.092 -0.3929  0.0484  0.3015
   94MOL   C11415180   0.738   0.393   3.764 -0.4144 -0.1543  0.4098
   94MOL   C11515181   0.840   0.409   3.645 -0.4348  0.3683  0.6924
   94MOL   N11615182   0.789   0.333   3.529 -0.1647 -0.2661 -0.6454
   94MOL   H11715183   0.692   0.297   3.745  0.5754 -0.5447 -0.0335
   94MOL   H11815184   0.665   0.472   3.747  0.1754 -0.0887 -1.9778
   94MOL   H11915185   0.940   0.373   3.667 -0.8752 -0.5305  1.2683
   94MOL   H12015186   0.760   0.245   3.569  2.6478 -1.6588 -1.5122
   94MOL   H12115187   0.862   0.307   3.464  1.6545  0.3025  1.1066
   94MOL   C12215188   0.851   0.551   3.598 -0.7152  1.1337 -0.0536
   94MOL   C12315189   0.984   0.607   3.550 -0.3441 -0.8366 -0.3263
   94MOL   N12415190   0.998   0.565   3.414  0.0782  0.0427  0.4145
   94MOL   H12515191   0.771   0.587   3.534 -0.3916  1.4333 -0.2926
   94MOL   H12615192   0.809   0.602   3.685 -2.3598  0.1543 -0.2500
   94MOL   H12715193   1.060   0.562   3.614  1.1243  1.7325 -0.1666
   94MOL   H12815194   1.016   0.466   3.411  0.0372  0.0869 -1.3051
   94MOL   H12915195   0.903   0.567   3.381  0.6135  0.5409 -1.1153
   94MOL   C13015196   0.999   0.760   3.547  0.1431 -0.3907 -0.6513
   94MOL   C13115197   0.958   0.839   3.677 -0.4549  0.4431  0.1160
   94MOL   N13215198   1.051   0.803   3.778 -0.2967 -0.3026  0.5179
   94MOL   H13315199   1.101   0.783   3.515  0.4728 -0.4472  0.3597
   94MOL   H13415200   0.929   0.791   3.469 -0.2589 -2.3297 -1.0785
   94MOL   H13515201   0.856   0.811   3.705  1.1723 -2.2911  3.5679
   94MOL   H13615202   1.045   0.879   3.844 -2.8356 -0.6005  0.6748
   94MOL   H13715203   1.141   0.783   3.738 -0.6767 -0.5220 -0.2357
   94MOL   C13815204   0.952   0.992   3.666 -0.2406 -0.5141 -0.5296
   94MOL   C13915205   0.837   1.051   3.579  0.3905 -0.2317 -0.2654
   94MOL   N14015206   0.715   1.031   3.661 -0.1219  0.3790 -0.0599
   94MOL   H14115207   0.948   1.045   3.761 -1.3805 -0.0782 -0.8134
   94MOL   H14215208   1.044   1.022   3.615 -0.2374  0.9148  0.2929
   94MOL   H14315209   0.827   0.987   3.492  0.9475  1.1761 -1.3803
   94MOL   H14415210   0.627   1.050   3.615 -0.4639 -1.3160 -0.1365
   94MOL   H14515211   0.716   0.934   3.688  1.2743  1.0877  2.5785
   94MOL   C14615212   0.849   1.201   3.536  0.0107  0.3525  0.3354
   94MOL   C14715213   0.947   1.233   3.421  0.0914 -0.6182 -0.3431
   94MOL   N14815214   0.910   1.161   3.299 -0.3898  0.1236  0.5678
   94MOL   H14915215   0.746   1.222   3.507  0.3543 -0.8912 -1.9024
   94MOL   H15015216   0.870   1.274   3.614 -0.8834  2.7095 -1.5771
   94MOL   H15115217   1.050   1.225   3.456  0.3317  1.5539 -0.4951
   94MOL   H15215218   0.912   1.060   3.308 -0.0793  0.0607 -0.1727
   94MOL   H15315219   0.966   1.184   3.218 -1.1626  0.3579  0.0865
   94MOL   C15415220   0.936   1.379   3.383 -0.1274  0.3916  0.7330
   94MOL   C15515221   1.045   1.421   3.276  0.3301  1.1000  0.1283
   94MOL   N15615222   1.040   1.358   3.145  0.2576  0.2652  0.2832
   94MOL   H15715223   0.836   1.395   3.341  0.5618 -0.6517 -1.3985
   94MOL   H15815224   0.949   1.435   3.475 -0.2591  1.6738 -0.0258
   94MOL   H15915225   1.146   1.400   3.311 -0.0981 -1.6795 -0.2021
   94MOL   H16015226   1.110   1.405   3.089  0.0670  1.5122  1.0659
   94MOL   H16115227   0.950   1.370   3.099  0.8158  0.9907 -0.6510
   94MOL   H16215228   1.032   1.528   3.261 -2.6539  0.4353 -2.7239
   95MOL     C115229   0.142   3.588   6.670 -0.0785 -0.6838 -0.2387
   95MOL     C215230   0.109   3.728   6.622 -0.5563  0.3160 -0.7122
   95MOL     N315231   0.125   3.821   6.728  0.4845 -0.4395 -0.1433
   95MOL     H415232   0.248   3.589   6.697  0.2877 -1.7490 -1.6102
   95MOL     H515233   0.130   3.521   6.585  0.2715  0.1295 -0.9482
   95MOL     H615234   0.006   3.728   6.587 -1.0860  3.5992  0.6685
   95MOL     H715235   0.076   3.797   6.813  1.2834  1.3462  0.8455
   95MOL     H815236   0.220   3.813   6.760  0.8605  1.1267 -0.8203
   95MOL     H915237   0.072   3.555   6.746  1.0543  0.2889  1.2830
   95MOL    C1015238   0.208   3.781   6.510  0.6425  0.5409  0.0886
   95MOL    C1115239   0.161   3.760   6.361  0.3099  0.1565 -0.5535
   95MOL    N1215240   0.253   3.821   6.265  0.0774 -0.2111 -0.1301
   95MOL    H1315241   0.237   3.885   6.525  1.1164  0.4114  0.0873
   95MOL    H1415242   0.304   3.732   6.524  0.5637 -0.6150 -3.0082
   95MOL    H1515243   0.066   3.807   6.339  1.4373  3.8902  1.9526
   95MOL    H1615244   0.338   3.766   6.263 -0.7156 -1.4354 -0.8511
   95MOL    H1715245   0.287   3.909   6.300 -0.3732 -0.9705  2.3440
   95MOL    C1815246   0.144   3.613   6.322  0.4372 -0.0500  0.5544
   95MOL    C1915247   0.135   3.583   6.174  0.1723 -0.2220 -0.0246
   95MOL    N2015248   0.173   3.445   6.163  0.7186  0.1288 -0.3091
   95MOL    H2115249   0.214   3.546   6.372 -0.7456 -0.5206  1.6128
   95MOL    H2215250   0.050   3.579   6.367 -0.3557 -0.6624 -1.4978
   95MOL    H2315251   0.210   3.630   6.111  0.8665 -0.7983  0.3752
   95MOL    H2415252   0.116   3.387   6.224  1.8085  1.1381  1.7120
   95MOL    H2515253   0.160   3.414   6.068 -1.3946  0.5323 -0.1838
   95MOL    C2615254   7.270   3.603   6.106  0.7268 -0.2630 -0.2093
   95MOL    C2715255   7.208   3.740   6.098 -0.0233 -0.2330  0.1297
   95MOL    N2815256   0.036   3.837   6.060 -0.0464  0.2294 -0.1734
   95MOL    H2915257   7.254   3.570   6.003 -1.5507  0.4880 -0.1433
   95MOL    H3015258   7.202   3.540   6.163  1.2710 -1.4603 -0.8741
   95MOL    H3115259   7.177   3.768   6.199  1.4958  2.0252  0.0167
   95MOL    H3215260   0.113   3.822   6.122  0.6293 -0.3966 -1.1386
   95MOL    H3315261   0.001   3.925   6.094 -1.4845  0.0263 -1.0561
   95MOL    C3415262   7.081   3.766   6.013 -0.8520 -0.4667 -0.0276
   95MOL    C3515263   6.978   3.652   6.020 -0.5597 -0.5683  0.5755
   95MOL    N3615264   6.930   3.637   6.153 -0.2770 -0.0861 -0.1508
   95MOL    H3715265   7.034   3.861   6.040 -1.6415 -0.1468 -2.4321
   95MOL    H3815266   7.121   3.767   5.912  0.7596 -2.0073  0.5774
   95MOL    H3915267   7.018   3.563   5.971 -0.0999  0.2457 -0.5770
   95MOL    H4015268   6.856   3.701   6.177  0.7455  0.3208  2.0316
   95MOL    H4115269   6.897   3.542   6.153 -1.2596  0.2505  0.3149
   95MOL    C4215270   6.859   3.684   5.933  0.8216  0.1142  0.1469
   95MOL    C4315271   6.884   3.685   5.777  0.0294  0.1871 -0.5683
   95MOL    N4415272   6.876   3.545   5.735  0.7198  0.5028  0.1882
   95MOL    H4515273   6.784   3.607   5.951  0.3602  0.8099  1.2455
   95MOL    H4615274   6.814   3.776   5.970  1.9448 -0.1701  2.2653
   95MOL    H4715275   6.982   3.725   5.755  0.0410  1.8388  2.2801
   95MOL    H4815276   6.962   3.501   5.765 -0.1571 -0.7192  0.9535
   95MOL    H4915277   6.897   3.548   5.636 -0.4992  1.0301 -0.0682
   95MOL    C5015278   6.781   3.774   5.699 -0.2167  0.9026  0.3157
   95MOL    C5115279   6.765   3.925   5.726  0.2212  0.1005  0.4415
   95MOL    N5215280   6.858   4.007   5.648  0.3257  0.3185 -0.2534
   95MOL    H5315281   6.796   3.755   5.592  1.5314 -1.4261  0.9233
   95MOL    H5415282   6.683   3.731   5.718 -0.4042  1.0066 -0.4021
   95MOL    H5515283   6.791   3.945   5.830  1.1052  0.7727  0.0903
   95MOL    H5615284   6.840   4.103   5.674 -0.4777 -0.3768  1.8306
   95MOL    H5715285   6.953   3.982   5.672  0.0790  0.5863  1.0486
   95MOL    C5815286   6.618   3.974   5.694  0.4658  0.2369 -0.2721
   95MOL    C5915287   6.518   3.957   5.810  0.5794 -0.0432  0.5625
   95MOL    N6015288   6.571   4.042   5.928 -0.0657  0.2950  0.2573
   95MOL    H6115289   6.618   4.082   5.678  1.0180  0.3819  0.6453
   95MOL    H6215290   6.577   3.937   5.600  0.2891 -0.4079  0.0645
   95MOL    H6315291   6.533   3.854   5.842 -0.1475 -0.4530 -0.3823
   95MOL    H6415292   6.493   4.096   5.963 -0.0608  0.0567  0.6429
   95MOL    H6515293   6.646   4.104   5.900 -0.3896  0.8252  0.5533
   95MOL    C6615294   6.368   3.985   5.787 -0.2879 -0.7614  0.6635
   95MOL    C6715295   6.287   3.903   5.680  0.2144  0.0120 -0.3019
   95MOL    N6815296   6.249   3.769   5.740 -0.2299  0.1776  0.8916
   95MOL    H6915297   6.321   3.958   5.881  0.7324  2.0726  2.0098
   95MOL    H7015298   6.333   4.087   5.774 -0.2934 -0.8607 -0.1256
   95MOL    H7115299   6.346   3.889   5.590 -0.7104 -1.9986 -0.6266
   95MOL    H7215300   6.206   3.716   5.666 -0.5873 -1.7519  2.4407
   95MOL    H7315301   6.332   3.712   5.751  1.6601  2.2402 -2.0732
   95MOL    C7415302   6.147   3.960   5.643  0.0538  0.2470 -0.2463
   95MOL    C7515303   6.155   4.095   5.574 -0.7590 -0.1391 -0.5837
   95MOL    N7615304   6.080   4.089   5.451  0.3549 -0.4501  0.6521
   95MOL    H7715305   6.094   3.883   5.587 -0.8426  1.0493 -0.5114
   95MOL    H7815306   6.093   3.963   5.738  2.4950  0.9867  1.1704
   95MOL    H7915307   6.258   4.098   5.538 -0.3016 -0.9068  0.6262
   95MOL    H8015308   6.051   4.175   5.405  0.7766 -0.2482  0.7550
   95MOL    H8115309   6.125   4.032   5.380 -1.3097  2.4240 -2.9204
   95MOL    C8215310   6.121   4.212   5.654 -0.6401  0.4358 -0.1558
   95MOL    C8315311   6.153   4.350   5.588 -0.2928  0.8054  0.1429
   95MOL    N8415312   6.068   4.451   5.648  0.2498 -0.1753  0.0427
   95MOL    H8515313   6.017   4.201   5.685 -0.2688 -0.9383  0.6328
   95MOL    H8615314   6.187   4.207   5.741 -1.0870  1.1080  0.2287
   95MOL    H8715315   6.138   4.351   5.480  2.0807  1.5283 -0.2122
   95MOL    H8815316   5.969   4.432   5.651  0.0273  1.0719  1.1966
   95MOL    H8915317   6.087   4.464   5.746 -1.9324  0.9284  0.3574
   95MOL    C9015318   6.300   4.414   5.602  0.2892  0.3861 -0.3024
   95MOL    C9115319   6.417   4.329   5.546  0.2901  0.4068  0.1984
   95MOL    N9215320   6.385   4.280   5.414 -0.9196  0.3635 -0.0612
   95MOL    H9315321   6.298   4.520   5.581 -0.1467  0.6906  1.1778
   95MOL    H9415322   6.321   4.424   5.709 -0.8171  2.1248 -0.2341
   95MOL    H9515323   6.438   4.242   5.609  1.0497  1.4412  1.4013
   95MOL    H9615324   6.299   4.228   5.426  0.5830 -1.9652  1.1680
   95MOL    H9715325   6.347   4.359   5.364  0.4873 -0.9736 -3.3942
   95MOL    C9815326   6.546   4.417   5.538 -0.4725 -0.8378  0.0705
   95MOL    C9915327   6.594   4.466   5.679  0.3038  0.1398 -0.5861
   95MOL   N10015328   6.653   4.357   5.751  0.7499 -0.0943 -0.2611
   95MOL   H10115329   6.624   4.356   5.493 -1.3957 -0.5621 -1.9909
   95MOL   H10215330   6.533   4.497   5.465  0.9462  0.3308  1.0867
   95MOL   H10315331   6.503   4.493   5.732 -0.3687 -1.8152 -0.6925
   95MOL   H10415332   6.583   4.285   5.758  0.1515  0.6462  1.6102
   95MOL   H10515333   6.676   4.380   5.846 -0.5016 -2.7564  0.7229
   95MOL   C10615334   6.693   4.586   5.673 -0.7039  0.1653  0.0103
   95MOL   C10715335   6.623   4.719   5.672 -0.3064 -0.4087 -0.7343
   95MOL   N10815336   6.589   4.755   5.804 -1.0824  0.4498  0.0385
   95MOL   H10915337   6.765   4.582   5.754  2.1903 -0.8385 -2.4843
   95MOL   H11015338   6.753   4.561   5.585  0.4575  0.2785  0.7734
   95MOL   H11115339   6.534   4.708   5.610 -1.1169  2.5249 -0.1982
   95MOL   H11215340   6.591   4.856   5.804 -1.2604  0.4552 -0.2983
   95MOL   H11315341   6.656   4.742   5.878  1.0079  0.1656 -1.8498
   95MOL   C11415342   6.703   4.836   5.616  1.0116 -0.3604  0.2716
   95MOL   C11515343   6.775   4.814   5.484 -0.4305 -1.0152  0.3137
   95MOL   N11615344   6.730   4.909   5.379  0.0839 -0.7947 -0.6134
   95MOL   H11715345   6.641   4.925   5.609  1.8092  0.2244  0.4820
   95MOL   H11815346   6.782   4.861   5.687  1.5148 -2.0574  0.3454
   95MOL   H11915347   6.763   4.714   5.441 -1.6014 -1.1691  0.9657
   95MOL   H12015348   6.630   4.904   5.364  0.2971 -1.5778 -1.8012
   95MOL   H12115349   6.764   4.889   5.286 -0.6545  0.8372 -1.2486
   95MOL   C12215350   6.928   4.826   5.505  0.0269  0.1864 -1.0804
   95MOL   C12315351   7.004   4.696   5.539  0.1371  0.2920  0.5944
   95MOL   N12415352   6.995   4.611   5.420 -0.3591 -0.1604  0.8048
   95MOL   H12515353   6.966   4.852   5.406  3.2061 -2.3897 -0.6498
   95MOL   H12615354   6.950   4.917   5.560 -1.1246 -1.8246  2.8876
   95MOL   H12715355   6.951   4.652   5.624 -1.3710 -1.6254 -1.2847
   95MOL   H12815356   6.962   4.680   5.354 -0.4729  0.1609  1.1930
   95MOL   H12915357   7.077   4.586   5.367 -0.8737 -0.3362  0.0745
   95MOL   C13015358   7.146   4.719   5.591 -0.7853  0.4397 -0.1109
   95MOL   C13115359   7.155   4.789   5.732 -0.0021 -0.1817  0.0271
   95MOL   N13215360   0.001   4.735   5.783 -0.3587  0.2952  0.2446
   95MOL   H13315361   7.191   4.620   5.598 -0.8558  0.3741 -0.5968
   95MOL   H13415362   7.204   4.773   5.516  2.0582 -1.8684  0.3018
   95MOL   H13515363   7.074   4.755   5.796  2.0924 -1.8663  1.8039
   95MOL   H13615364   0.078   4.796   5.808  0.1896 -0.1267 -0.3879
   95MOL   H13715365   7.270   4.669   5.860  4.6754 -0.1180  0.5026
   95MOL   C13815366   7.185   4.940   5.734 -0.2398 -0.8639  0.2532
   95MOL   C13915367   7.178   5.008   5.877 -0.2925 -0.1341  0.0858
   95MOL   N14015368   7.239   5.142   5.880  0.0127  0.9413 -0.3791
   95MOL   H14115369   0.006   4.968   5.692 -0.7925 -1.3090 -1.3375
   95MOL   H14215370   7.116   4.993   5.668  1.2068  1.4948  0.5597
   95MOL   H14315371   7.234   4.943   5.944  2.6549 -1.2860 -3.2917
   95MOL   H14415372   7.227   5.158   5.979  1.2308  1.0065 -0.2323
   95MOL   H14515373   7.176   5.209   5.839 -0.2068  0.6336 -0.5473
   95MOL   C14615374   7.029   5.008   5.927  0.1724  0.4596  0.9936
   95MOL   C14715375   7.015   4.981   6.088  0.1201 -0.3793  0.4967
   95MOL   N14815376   6.891   5.035   6.131 -0.6137 -0.0462 -0.1139
   95MOL   H14915377   6.981   5.102   5.901 -1.9056 -0.9261 -0.2847
   95MOL   H15015378   6.973   4.925   5.885  0.9860  0.1790  0.4437
   95MOL   H15115379   7.085   5.047   6.139 -0.3736  2.3667 -2.1903
   95MOL   H15215380   6.868   5.013   6.227 -0.7373 -2.1112 -0.5961
   95MOL   H15315381   6.894   5.135   6.118  2.0757 -0.1553 -0.6687
   95MOL   C15415382   7.044   4.834   6.128  0.1173  0.2529  0.1105
   95MOL   C15515383   7.062   4.805   6.280 -0.0014  0.5384  1.0844
   95MOL   N15615384   7.071   4.665   6.309  0.0954 -0.2289 -0.0801
   95MOL   H15715385   6.987   4.752   6.084 -1.8257  2.1284 -0.9355
   95MOL   H15815386   7.142   4.810   6.087  0.2778 -1.6903  1.5668
   95MOL   H15915387   6.977   4.857   6.324  1.5301  2.6147  1.7005
   95MOL   H16015388   7.104   4.648   6.403  1.1693  4.0710  0.4060
   95MOL   H16115389   6.984   4.615   6.298  1.3059 -2.4658  0.1805
   95MOL   H16215390   7.152   4.851   6.322 -0.0865 -0.1054  1.9811
   96MOL     C115391   3.271   0.270   5.623  0.7167  0.0624 -0.6957
   96MOL     C215392   3.294   0.119   5.638 -0.5582 -0.0059 -0.2644
   96MOL     N315393   3.381   0.111   5.755  0.1125  0.1542  0.3184
   96MOL     H415394   3.198   0.317   5.689  2.6045  1.0345  0.7312
   96MOL     H515395   3.225   0.292   5.526  0.5095  1.5718 -0.2668
   96MOL     H615396   3.345   0.072   5.554 -0.5018 -0.0237 -0.2192
   96MOL     H715397   3.391   0.012   5.777  0.6683  0.3582  1.0016
   96MOL     H815398   3.475   0.147   5.753  0.2047  0.0905  2.0375
   96MOL     H915399   3.360   0.332   5.626  0.1463  0.8309  1.2003
   96MOL    C1015400   3.166   0.038   5.669 -0.7302 -0.0557 -0.8832
   96MOL    C1115401   3.073   0.021   5.545 -0.1638  0.4038  0.3806
   96MOL    N1215402   3.145   7.217   5.447  0.5792  0.4992 -0.6063
   96MOL    H1315403   3.186   7.215   5.711 -1.3081  0.0650 -0.3081
   96MOL    H1415404   3.102   0.088   5.742 -0.2413 -0.8431  0.1030
   96MOL    H1515405   3.063   0.122   5.505 -0.2928  0.0068 -0.6132
   96MOL    H1615406   3.092   7.199   5.363  1.0887 -0.0728 -0.8067
   96MOL    H1715407   3.228   7.266   5.416 -0.1874  2.4818  0.3528
   96MOL    C1815408   2.932   7.236   5.570  0.4490  0.2221 -0.0895
   96MOL    C1915409   2.842   7.216   5.444  0.4005 -1.1318  0.0188
   96MOL    N2015410   2.715   7.154   5.492 -0.7722  0.2541  0.7230
   96MOL    H2115411   2.952   7.134   5.603 -0.2868  0.3522  0.7757
   96MOL    H2215412   2.883   0.006   5.656 -1.5781 -2.3196  0.1603
   96MOL    H2315413   2.896   7.152   5.375 -1.3710 -1.6446 -0.9425
   96MOL    H2415414   2.737   7.063   5.529 -0.1149 -0.1686 -0.6744
   96MOL    H2515415   2.656   7.124   5.415  1.6808  1.3354 -1.6668
   96MOL    C2615416   2.798   0.076   5.378 -0.4169 -0.1499 -0.2324
   96MOL    C2715417   2.817   0.084   5.225 -0.0895 -0.4490 -0.1376
   96MOL    N2815418   2.772   0.212   5.180 -0.1925  0.0378  0.3831
   96MOL    H2915419   2.698   0.109   5.405  0.4969  2.0748  0.6319
   96MOL    H3015420   2.855   0.151   5.435 -0.8397  0.1685 -0.2265
   96MOL    H3115421   2.744   0.018   5.178 -2.3572  2.5290 -1.0182
   96MOL    H3215422   2.697   0.252   5.234 -0.1608  2.3727 -1.1951
   96MOL    H3315423   2.853   0.270   5.199  0.2022 -0.2675 -0.3203
   96MOL    C3415424   2.950   0.060   5.166 -1.2616 -0.3733 -0.1791
   96MOL    C3515425   2.954   0.042   5.014  0.3224  0.2312 -0.1218
   96MOL    N3615426   3.090   0.073   4.968  0.0301  0.2827  0.4594
   96MOL    H3715427   3.022   0.129   5.209 -1.7759  0.5501 -0.7887
   96MOL    H3815428   2.989   7.242   5.207 -0.6245  0.2056  0.5474
   96MOL    H3915429   2.893   0.125   4.977  3.6574  2.8411  0.0465
   96MOL    H4015430   3.157   0.021   5.023 -1.5282 -1.1727  1.0497
   96MOL    H4115431   3.113   0.168   4.994  2.5046  0.3957 -1.9265
   96MOL    C4215432   2.903   7.183   4.960 -0.3295  0.2506  0.0251
   96MOL    C4315433   2.746   7.168   4.935  0.0138 -0.2937  0.4785
   96MOL    N4415434   2.722   7.267   4.830  0.0689  0.0585 -0.5494
   96MOL    H4515435   2.951   7.169   4.863 -1.5805  2.6677 -0.9801
   96MOL    H4615436   2.937   7.105   5.028  0.6478 -0.8029 -1.6146
   96MOL    H4715437   2.679   7.185   5.020  1.1264  0.8769  1.1349
   96MOL    H4815438   2.806   7.271   4.774  0.6553  2.2456  0.4442
   96MOL    H4915439   2.729   0.079   4.880 -1.3979 -0.5417  0.7280
   96MOL    C5015440   2.711   7.036   4.874 -0.0006  0.3694 -0.1844
   96MOL    C5115441   2.678   6.931   4.983  0.9158  0.5906  0.6885
   96MOL    N5215442   2.610   6.822   4.916 -0.4943  0.3271 -0.3858
   96MOL    H5315443   2.615   7.052   4.823  0.4425  0.9409 -0.8533
   96MOL    H5415444   2.781   6.991   4.803 -0.5739 -1.8659  0.6378
   96MOL    H5515445   2.613   6.982   5.054 -0.6479 -0.0904 -0.2476
   96MOL    H5615446   2.604   6.754   4.990 -0.7170  2.6326  1.7920
   96MOL    H5715447   2.663   6.787   4.837  0.3606  0.1796  0.2411
   96MOL    C5815448   2.799   6.872   5.063 -0.1406  0.2142 -0.1935
   96MOL    C5915449   2.812   6.923   5.219 -0.3610 -0.0360  0.0329
   96MOL    N6015450   2.682   6.906   5.274 -0.0677  0.2686  0.3966
   96MOL    H6115451   2.794   6.764   5.064  1.3345  0.1407  2.2316
   96MOL    H6215452   2.893   6.886   5.010  0.0575  0.7368  0.2815
   96MOL    H6315453   2.830   7.031   5.225  0.4160 -0.2267  1.2529
   96MOL    H6415454   2.654   6.812   5.254 -0.4991  0.5461 -0.3118
   96MOL    H6515455   2.620   6.971   5.228  1.3218  2.1556  1.1259
   96MOL    C6615456   2.916   6.860   5.320  0.3392  0.0075  0.1332
   96MOL    C6715457   3.057   6.848   5.262  0.7657 -0.2867  1.2460
   96MOL    N6815458   3.106   6.985   5.240  0.2478 -0.5599 -0.2794
   96MOL    H6915459   2.926   6.932   5.401  2.7186 -0.1309 -0.0157
   96MOL    H7015460   2.877   6.763   5.351 -0.9916 -0.2633 -2.2303
   96MOL    H7115461   3.050   6.814   5.158 -3.6278  0.8521  1.0746
   96MOL    H7215462   3.148   7.017   5.326 -2.9266 -0.9521  1.5145
   96MOL    H7315463   3.180   6.990   5.172  2.6119 -2.2455  2.0547
   96MOL    C7415464   3.141   6.764   5.350  0.8416  0.2995  0.1621
   96MOL    C7515465   3.269   6.713   5.281  0.8003 -0.3730 -0.2761
   96MOL    N7615466   3.357   6.666   5.385 -0.2577  0.2982  0.1543
   96MOL    H7715467   3.150   6.814   5.446 -2.4839 -1.3569  1.4210
   96MOL    H7815468   3.079   6.680   5.379 -0.4720  1.4049  0.5930
   96MOL    H7915469   3.310   6.797   5.224  0.2275  1.9332  2.6055
   96MOL    H8015470   3.456   6.664   5.363 -0.4084 -1.4329 -0.4418
   96MOL    H8115471   3.333   6.569   5.393 -1.8776  0.7153  0.4943
   96MOL    C8215472   3.235   6.601   5.184  0.1517 -0.3658 -0.7535
   96MOL    C8315473   3.337   6.588   5.064 -0.0494  0.2031 -0.0182
   96MOL    N8415474   3.313   6.451   5.020 -0.4075 -0.5426 -0.3760
   96MOL    H8515475   3.206   6.506   5.227  0.7861  0.8568  2.5617
   96MOL    H8615476   3.140   6.609   5.132 -0.8600  0.2067  1.1316
   96MOL    H8715477   3.438   6.591   5.105 -0.3928  1.9381  0.7398
   96MOL    H8815478   3.353   6.381   5.081  0.8469  1.2290  0.8637
   96MOL    H8915479   3.358   6.433   4.932  1.1748  0.4825  0.2049
   96MOL    C9015480   3.309   6.681   4.945  0.7868  0.3880 -0.1734
   96MOL    C9115481   3.420   6.790   4.937  0.0724  0.1713 -0.2545
   96MOL    N9215482   3.541   6.726   4.892 -0.3774  0.1992  0.3638
   96MOL    H9315483   3.306   6.618   4.856 -0.9352 -0.4353  0.4563
   96MOL    H9415484   3.208   6.720   4.941  0.0824 -1.5989 -2.3690
   96MOL    H9515485   3.440   6.835   5.034 -0.2788 -1.2865  0.5151
   96MOL    H9615486   3.622   6.765   4.939  1.1639 -0.6661 -1.4929
   96MOL    H9715487   3.547   6.631   4.924  1.1820 -0.7559 -2.5639
   96MOL    C9815488   3.380   6.893   4.833  0.3673 -0.3322  0.1757
   96MOL    C9915489   3.421   7.043   4.865  0.1650 -0.9788 -0.5187
   96MOL   N10015490   3.393   7.122   4.750 -0.1401 -0.0110 -0.4384
   96MOL   H10115491   3.421   6.863   4.737  0.8040  0.9048 -0.0331
   96MOL   H10215492   3.273   6.904   4.817  0.3696 -0.2793  0.1972
   96MOL   H10315493   3.530   7.046   4.864  0.2045 -1.7687  0.2843
   96MOL   H10415494   3.461   7.105   4.678  0.3282  1.5788 -0.3964
   96MOL   H10515495   3.421   7.218   4.767 -1.5794  0.1133  1.4471
   96MOL   C10615496   3.349   7.110   4.992 -0.1110  0.5640  0.7343
   96MOL   C10715497   3.391   7.244   5.038  0.9486  0.6607 -0.3706
   96MOL   N10815498   3.325   0.001   5.168 -0.0961 -0.2238  0.4224
   96MOL   H10915499   3.240   7.115   4.983  0.0106 -0.1710 -1.4642
   96MOL   H11015500   3.361   7.029   5.064 -0.8315 -0.3767 -0.1883
   96MOL   H11115501   3.368   0.046   4.965  2.8264  0.7465 -0.8845
   96MOL   H11215502   3.357   7.212   5.238  1.4880  0.0743 -0.0239
   96MOL   H11315503   3.364   0.088   5.198  1.0880 -0.3645 -0.6561
   96MOL   C11415504   3.540   7.249   5.074 -0.2029 -0.2827 -0.0657
   96MOL   C11515505   3.628   0.018   4.949 -0.3896  0.0796  0.8550
   96MOL   N11615506   3.599   0.153   4.898  0.3019  0.3601 -0.1722
   96MOL   H11715507   3.561   0.035   5.162 -1.2548 -1.4769  1.0340
   96MOL   H11815508   3.581   7.156   5.114 -2.0405 -0.9987  0.1911
   96MOL   H11915509   3.612   7.230   4.861  0.9292  2.0886 -0.8902
   96MOL   H12015510   3.650   0.160   4.811  3.1970  0.0759  1.4210
   96MOL   H12115511   3.500   0.159   4.878  0.2227  0.1313  0.1407
   96MOL   C12215512   3.782   0.006   4.980 -0.1771  0.2239  0.0082
   96MOL   C12315513   3.824   7.134   5.002 -0.3077  0.1883  0.4570
   96MOL   N12415514   3.824   7.066   4.876 -0.3683 -0.4053 -0.2061
   96MOL   H12515515   3.849   0.046   4.904 -1.6572  1.9912 -0.4014
   96MOL   H12615516   3.799   0.057   5.075 -1.2680  2.0001 -0.7099
   96MOL   H12715517   3.753   7.079   5.065  1.3931 -0.8492  1.5216
   96MOL   H12815518   3.726   7.060   4.852 -0.3765 -0.8690 -0.0720
   96MOL   H12915519   3.875   7.119   4.807 -0.5582  1.9200  1.3786
   96MOL   C13015520   3.963   7.121   5.064  0.8814 -0.3168  0.4986
   96MOL   C13115521   3.985   7.154   5.215  0.4429  0.2960  0.7350
   96MOL   N13215522   4.032   0.021   5.224 -0.0697 -0.5822 -0.5826
   96MOL   H13315523   3.990   7.016   5.067  3.3115  0.2333 -0.9386
   96MOL   H13415524   4.038   7.171   5.003 -0.2589 -0.0651 -0.7240
   96MOL   H13515525   4.071   7.101   5.257  0.3932  0.1617  0.6664
   96MOL   H13615526   3.959   0.090   5.224  1.9928  1.6837 -2.1110
   96MOL   H13715527   4.079   0.045   5.138 -0.4048 -0.7584 -0.8170
   96MOL   C13815528   3.873   7.125   5.308  0.8141  0.8706 -0.5301
   96MOL   C13915529   3.839   6.975   5.335  0.3313 -0.9081  0.3723
   96MOL   N14015530   3.955   6.900   5.376 -0.7993 -0.1146  0.0882
   96MOL   H14115531   3.913   7.172   5.398  4.3416 -0.9061 -1.0500
   96MOL   H14215532   3.786   7.179   5.271  1.3476  1.8241 -0.4083
   96MOL   H14315533   3.791   6.939   5.244  0.0326 -0.9253  0.5386
   96MOL   H14415534   3.989   6.879   5.283 -2.8803  0.4426 -0.8165
   96MOL   H14515535   4.022   6.959   5.423 -1.6654  1.3319 -0.4667
   96MOL   C14615536   3.739   6.952   5.452 -0.0079  0.4297 -0.0730
   96MOL   C14715537   3.608   7.036   5.447 -0.9578  0.2719  0.6943
   96MOL   N14815538   3.528   6.993   5.336  0.2345 -0.0169  0.1028
   96MOL   H14915539   3.715   6.845   5.456  0.9530  0.0910 -2.4832
   96MOL   H15015540   3.776   6.990   5.547 -1.9363 -0.0732  0.9088
   96MOL   H15115541   3.623   7.142   5.427 -1.1398 -0.0129 -1.0251
   96MOL   H15215542   3.585   6.986   5.253  1.3858  0.5680  0.8276
   96MOL   H15315543   3.486   6.903   5.352 -0.2494  0.3552  0.9628
   96MOL   C15415544   3.513   7.001   5.563  0.3367 -0.4036 -0.1711
   96MOL   C15515545   3.562   7.032   5.705  0.4633 -0.6439 -0.2133
   96MOL   N15615546   3.459   7.074   5.802  0.2465  0.5095  0.1979
   96MOL   H15715547   3.417   7.051   5.553 -0.9286 -2.6273  0.7294
   96MOL   H15815548   3.499   6.893   5.569  0.2777 -0.3521  0.8051
   96MOL   H15915549   3.623   7.121   5.687 -1.2656  0.4470 -0.8172
   96MOL   H16015550   3.497   7.134   5.875  0.0963  1.1682 -0.2561
   96MOL   H16115551   3.427   6.993   5.852 -0.2539 -0.5362 -1.7645
   96MOL   H16215552   3.627   6.960   5.754 -0.7099 -1.1924  0.5761
   97MOL     C115553   2.710   6.370   6.832  0.3168 -0.1183 -0.5577
   97MOL     C215554   2.855   6.364   6.866 -0.0390  0.2674  0.1171
   97MOL     N315555   2.919   6.253   6.794  0.7682 -0.5812 -0.4943
   97MOL     H415556   2.671   6.276   6.871  0.5162 -0.3998 -1.0391
   97MOL     H515557   2.689   6.373   6.726  1.6785  1.8174 -0.8056
   97MOL     H615558   2.857   6.364   6.975 -2.2461  1.3782  0.1896
   97MOL     H715559   2.926   6.286   6.699  0.9947  2.1632  0.4319
   97MOL     H815560   2.850   6.179   6.787 -0.5159  0.5130  0.3650
   97MOL     H915561   2.661   6.455   6.880  0.2083 -0.1009 -0.7025
   97MOL    C1015562   2.931   6.497   6.836  0.0056  0.1524 -0.0814
   97MOL    C1115563   2.891   6.625   6.922 -0.1274  0.6458  0.2542
   97MOL    N1215564   2.990   6.630   7.033  0.2816 -0.1671 -0.2442
   97MOL    H1315565   3.035   6.474   6.857 -0.1918  0.6550  1.4916
   97MOL    H1415566   2.906   6.522   6.733 -4.2297  0.1682  0.8618
   97MOL    H1515567   2.788   6.617   6.958 -1.0584 -1.7363 -2.7657
   97MOL    H1615568   3.081   6.599   7.002 -0.6927 -1.1133 -2.2895
   97MOL    H1715569   3.005   6.726   7.057 -0.2385 -0.6126  1.9328
   97MOL    C1815570   2.902   6.765   6.859  0.1071  1.2250  0.4285
   97MOL    C1915571   2.800   6.793   6.749  0.0343  0.8288  0.4417
   97MOL    N2015572   2.675   6.813   6.809  0.2233  0.6700 -0.9206
   97MOL    H2115573   2.881   6.847   6.928  1.7809  1.8549  0.2120
   97MOL    H2215574   2.998   6.775   6.808  0.0348  0.7179  0.1911
   97MOL    H2315575   2.780   6.710   6.681 -0.6222  1.5075 -0.1974
   97MOL    H2415576   2.658   6.913   6.814 -0.1331  0.6103 -0.9809
   97MOL    H2515577   2.592   6.775   6.768 -0.0643  0.5898 -0.2648
   97MOL    C2615578   2.821   6.923   6.668 -0.1394  0.5919  0.4653
   97MOL    C2715579   2.779   6.921   6.516 -0.2540 -0.6308 -0.5965
   97MOL    N2815580   2.818   7.052   6.475  0.3058 -0.1546 -0.4853
   97MOL    H2915581   2.765   6.996   6.726 -0.1921  0.0615  1.0853
   97MOL    H3015582   2.924   6.961   6.672 -0.3532  1.1468  0.8345
   97MOL    H3115583   2.671   6.906   6.510 -0.4121 -0.0471  0.5302
   97MOL    H3215584   2.898   7.051   6.412  1.6280  3.3274  1.0521
   97MOL    H3315585   2.747   7.082   6.410 -1.1312 -0.8345  0.7586
   97MOL    C3415586   2.847   6.818   6.418  0.4550 -0.2530 -0.0814
   97MOL    C3515587   2.782   6.786   6.282  1.0472 -0.3620 -0.1292
   97MOL    N3615588   2.856   6.692   6.207 -0.2475  0.4045 -0.3274
   97MOL    H3715589   2.949   6.847   6.394 -0.2225  2.6034  0.3383
   97MOL    H3815590   2.848   6.726   6.477 -0.5341 -0.0497  0.2678
   97MOL    H3915591   2.785   6.883   6.232 -1.4342 -0.3013 -0.2403
   97MOL    H4015592   2.804   6.607   6.188  0.8666 -0.2062 -0.6981
   97MOL    H4115593   2.884   6.741   6.123 -0.5238  0.2850 -0.4926
   97MOL    C4215594   2.638   6.745   6.301 -0.0409 -0.7404 -0.2035
   97MOL    C4315595   2.607   6.605   6.367 -0.8735 -0.9388 -0.6852
   97MOL    N4415596   2.604   6.632   6.509 -0.4274  0.2499 -1.0067
   97MOL    H4515597   2.580   6.827   6.342  0.3835  0.3033 -1.6539
   97MOL    H4615598   2.609   6.727   6.197  1.7629  1.9676 -1.2091
   97MOL    H4715599   2.684   6.532   6.341 -0.7977 -1.3890  0.7999
   97MOL    H4815600   2.674   6.702   6.527  1.0758 -2.0913  2.7363
   97MOL    H4915601   2.517   6.674   6.536 -0.0587 -1.1137  2.4768
   97MOL    C5015602   2.475   6.542   6.341 -0.3546 -0.7201  0.3147
   97MOL    C5115603   2.468   6.385   6.368  0.6425 -0.3595  0.3243
   97MOL    N5215604   2.461   6.359   6.511  0.7171 -0.7533  0.2108
   97MOL    H5315605   2.398   6.597   6.396  1.3487  1.4317  0.6000
   97MOL    H5415606   2.441   6.574   6.243  1.8977  1.1708  0.1006
   97MOL    H5515607   2.559   6.335   6.333  1.0595  1.8197 -1.8272
   97MOL    H5615608   2.493   6.264   6.520  0.1253 -1.1902 -1.9220
   97MOL    H5715609   2.529   6.413   6.562  1.2105 -0.0540 -1.1698
   97MOL    C5815610   2.336   6.318   6.319  0.4994  0.3878 -0.4691
   97MOL    C5915611   2.331   6.292   6.166  0.9728 -0.0022  0.4592
   97MOL    N6015612   2.388   6.159   6.147  0.1457  0.1851 -0.3830
   97MOL    H6115613   2.328   6.219   6.363 -1.0531  0.8518  0.3266
   97MOL    H6215614   2.245   6.372   6.345 -0.2992  0.7418 -3.8224
   97MOL    H6315615   2.391   6.369   6.117  0.2584  1.3073  1.5990
   97MOL    H6415616   2.369   6.129   6.053  1.0546 -3.3988  0.5195
   97MOL    H6515617   2.326   6.090   6.188 -0.0748 -0.7609 -2.2693
   97MOL    C6615618   2.178   6.280   6.118  0.2626 -0.5131  0.3764
   97MOL    C6715619   2.144   6.318   5.971 -0.6155 -0.0784  0.2839
   97MOL    N6815620   2.193   6.448   5.942 -0.4046 -0.0219  0.6213
   97MOL    H6915621   2.137   6.185   6.153 -0.2484  0.2201  1.7936
   97MOL    H7015622   2.123   6.356   6.173 -1.5792 -0.6723 -1.2008
   97MOL    H7115623   2.036   6.312   5.953 -0.4420 -0.4924 -0.6426
   97MOL    H7215624   2.165   6.476   5.849 -0.1600 -1.4091  0.1207
   97MOL    H7315625   2.147   6.518   5.998 -0.7740  1.1031 -1.0429
   97MOL    C7415626   2.199   6.217   5.869 -0.0385  0.0128 -0.3380
   97MOL    C7515627   2.165   6.248   5.726 -0.3057  0.4487 -0.5150
   97MOL    N7615628   2.221   6.147   5.638 -0.2576 -0.2978 -0.3775
   97MOL    H7715629   2.308   6.214   5.873 -0.0043  0.5814 -0.6743
   97MOL    H7815630   2.158   6.122   5.903 -1.9945  2.2119  3.8203
   97MOL    H7915631   2.218   6.338   5.698  0.4650 -0.6055 -2.4965
   97MOL    H8015632   2.238   6.185   5.546 -0.4494  2.1664  0.5687
   97MOL    H8115633   2.315   6.133   5.672 -0.8058  0.6584  1.5969
   97MOL    C8215634   2.018   6.275   5.690  0.0800 -0.6980 -0.3936
   97MOL    C8315635   1.984   6.281   5.542 -0.8610  0.6242  0.1898
   97MOL    N8415636   1.840   6.303   5.546  0.1407 -0.0937 -1.1043
   97MOL    H8515637   1.951   6.204   5.738 -1.5974 -0.7567 -2.6946
   97MOL    H8615638   1.982   6.370   5.731 -0.9706 -1.5050  0.5650
   97MOL    H8715639   2.005   6.185   5.495  2.7527  0.3990  2.0707
   97MOL    H8815640   1.804   6.332   5.456  1.3465 -0.0330 -1.5651
   97MOL    H8915641   1.806   6.208   5.552  0.1153  0.0372  2.0051
   97MOL    C9015642   2.041   6.398   5.460  0.5819 -0.3072  0.3511
   97MOL    C9115643   2.185   6.382   5.410  0.2306  0.7287 -0.0378
   97MOL    N9215644   2.185   6.321   5.284 -0.1550 -0.0921  0.8783
   97MOL    H9315645   1.969   6.429   5.384 -0.0478  1.2430  1.5524
   97MOL    H9415646   2.052   6.477   5.534  1.8910 -0.3198  0.1668
   97MOL    H9515647   2.244   6.311   5.469 -0.5265  0.7051  0.6949
   97MOL    H9615648   2.127   6.239   5.292  1.2503 -0.9125  3.1535
   97MOL    H9715649   2.133   6.387   5.227  1.8879  0.6858 -0.1371
   97MOL    C9815650   2.264   6.512   5.402 -0.5964 -1.1946 -0.0051
   97MOL    C9915651   2.420   6.494   5.425 -0.7342 -0.1598 -0.0569
   97MOL   N10015652   2.478   6.412   5.325  0.0058  0.4217 -0.5981
   97MOL   H10115653   2.250   6.572   5.312 -2.1445  0.1783  1.1126
   97MOL   H10215654   2.231   6.573   5.486  0.0524 -1.0934  0.1811
   97MOL   H10315655   2.431   6.438   5.519  0.1545 -0.3784 -0.2887
   97MOL   H10415656   2.405   6.373   5.267 -1.0165  0.5990  0.5528
   97MOL   H10515657   2.523   6.331   5.366  0.0583  1.5357  1.5734
   97MOL   C10615658   2.487   6.634   5.416  0.5585  0.5571  0.7657
   97MOL   C10715659   2.498   6.720   5.544 -0.2311 -0.5366  0.2082
   97MOL   N10815660   2.379   6.811   5.545  0.1726  0.1970  0.4201
   97MOL   H10915661   2.589   6.617   5.382 -0.5261  0.8967 -2.7592
   97MOL   H11015662   2.440   6.691   5.336  0.3366 -1.9480 -0.9364
   97MOL   H11115663   2.583   6.787   5.528  1.4895 -2.4601  1.1440
   97MOL   H11215664   2.400   6.896   5.594  2.7774 -0.5602  0.7061
   97MOL   H11315665   2.370   6.836   5.448  0.8034  3.1888  1.1019
   97MOL   C11415666   2.498   6.644   5.678  0.2761 -0.4107  0.2872
   97MOL   C11515667   2.505   6.718   5.816  0.4212 -0.3669 -0.4189
   97MOL   N11615668   2.495   6.617   5.924  0.7992  0.2077  0.2064
   97MOL   H11715669   2.414   6.576   5.687 -0.6302  0.7063  0.3775
   97MOL   H11815670   2.587   6.581   5.681  1.1483  0.7618 -0.1720
   97MOL   H11915671   2.425   6.792   5.822  0.5009 -0.1744 -1.6221
   97MOL   H12015672   2.424   6.552   5.894 -1.3917  3.0048 -0.9887
   97MOL   H12115673   2.471   6.659   6.013 -0.8445 -0.8080  0.2658
   97MOL   C12215674   2.645   6.783   5.837  0.2507 -0.0504  0.4405
   97MOL   C12315675   2.637   6.923   5.900 -0.3584 -0.3889 -0.7502
   97MOL   N12415676   2.778   6.952   5.930  0.2051 -0.2030 -0.2778
   97MOL   H12515677   2.716   6.718   5.888  2.5277 -0.6611 -3.3114
   97MOL   H12615678   2.692   6.799   5.740  1.5051 -1.8255  0.7371
   97MOL   H12715679   2.586   6.899   5.993  1.0598 -0.4599  0.0298
   97MOL   H12815680   2.815   7.025   5.871 -1.6141  0.1234 -1.0250
   97MOL   H12915681   2.835   6.868   5.925 -0.2522 -0.5642  0.4907
   97MOL   C13015682   2.573   7.040   5.816 -0.3350  0.2287  0.5865
   97MOL   C13115683   2.595   7.192   5.866  0.0184 -0.2870  0.7781
   97MOL   N13215684   2.582   0.014   5.758  0.5476 -0.2291  0.8283
   97MOL   H13315685   2.598   7.036   5.710 -0.1046  0.7677  0.6205
   97MOL   H13415686   2.465   7.028   5.822  0.1611 -4.4671  1.6456
   97MOL   H13515687   2.695   7.216   5.902 -0.5730  1.1343  1.5344
   97MOL   H13615688   2.605   0.107   5.788 -0.9819 -0.5067  2.9149
   97MOL   H13715689   2.651   0.002   5.685 -0.6440  0.4215 -0.4381
   97MOL   C13815690   2.484   7.236   5.972  0.1316  0.7309  0.5111
   97MOL   C13915691   2.476   7.151   6.095  0.2152 -0.4012  0.2579
   97MOL   N14015692   2.605   7.122   6.151  0.0689 -0.0036  0.1663
   97MOL   H14115693   2.508   0.064   5.995  0.5264  0.7972 -0.2015
   97MOL   H14215694   2.385   7.232   5.927  1.9299 -0.2764 -3.5407
   97MOL   H14315695   2.429   7.058   6.062 -1.9483  1.9393 -3.6439
   97MOL   H14415696   2.671   7.104   6.077  2.2585  1.3446  1.7375
   97MOL   H14515697   2.627   7.204   6.206 -3.4520  0.8468  0.4370
   97MOL   C14615698   2.382   7.229   6.194  0.5019  0.6494  0.0209
   97MOL   C14715699   2.233   7.221   6.160  0.1315  0.4189  0.1268
   97MOL   N14815700   2.157   7.127   6.245 -0.5258  0.3698  0.0154
   97MOL   H14915701   2.394   7.189   6.295  1.8295 -2.1486 -1.1765
   97MOL   H15015702   2.415   0.057   6.204  0.9483  0.6104 -0.9837
   97MOL   H15115703   2.216   7.178   6.061 -0.5163  1.1728 -0.0953
   97MOL   H15215704   2.194   7.034   6.254 -0.3327  0.4011 -0.4375
   97MOL   H15315705   2.059   7.118   6.224 -0.5845 -0.2901  0.5855
   97MOL   C15415706   2.163   0.082   6.152  0.2397 -0.1591 -0.2301
   97MOL   C15515707   2.201   0.164   6.033  0.0086  0.3436 -0.1738
   97MOL   N15615708   2.107   0.280   6.035  0.8003  0.4471 -0.1458
   97MOL   H15715709   2.055   0.073   6.138  0.2533 -0.4595 -0.1355
   97MOL   H15815710   2.170   0.125   6.253  1.4920  2.7678 -1.5021
   97MOL   H15915711   2.164   0.099   5.954  2.7359 -2.3881  0.7402
   97MOL   H16015712   2.018   0.254   6.075  1.5427 -0.2772  1.0607
   97MOL   H16115713   2.082   0.308   5.941  0.4182  1.7631  0.3407
   97MOL   H16215714   2.302   0.203   6.025 -0.1248  0.7944  0.3067
   98MOL     C115715   6.216   2.958   6.970 -0.6648 -0.6608  0.1758
   98MOL     C215716   6.307   2.842   6.919 -0.0741 -0.0338  0.1658
   98MOL     N315717   6.401   2.890   6.817  0.2456  0.5474  0.2413
   98MOL     H415718   6.278   3.042   7.001 -0.2918 -0.4865 -1.0146
   98MOL     H515719   6.146   2.937   7.051 -1.5607  1.1436 -0.0848
   98MOL     H615720   6.243   2.759   6.889  1.4630 -1.6831  1.3208
   98MOL     H715721   6.336   2.906   6.741 -0.0118  1.6011  0.6754
   98MOL     H815722   6.474   2.828   6.785  0.3560  0.0059  1.5267
   98MOL     H915723   6.163   3.005   6.887  0.6717 -0.9998 -0.8777
   98MOL    C1015724   6.386   2.800   7.040  0.0485  0.0667 -0.1868
   98MOL    C1115725   6.476   2.673   7.036 -0.5887  0.1215  0.8092
   98MOL    N1215726   6.596   2.699   7.104  0.2457  1.1580 -0.4419
   98MOL    H1315727   6.443   2.888   7.071  1.1134 -0.5958 -0.2060
   98MOL    H1415728   6.326   2.781   7.129 -2.1535  1.7145 -1.2814
   98MOL    H1515729   6.496   2.638   6.934  0.5973 -0.8280  1.3508
   98MOL    H1615730   6.667   2.628   7.091  0.3362  1.0943  0.3517
   98MOL    H1715731   6.641   2.778   7.060  0.2568  1.8356  0.7545
   98MOL    C1815732   6.404   2.555   7.111 -0.7916 -0.3459 -1.0650
   98MOL    C1915733   6.276   2.501   7.044 -0.0079 -0.6429 -0.3951
   98MOL    N2015734   6.278   2.359   7.045 -0.0621  0.1778 -0.1386
   98MOL    H2115735   6.472   2.470   7.116 -1.8674 -1.1358  0.7541
   98MOL    H2215736   6.390   2.590   7.213  5.0270 -1.2793  0.2730
   98MOL    H2315737   6.275   2.538   6.941 -1.5382  1.3331  0.3078
   98MOL    H2415738   6.356   2.330   6.987  0.6530 -3.5317  2.4583
   98MOL    H2515739   6.201   2.329   6.987 -1.0295 -0.6566  1.5198
   98MOL    C2615740   6.143   2.545   7.118 -0.1676 -0.2798 -0.2305
   98MOL    C2715741   6.007   2.500   7.061  0.5253 -0.1676  0.3806
   98MOL    N2815742   5.898   2.517   7.153  0.3851  0.2753 -0.1264
   98MOL    H2915743   6.154   2.513   7.221  1.6115  2.0366  0.3213
   98MOL    H3015744   6.134   2.651   7.138 -0.7727 -0.5529  0.9673
   98MOL    H3115745   6.022   2.392   7.063 -0.6144 -0.3228  1.0133
   98MOL    H3215746   5.813   2.518   7.098  0.9869  3.6292 -1.1208
   98MOL    H3315747   5.880   2.441   7.216 -0.8275 -0.3110 -1.1596
   98MOL    C3415748   5.964   2.555   6.922 -0.3240  0.1050  0.1086
   98MOL    C3515749   5.890   2.456   6.831 -0.7605  0.7316  0.1624
   98MOL    N3615750   5.773   2.524   6.769 -0.0607 -0.4153 -0.4108
   98MOL    H3715751   5.917   2.653   6.926  1.1944  0.9806 -2.5283
   98MOL    H3815752   6.054   2.576   6.863  0.1075 -2.0126 -0.0220
   98MOL    H3915753   5.849   2.376   6.892  0.6225 -1.5072 -1.7573
   98MOL    H4015754   5.704   2.454   6.745  0.0553 -1.0130  0.9663
   98MOL    H4115755   5.728   2.584   6.837 -2.1962 -1.2192 -1.0743
   98MOL    C4215756   5.976   2.401   6.710  0.0969 -0.6432 -0.1484
   98MOL    C4315757   6.103   2.315   6.745 -0.6949  0.3080 -0.2512
   98MOL    N4415758   6.058   2.200   6.824 -0.2148 -0.0621 -0.3629
   98MOL    H4515759   5.910   2.352   6.639  0.0778  0.8141 -1.1590
   98MOL    H4615760   5.998   2.481   6.639 -0.6454 -0.7807 -0.5370
   98MOL    H4715761   6.168   2.374   6.809  1.5315 -2.3319  0.0276
   98MOL    H4815762   6.139   2.139   6.828  0.1038  0.4931  2.9374
   98MOL    H4915763   5.989   2.144   6.774 -0.5092  0.3297 -0.3950
   98MOL    C5015764   6.179   2.258   6.619  0.0641  0.5074 -0.6497
   98MOL    C5115765   6.268   2.358   6.537 -0.6308  0.1866 -0.0126
   98MOL    N5215766   6.183   2.449   6.465  0.4017 -0.4558  0.0143
   98MOL    H5315767   6.242   2.177   6.657 -0.5278  0.3075 -0.0924
   98MOL    H5415768   6.109   2.207   6.553  0.6161  0.1933 -0.9970
   98MOL    H5515769   6.320   2.305   6.458  1.4175  1.7174  0.2703
   98MOL    H5615770   6.215   2.486   6.377 -0.7319  0.8023  0.1191
   98MOL    H5715771   6.107   2.389   6.435  1.3550 -1.2022 -0.9428
   98MOL    C5815772   6.369   2.433   6.622 -0.3313  0.1183  0.3453
   98MOL    C5915773   6.482   2.514   6.557 -0.1199 -0.5237  0.3250
   98MOL    N6015774   6.520   2.630   6.635  0.3426  0.1696 -0.7917
   98MOL    H6115775   6.318   2.493   6.698  1.3439  1.6058  0.3133
   98MOL    H6215776   6.414   2.360   6.690 -1.1941  0.8468  1.7411
   98MOL    H6315777   6.435   2.554   6.467  0.4779 -2.2063 -0.7532
   98MOL    H6415778   6.445   2.698   6.632  0.2143 -0.0071 -1.7925
   98MOL    H6515779   6.599   2.665   6.584  0.3715 -0.6877 -1.3446
   98MOL    C6615780   6.605   2.417   6.530 -0.4213 -0.6353  0.0232
   98MOL    C6715781   6.607   2.360   6.384  0.3161 -0.2065  0.4924
   98MOL    N6815782   6.657   2.462   6.297 -0.0938  0.3777 -0.5268
   98MOL    H6915783   6.693   2.469   6.566 -1.7557  2.4777 -1.1040
   98MOL    H7015784   6.602   2.335   6.602 -1.2080  0.1459  0.8793
   98MOL    H7115785   6.503   2.338   6.360  1.5295 -3.5081 -1.9984
   98MOL    H7215786   6.619   2.432   6.208  2.8216 -0.7547 -1.4353
   98MOL    H7315787   6.593   2.537   6.318 -0.3834 -0.6980  2.5841
   98MOL    C7415788   6.689   2.236   6.356  0.5955 -0.2388 -0.4402
   98MOL    C7515789   6.616   2.099   6.376  0.4311  0.3288  0.7614
   98MOL    N7615790   6.717   2.000   6.337 -0.0853  0.8000 -0.2767
   98MOL    H7715791   6.717   2.238   6.250  1.2574 -1.4042 -0.2930
   98MOL    H7815792   6.783   2.229   6.410  1.0054 -1.6144 -1.2983
   98MOL    H7915793   6.538   2.091   6.300  0.8972 -1.0977  0.4031
   98MOL    H8015794   6.765   2.033   6.254 -0.6522 -0.2915 -1.0444
   98MOL    H8115795   6.660   1.920   6.312 -2.9547  2.2274  1.4919
   98MOL    C8215796   6.566   2.081   6.520  0.4408  0.4637  0.3651
   98MOL    C8315797   6.494   1.944   6.552 -0.2280  0.2463 -0.5501
   98MOL    N8415798   6.491   1.921   6.694  0.0755 -0.3600  0.5843
   98MOL    H8515799   6.648   2.092   6.591  0.4864 -0.3340  0.4393
   98MOL    H8615800   6.493   2.160   6.537  0.3878  1.0678 -2.4714
   98MOL    H8715801   6.562   1.871   6.508 -1.1751 -0.2702 -1.1844
   98MOL    H8815802   6.587   1.928   6.722  1.2176 -0.9940 -2.9520
   98MOL    H8915803   6.466   1.826   6.718  1.0403 -0.4812  1.1195
   98MOL    C9015804   6.361   1.938   6.478 -0.5195  0.2949 -1.0484
   98MOL    C9115805   6.316   1.787   6.480 -0.0310  0.3386 -0.6221
   98MOL    N9215806   6.173   1.785   6.493 -0.3422  0.0803 -0.3476
   98MOL    H9315807   6.284   2.009   6.508  0.9098  1.4916 -0.1236
   98MOL    H9415808   6.373   1.970   6.375 -0.0099  1.8046 -0.5282
   98MOL    H9515809   6.353   1.739   6.571  1.7433  1.4045 -0.7566
   98MOL    H9615810   6.138   1.839   6.416  2.0620  2.5158  0.1763
   98MOL    H9715811   6.125   1.698   6.513 -0.6798  0.4781  0.6129
   98MOL    C9815812   6.353   1.700   6.356  0.5045 -0.1870 -0.0876
   98MOL    C9915813   6.379   1.552   6.392  0.1143 -0.6375 -0.3275
   98MOL   N10015814   6.362   1.466   6.276  0.0208 -0.0657 -0.0978
   98MOL   H10115815   6.267   1.720   6.291  0.0025 -1.3064  0.2206
   98MOL   H10215816   6.438   1.734   6.297  1.0517  0.9609  1.3317
   98MOL   H10315817   6.304   1.535   6.468  0.8057  0.4870  0.6348
   98MOL   H10415818   6.269   1.477   6.237 -0.4561  0.4611  1.1718
   98MOL   H10515819   6.361   1.369   6.304  0.3713 -0.2380 -0.6743
   98MOL   C10615820   6.521   1.529   6.444  0.3578 -0.2877 -0.6754
   98MOL   C10715821   6.571   1.577   6.585 -0.5152 -0.2057 -0.1223
   98MOL   N10815822   6.495   1.520   6.693  0.2492 -0.6999  0.3340
   98MOL   H10915823   6.528   1.420   6.443  1.1698 -0.2405 -2.4812
   98MOL   H11015824   6.594   1.564   6.371  1.2065  1.1414  0.8364
   98MOL   H11115825   6.568   1.685   6.592  0.0220 -0.1652 -0.4403
   98MOL   H11215826   6.556   1.505   6.771 -0.0099  0.7723  0.8207
   98MOL   H11315827   6.471   1.427   6.661  2.9105 -1.7348  1.2104
   98MOL   C11415828   6.715   1.540   6.610  0.3780  0.7177 -0.0985
   98MOL   C11515829   6.810   1.580   6.501  0.4765  0.5566 -0.2358
   98MOL   N11615830   6.790   1.713   6.454  0.3820  0.1826 -0.0882
   98MOL   H11715831   6.755   1.598   6.692  1.8275 -0.9623  0.4312
   98MOL   H11815832   6.729   1.435   6.637  1.5414  0.9061  0.0349
   98MOL   H11915833   6.788   1.513   6.417 -2.5266  2.6529 -1.1964
   98MOL   H12015834   6.789   1.707   6.353 -0.5472 -0.8680 -0.0246
   98MOL   H12115835   6.697   1.737   6.485 -0.0210  0.5235 -1.5203
   98MOL   C12215836   6.958   1.561   6.534  0.6479  0.1235 -0.0428
   98MOL   C12315837   7.038   1.525   6.409  0.4722 -0.6308 -0.5504
   98MOL   N12415838   7.178   1.557   6.426  0.0820  0.4273  0.0652
   98MOL   H12515839   6.989   1.648   6.592  0.5977 -0.8812  1.5342
   98MOL   H12615840   6.973   1.471   6.595  2.3845 -0.6774 -1.6113
   98MOL   H12715841   7.005   1.597   6.334  0.1396  0.2882  0.4612
   98MOL   H12815842   7.172   1.634   6.490 -1.5350  1.0618 -0.8476
   98MOL   H12915843   7.226   1.479   6.469  0.4546  0.8400  0.3956
   98MOL   C13015844   7.020   1.378   6.365  0.3392 -0.0012  0.2600
   98MOL   C13115845   7.055   1.354   6.212 -0.9675  0.0541 -0.0878
   98MOL   N13215846   7.055   1.214   6.180 -0.4258 -0.5813  0.6581
   98MOL   H13315847   7.092   1.319   6.423  1.2180 -2.3724 -3.0846
   98MOL   H13415848   6.925   1.331   6.391  0.7981 -0.1990  1.6273
   98MOL   H13515849   7.158   1.384   6.191 -0.4299 -2.3449 -1.0129
   98MOL   H13615850   7.108   1.166   6.251  0.1942  1.5377  1.6760
   98MOL   H13715851   7.094   1.201   6.088 -3.0871 -0.4754 -0.5248
   98MOL   C13815852   6.946   1.416   6.118  0.6353  1.3098 -1.1595
   98MOL   C13915853   6.988   1.431   5.973  0.0763 -0.0868  0.2617
   98MOL   N14015854   6.864   1.456   5.895 -0.0721 -0.3469 -0.1404
   98MOL   H14115855   6.856   1.356   6.127  1.3265  0.4481  0.3878
   98MOL   H14215856   6.919   1.516   6.154 -1.5875 -0.4002  2.2300
   98MOL   H14315857   7.036   1.345   5.927 -0.2008 -0.0268 -0.1449
   98MOL   H14415858   6.862   1.450   5.794  0.4793  0.6936 -0.2213
   98MOL   H14515859   6.790   1.391   5.917  0.9815 -1.3971  0.3183
   98MOL   C14615860   7.071   1.561   5.962 -0.4467  0.0891  0.2885
   98MOL   C14715861   7.100   1.601   5.817 -0.1475  0.1222  0.0362
   98MOL   N14815862   7.181   1.720   5.815  0.3953  0.1473  0.1699
   98MOL   H14915863   7.032   1.645   6.020 -0.0621  0.5669 -0.1437
   98MOL   H15015864   7.164   1.532   6.011 -0.0622 -0.1497 -0.5692
   98MOL   H15115865   7.005   1.620   5.767  1.1025 -0.2997 -2.5965
   98MOL   H15215866   7.246   1.715   5.892 -0.3194  3.4754  1.0392
   98MOL   H15315867   7.125   1.801   5.836 -0.7338 -0.0818 -1.8525
   98MOL   C15415868   7.180   1.491   5.735  0.8944  0.0958 -0.3017
   98MOL   C15515869   7.171   1.517   5.575  0.1962  0.4465 -0.5104
   98MOL   N15615870   7.217   1.411   5.491 -0.1882 -0.2911 -0.5013
   98MOL   H15715871   0.010   1.486   5.762  0.8063 -1.5531 -0.2194
   98MOL   H15815872   7.138   1.391   5.745 -0.2978  0.6409  0.1518
   98MOL   H15915873   7.221   1.612   5.560  0.6804  0.8121  3.0514
   98MOL   H16015874   7.153   1.333   5.497 -0.1531 -0.2362  0.6520
   98MOL   H16115875   7.202   1.432   5.393 -2.7810 -2.1317 -0.5539
   98MOL   H16215876   7.064   1.534   5.564 -0.3956  0.0690  3.6597
   99MOL     C115877   2.195   6.174   0.529  0.2728  0.0343 -0.1133
   99MOL     C215878   2.299   6.095   0.607  0.3884 -0.4729 -0.7260
   99MOL     N315879   2.231   5.975   0.643 -0.0000  0.1379 -0.0495
   99MOL     H415880   2.105   6.197   0.586  0.5905  0.6879  0.1339
   99MOL     H515881   2.178   6.125   0.433  0.9403  0.0880 -0.2661
   99MOL     H615882   2.319   6.158   0.694 -3.8621 -0.1983  0.1672
   99MOL     H715883   2.135   5.996   0.665  0.4482  2.1914  0.0959
   99MOL     H815884   2.272   5.931   0.724 -0.1736 -1.5497 -0.8653
   99MOL     H915885   2.230   6.274   0.501 -0.6094  0.3628 -0.0660
   99MOL    C1015886   2.420   6.054   0.526  0.0711 -0.4243  0.5112
   99MOL    C1115887   2.512   6.182   0.492 -1.4563  0.2740 -0.5761
   99MOL    N1215888   2.609   6.200   0.599  0.5662 -0.0671 -0.4595
   99MOL    H1315889   2.471   5.981   0.589  1.4431  1.3189  1.5071
   99MOL    H1415890   2.393   6.000   0.435 -1.8523 -0.7312  1.2633
   99MOL    H1515891   2.457   6.276   0.490 -1.5314  0.2750  1.0417
   99MOL    H1615892   2.677   6.268   0.569  0.5039 -0.4892 -1.5624
   99MOL    H1715893   2.654   6.110   0.601 -0.7120 -0.7010  0.7466
   99MOL    C1815894   2.595   6.161   0.365 -0.7646 -0.0698  0.2235
   99MOL    C1915895   2.520   6.112   0.237  0.3094  0.5129 -0.1933
   99MOL    N2015896   2.401   6.186   0.216 -0.0342 -0.6853  0.6707
   99MOL    H2115897   2.636   6.260   0.346 -1.5653  0.6024  1.8436
   99MOL    H2215898   2.684   6.100   0.384  0.0457  1.6557  2.1514
   99MOL    H2315899   2.502   6.005   0.250  0.2194  0.4830 -0.5684
   99MOL    H2415900   2.343   6.178   0.298  1.4503 -0.0328  1.8136
   99MOL    H2515901   2.344   6.157   0.138  1.0790 -0.9212 -0.0725
   99MOL    C2615902   2.611   6.131   0.111 -0.1486 -0.1577  0.1320
   99MOL    C2715903   2.747   6.057   0.095 -0.4914 -0.4117 -0.7451
   99MOL    N2815904   2.714   5.924   0.043 -0.0084  0.0348  0.0182
   99MOL    H2915905   2.555   6.117   0.019 -0.3967 -0.2782  0.2989
   99MOL    H3015906   2.633   6.238   0.108  1.8598 -0.5857 -0.8824
   99MOL    H3115907   2.802   6.049   0.189  2.0913  0.6125 -2.1230
   99MOL    H3215908   2.693   5.860   0.119 -3.0503  1.3709  0.3672
   99MOL    H3315909   2.802   5.897   0.001 -1.4743  0.3350 -3.4026
   99MOL    C3415910   2.832   6.130   7.261  0.1049  1.1204 -0.4683
   99MOL    C3515911   2.941   6.229   0.032  0.6459 -0.1803 -0.0269
   99MOL    N3615912   3.063   6.202   7.243 -0.5989 -0.0417  0.3806
   99MOL    H3715913   2.877   6.055   7.196 -0.2241 -0.9849  1.6632
   99MOL    H3815914   2.769   6.179   7.186  2.1365  1.2275 -2.1602
   99MOL    H3915915   2.952   6.207   0.138  2.1812  2.8526  0.5175
   99MOL    H4015916   3.144   6.243   0.013  0.8414 -0.1690 -1.9480
   99MOL    H4115917   3.068   6.240   7.149 -1.2409 -1.6041 -0.2925
   99MOL    C4215918   2.895   6.376   0.017  0.1191 -0.6561  0.0583
   99MOL    C4315919   2.995   6.484   0.080  0.4302 -0.8126  0.4004
   99MOL    N4415920   2.949   6.613   0.038 -0.1282 -0.0907 -0.6640
   99MOL    H4515921   2.883   6.395   7.186  0.4940  0.4058  0.2064
   99MOL    H4615922   2.797   6.381   0.065 -0.4793  0.0952 -1.2357
   99MOL    H4715923   3.096   6.476   0.038  0.8813 -1.0746  1.5237
   99MOL    H4815924   3.014   6.685   0.066 -1.1694  0.4392  0.4252
   99MOL    H4915925   2.955   6.612   7.213 -2.7026  1.4621 -0.8853
   99MOL    C5015926   2.993   6.477   0.229 -0.4472 -0.1147  0.8039
   99MOL    C5115927   3.115   6.544   0.301  0.2251 -0.2228 -0.0679
   99MOL    N5215928   3.077   6.570   0.440  0.2039 -0.5352 -0.5994
   99MOL    H5315929   2.905   6.536   0.255 -1.3453 -0.5711 -1.0664
   99MOL    H5415930   2.979   6.375   0.264  1.2941 -0.4182  0.6498
   99MOL    H5515931   3.139   6.638   0.251 -1.0189  0.7763  1.1801
   99MOL    H5615932   3.087   6.481   0.488  0.5352  0.7574  1.7967
   99MOL    H5715933   3.151   6.620   0.486 -0.8111  1.8145 -1.4121
   99MOL    C5815934   3.244   6.449   0.289 -0.6532 -0.3400  0.1343
   99MOL    C5915935   3.366   6.498   0.366 -0.6340 -0.0820 -0.7323
   99MOL    N6015936   3.359   6.425   0.495  0.0234  0.8169 -0.7245
   99MOL    H6115937   3.219   6.346   0.314 -0.2521 -0.2315  0.9745
   99MOL    H6215938   3.262   6.426   0.184  0.1740 -1.7497  0.5713
   99MOL    H6315939   3.373   6.607   0.376  1.6392 -0.1215 -1.6114
   99MOL    H6415940   3.356   6.324   0.489  4.2400  0.5695  0.1966
   99MOL    H6515941   3.270   6.449   0.537  1.0128  1.7760  0.8627
   99MOL    C6615942   3.499   6.460   0.302  0.0443 -0.4032  0.6159
   99MOL    C6715943   3.560   6.568   0.211  0.5325  0.3464  0.3856
   99MOL    N6815944   3.681   6.507   0.174 -0.2875 -0.1819  0.2000
   99MOL    H6915945   3.568   6.453   0.386  0.1225  0.9300  0.6602
   99MOL    H7015946   3.488   6.360   0.259  2.2012  0.6230 -2.4622
   99MOL    H7115947   3.575   6.653   0.277  1.7348  0.6675 -0.2941
   99MOL    H7215948   3.661   6.425   0.118  0.7092 -0.3449  0.0644
   99MOL    H7315949   3.726   6.480   0.260  1.8720  1.8985 -0.2037
   99MOL    C7415950   3.475   6.607   0.094  0.4212  0.5001  0.4947
   99MOL    C7515951   3.518   6.735   0.026  0.1118  0.2606 -0.2786
   99MOL    N7615952   3.449   6.750   7.176 -0.5068 -0.4805  0.2153
   99MOL    H7715953   3.471   6.532   0.015 -0.0692  1.5929 -0.5255
   99MOL    H7815954   3.374   6.619   0.133  0.4650  1.5400  0.2857
   99MOL    H7915955   3.625   6.723   0.008  0.3930  0.6329  1.0698
   99MOL    H8015956   3.418   6.669   7.124  2.0297 -0.6350 -1.1557
   99MOL    H8115957   3.361   6.794   7.196  0.1134  0.3937  1.0125
   99MOL    C8215958   3.504   6.863   0.121  0.8244 -0.2500  0.2364
   99MOL    C8315959   3.361   6.898   0.174  0.1576  0.0988  0.0326
   99MOL    N8415960   3.355   6.927   0.324  1.0249 -0.3174 -0.7482
   99MOL    H8515961   3.569   6.866   0.209  0.8496 -0.2813  0.2191
   99MOL    H8615962   3.538   6.947   0.061  0.2745 -1.3817 -1.7208
   99MOL    H8715963   3.284   6.827   0.144 -0.7227 -0.0523  2.5369
   99MOL    H8815964   3.398   6.850   0.375  1.1467  0.3148  0.1042
   99MOL    H8915965   3.260   6.912   0.353  0.8749 -1.3152 -1.7349
   99MOL    C9015966   3.309   7.026   0.107  0.3661  0.0503  0.2188
   99MOL    C9115967   3.292   7.026   7.224  0.3709  0.4906 -0.9289
   99MOL    N9215968   3.207   6.907   7.189  0.1194  0.0963 -0.5141
   99MOL    H9315969   3.214   7.050   0.155  0.2731  1.5621 -0.6720
   99MOL    H9415970   3.372   7.108   0.142  1.6477 -1.1180  0.6979
   99MOL    H9515971   3.390   7.012   7.178  0.0693 -0.2915 -1.3456
   99MOL    H9615972   3.210   6.864   7.098  0.9889  0.0409 -0.4690
   99MOL    H9715973   3.112   6.919   7.222  0.0458  0.6117 -0.9059
   99MOL    C9815974   3.234   7.157   7.164  0.3905  0.4392 -0.0083
   99MOL    C9915975   3.297   0.018   7.195  0.2281  0.1073 -0.4405
   99MOL   N10015976   3.418   0.038   7.130 -0.3096  0.1734  0.1079
   99MOL   H10115977   3.233   7.139   7.056 -2.2134  0.8869 -0.0893
   99MOL   H10215978   3.132   7.168   7.201  0.9945  0.1098  1.8155
   99MOL   H10315979   3.301   0.033   0.028  0.1953  1.5236 -0.6279
   99MOL   H10415980   3.473   0.105   7.182 -0.8015 -0.4860  1.4921
   99MOL   H10515981   3.485   7.239   7.143  0.7020  1.0187 -0.1698
   99MOL   C10615982   3.199   0.133   7.161  0.2537 -0.9221  0.5482
   99MOL   C10715983   3.081   0.151   7.260  0.7652 -0.0465  0.2277
   99MOL   N10815984   3.133   0.204   0.111 -0.1173 -0.9040 -0.5191
   99MOL   H10915985   3.256   0.226   7.161  0.5705 -1.1179  1.7017
   99MOL   H11015986   3.163   0.112   7.060  3.0379 -0.7732 -0.5153
   99MOL   H11115987   3.047   0.053   0.017  3.4859 -1.0088  0.3282
   99MOL   H11215988   3.064   0.206   0.185  1.0286 -1.4513  0.5790
   99MOL   H11315989   3.205   0.155   0.162 -1.5168 -0.0587  2.3960
   99MOL   C11415990   2.967   0.243   7.198 -0.2305 -1.0380 -0.2710
   99MOL   C11515991   2.819   0.224   7.242 -0.1349  0.0902  0.0805
   99MOL   N11615992   2.741   0.325   7.169 -0.1917  0.0904  0.6547
   99MOL   H11715993   3.000   0.343   7.225  0.3246 -0.7744 -1.9115
   99MOL   H11815994   2.968   0.233   7.090 -0.7373  1.7038 -0.5553
   99MOL   H11915995   2.827   0.266   0.067  3.0553 -0.6315  0.1831
   99MOL   H12015996   2.741   0.303   7.070 -3.7565  0.8417  0.4214
   99MOL   H12115997   2.644   0.316   7.195  0.2647 -2.7354  1.5858
   99MOL   C12215998   2.758   0.083   7.233  0.6100  0.5450  0.3366
   99MOL   C12315999   2.620   0.077   0.026 -0.4271  0.3360 -0.6240
   99MOL   N12416000   2.554   7.242   7.244  0.2215  0.0189  0.0414
   99MOL   H12516001   2.753   0.039   7.133  1.3321 -1.7772  1.2733
   99MOL   H12616002   2.831   0.015   0.002  0.8062 -0.3681 -1.3260
   99MOL   H12716003   2.563   0.165   7.272  0.5729  0.5743 -1.9180
   99MOL   H12816004   2.487   7.216   0.040 -2.3933  0.4523 -2.1373
   99MOL   H12916005   2.610   7.158   7.239 -0.5672 -0.4267 -1.8511
   99MOL   C13016006   2.621   0.055   0.176 -0.0358 -0.5549  0.4024
   99MOL   C13116007   2.501   0.125   0.246 -0.3508 -0.1556  0.8743
   99MOL   N13216008   2.485   0.055   0.376 -0.1920  0.3612 -0.7047
   99MOL   H13316009   2.626   7.225   0.201  0.0213 -0.7045 -0.2192
   99MOL   H13416010   2.712   0.107   0.204 -0.7923  0.6228  0.7145
   99MOL   H13516011   2.407   0.117   0.192  0.8586 -1.5763 -1.1402
   99MOL   H13616012   2.410   7.265   0.362 -0.6606  0.8843 -0.6980
   99MOL   H13716013   2.445   0.119   0.443 -3.0432  0.2661 -2.2702
   99MOL   C13816014   2.534   0.275   0.281  0.6478 -0.7412 -0.0157
   99MOL   C13916015   2.412   0.358   0.317  0.1019 -0.0632  0.2671
   99MOL   N14016016   2.456   0.459   0.416 -0.4579  0.1584 -0.1037
   99MOL   H14116017   2.610   0.268   0.359 -0.4266 -1.3912  0.9933
   99MOL   H14216018   2.586   0.316   0.195  0.0888  1.4996  0.6696
   99MOL   H14316019   2.339   0.290   0.362  0.4184 -0.1648  0.6262
   99MOL   H14416020   2.495   0.415   0.498 -0.8042 -0.7305 -0.4185
   99MOL   H14516021   2.535   0.512   0.381  2.0656 -1.7325  2.5445
   99MOL   C14616022   2.331   0.425   0.205  0.0830 -0.0091  0.3251
   99MOL   C14716023   2.192   0.471   0.244  0.0299  0.4997 -0.4316
   99MOL   N14816024   2.200   0.596   0.313 -0.4842 -0.2695  0.3879
   99MOL   H14916025   2.386   0.506   0.157 -0.0388  0.2564  0.6274
   99MOL   H15016026   2.316   0.355   0.123  0.5179 -0.5864  0.7377
   99MOL   H15116027   2.140   0.393   0.299  0.5430 -0.4117 -1.2283
   99MOL   H15216028   2.272   0.575   0.380 -1.4086 -0.6276  1.2901
   99MOL   H15316029   2.111   0.617   0.357 -1.3773  1.0895 -1.9568
   99MOL   C15416030   2.105   0.501   0.119  0.0717 -0.0105 -0.4331
   99MOL   C15516031   2.051   0.383   0.051 -0.1455 -0.0065 -0.1944
   99MOL   N15616032   1.968   0.425   7.214  0.0104  0.2029  0.0178
   99MOL   H15716033   2.028   0.571   0.152 -0.4440 -1.1180  0.7663
   99MOL   H15816034   2.169   0.555   0.050  0.5028  0.4603  0.3306
   99MOL   H15916035   1.982   0.333   0.119 -0.7620  0.9655 -0.0824
   99MOL   H16016036   2.030   0.464   7.145 -0.4995 -1.1272 -1.2292
   99MOL   H16116037   1.915   0.354   7.166 -0.5629  1.9513 -2.0272
   99MOL   H16216038   2.129   0.319   0.011 -0.6305 -0.2923 -0.6972
  100MOL     C116039   1.836   3.270   3.065  0.5147 -0.1315  0.4379
  100MOL     C216040   1.845   3.202   3.198 -0.2241 -1.0124 -1.2966
  100MOL     N316041   1.858   3.066   3.164 -0.6330 -0.0860 -0.7095
  100MOL     H416042   1.737   3.260   3.020  0.1863  1.5545  0.7558
  100MOL     H516043   1.913   3.251   2.991  1.0658 -1.8324  1.4155
  100MOL     H616044   1.750   3.212   3.251  0.6435 -1.2748  0.3638
  100MOL     H716045   1.785   3.024   3.108 -1.0749  1.4729 -1.3369
  100MOL     H816046   1.941   3.049   3.108 -2.5677 -0.2433 -3.6753
  100MOL     H916047   1.825   3.376   3.088 -2.0074 -0.4741  1.0065
  100MOL    C1016048   1.956   3.253   3.295 -0.5624  0.0382  0.0621
  100MOL    C1116049   1.947   3.404   3.329 -0.3333  0.4488  0.7159
  100MOL    N1216050   1.814   3.432   3.374  1.5854  0.8163  0.0178
  100MOL    H1316051   1.941   3.198   3.388 -3.9088 -0.5689 -0.7866
  100MOL    H1416052   2.054   3.232   3.251  0.2877  2.6408  0.6201
  100MOL    H1516053   1.958   3.457   3.234  0.4019 -3.5286 -1.5004
  100MOL    H1616054   1.746   3.410   3.303  0.7974  0.8433  0.7699
  100MOL    H1716055   1.790   3.371   3.450  0.9010  0.4367 -0.5006
  100MOL    C1816056   2.035   3.459   3.436 -0.7519 -0.0862 -0.3116
  100MOL    C1916057   2.185   3.452   3.415  0.2206  0.2579 -0.1169
  100MOL    N2016058   2.221   3.511   3.287  0.1122 -0.0794  0.3692
  100MOL    H2116059   2.017   3.566   3.439  0.8268  0.1594  0.9390
  100MOL    H2216060   2.017   3.418   3.536  1.5693 -0.0997  0.1208
  100MOL    H2316061   2.205   3.345   3.407 -0.7241  0.0805 -0.1763
  100MOL    H2416062   2.199   3.448   3.211 -2.5726  0.8818  0.2943
  100MOL    H2516063   2.322   3.515   3.284  0.1404 -0.7559  0.2316
  100MOL    C2616064   2.266   3.521   3.535 -0.4833 -0.4272  0.6524
  100MOL    C2716065   2.412   3.464   3.547 -0.2613 -0.1588  0.3902
  100MOL    N2816066   2.490   3.493   3.426 -0.2556  0.1160 -0.0469
  100MOL    H2916067   2.277   3.625   3.504  0.1101 -0.5074  0.5958
  100MOL    H3016068   2.209   3.509   3.627 -0.1934  1.5519  1.1132
  100MOL    H3116069   2.405   3.357   3.565 -0.3303 -0.2278 -0.0534
  100MOL    H3216070   2.585   3.464   3.443  0.4959  1.0984 -2.3123
  100MOL    H3316071   2.495   3.593   3.413  0.2194  0.1325  0.2545
  100MOL    C3416072   2.487   3.520   3.670  0.3849  0.4437  0.3156
  100MOL    C3516073   2.622   3.462   3.705  0.2438 -0.4181 -0.2536
  100MOL    N3616074   2.684   3.548   3.801  0.6459  0.3716  0.4538
  100MOL    H3716075   2.497   3.629   3.667  0.4813  0.4584  1.2389
  100MOL    H3816076   2.425   3.497   3.756  0.4005  1.3950  0.5889
  100MOL    H3916077   2.677   3.453   3.611 -1.2770 -2.5915 -0.9778
  100MOL    H4016078   2.659   3.644   3.782 -2.8163 -0.6852 -0.7192
  100MOL    H4116079   2.645   3.530   3.893  0.2096 -0.4176  0.1214
  100MOL    C4216080   2.618   3.313   3.751  0.0724 -0.1178 -0.1972
  100MOL    C4316081   2.751   3.263   3.813  0.6627  0.0981  0.0851
  100MOL    N4416082   2.700   3.151   3.895  0.0471 -0.5322 -0.3186
  100MOL    H4516083   2.527   3.308   3.811 -0.6055 -1.9731 -1.3312
  100MOL    H4616084   2.591   3.256   3.662  0.0022  1.6815 -1.3412
  100MOL    H4716085   2.796   3.342   3.874  2.2120  0.9084 -2.0083
  100MOL    H4816086   2.610   3.156   3.939 -0.1802 -2.2241 -0.5653
  100MOL    H4916087   2.766   3.140   3.971  0.7953 -0.9605 -1.0174
  100MOL    C5016088   2.849   3.201   3.699 -0.0816  0.0072 -0.6288
  100MOL    C5116089   2.935   3.305   3.623 -0.4031 -0.9416  0.3523
  100MOL    N5216090   3.077   3.274   3.624 -0.5981 -0.1069 -0.2121
  100MOL    H5316091   2.914   3.137   3.758  0.4110  1.5890  0.5626
  100MOL    H5416092   2.793   3.149   3.621 -1.6173  0.1288  0.3761
  100MOL    H5516093   2.909   3.397   3.676  0.2090 -0.1484 -0.7135
  100MOL    H5616094   3.115   3.280   3.718 -1.3828 -2.2719  0.2657
  100MOL    H5716095   3.097   3.177   3.603  1.9376  0.1320  0.9383
  100MOL    C5816096   2.887   3.336   3.479 -0.0476 -0.3972 -0.0579
  100MOL    C5916097   2.919   3.478   3.426 -0.4683 -0.7116  0.4461
  100MOL    N6016098   3.063   3.514   3.435  0.2235  0.1271 -0.1490
  100MOL    H6116099   2.921   3.261   3.407  0.0861  1.8117 -2.3563
  100MOL    H6216100   2.780   3.319   3.480 -0.2546  0.9125  0.5491
  100MOL    H6316101   2.873   3.549   3.495 -0.9085  1.9059 -2.4543
  100MOL    H6416102   3.086   3.446   3.506 -1.3517  1.1848  1.4003
  100MOL    H6516103   3.105   3.488   3.347 -0.1422 -1.8944  0.2289
  100MOL    C6616104   2.866   3.513   3.279 -0.2544  0.4768  0.4111
  100MOL    C6716105   2.848   3.661   3.263 -0.0087 -0.4078 -0.2653
  100MOL    N6816106   2.840   3.700   3.126  0.2943  0.1009 -0.2684
  100MOL    H6916107   2.929   3.458   3.208  1.3091  1.4161  1.0285
  100MOL    H7016108   2.773   3.466   3.250  1.0945 -0.5263 -2.4462
  100MOL    H7116109   2.939   3.706   3.305 -0.0449  1.1059 -1.7715
  100MOL    H7216110   2.834   3.801   3.124  1.3632  0.1464 -2.9640
  100MOL    H7316111   2.925   3.671   3.078  0.9925  0.4183  0.7578
  100MOL    C7416112   2.713   3.699   3.335  0.8144  0.0983  0.4815
  100MOL    C7516113   2.720   3.831   3.410  0.1646  1.1772 -0.1119
  100MOL    N7616114   2.582   3.882   3.427  0.2853  0.5105  0.0968
  100MOL    H7716115   2.628   3.690   3.267  2.3676 -0.8053 -1.4111
  100MOL    H7816116   2.699   3.617   3.404 -0.4113  0.5828  0.8209
  100MOL    H7916117   2.765   3.909   3.349  0.2489  0.7299 -0.6258
  100MOL    H8016118   2.603   3.967   3.476 -0.1955  0.3230  0.6377
  100MOL    H8116119   2.530   3.915   3.347 -1.7327  0.9810  1.5603
  100MOL    C8216120   2.797   3.816   3.543  0.7641 -0.3704  0.1254
  100MOL    C8316121   2.951   3.823   3.540 -0.7806  0.3433 -0.1494
  100MOL    N8416122   3.003   3.945   3.473  0.5252  0.3117 -0.0282
  100MOL    H8516123   2.764   3.899   3.606  0.0350  0.4182 -1.2818
  100MOL    H8616124   2.753   3.732   3.598  0.7675  0.9079  2.1682
  100MOL    H8716125   2.995   3.740   3.485 -4.0906 -3.0320  2.0481
  100MOL    H8816126   2.971   3.950   3.377 -0.0673 -3.2568 -0.0952
  100MOL    H8916127   3.104   3.941   3.468  0.6888  1.3426  1.9518
  100MOL    C9016128   3.004   3.823   3.686 -0.3170 -0.8428 -0.3587
  100MOL    C9116129   3.009   3.689   3.756  1.0696 -0.4456 -0.2527
  100MOL    N9216130   3.121   3.604   3.709 -0.1318 -0.1572  0.0131
  100MOL    H9316131   3.095   3.882   3.697  1.0779 -2.9192 -0.5650
  100MOL    H9416132   2.936   3.887   3.742 -1.0524 -2.1615  0.2867
  100MOL    H9516133   2.913   3.637   3.759  0.0953  1.3455  0.9739
  100MOL    H9616134   3.105   3.506   3.726 -0.6262  0.0817  0.9964
  100MOL    H9716135   3.121   3.598   3.608  1.1253  0.4425 -0.0365
  100MOL    C9816136   3.043   3.723   3.909  0.8437  0.7511  0.6281
  100MOL    C9916137   3.005   3.611   4.007  0.3309  0.0110  0.7977
  100MOL   N10016138   3.108   3.588   4.101  0.0867 -0.5249 -0.5437
  100MOL   H10116139   3.152   3.731   3.907  0.8649  1.1155  2.4978
  100MOL   H10216140   3.006   3.820   3.943 -0.1477 -0.0970  1.9954
  100MOL   H10316141   3.004   3.520   3.947 -2.8039 -0.5200  1.5601
  100MOL   H10416142   3.061   3.513   4.149 -0.1800  1.4362  2.3665
  100MOL   H10516143   3.187   3.551   4.050 -0.4816 -1.8064 -0.4987
  100MOL   C10616144   2.880   3.639   4.088 -0.0328 -0.1645 -0.2227
  100MOL   C10716145   2.818   3.526   4.172 -0.1525  0.0925 -0.1799
  100MOL   N10816146   2.890   3.497   4.300 -0.3274  0.5664  0.1353
  100MOL   H10916147   2.909   3.727   4.146 -0.3649 -0.6634  0.7129
  100MOL   H11016148   2.803   3.677   4.020  0.0833 -1.4160 -1.0663
  100MOL   H11116149   2.819   3.436   4.112 -3.0187  0.9284 -1.6054
  100MOL   H11216150   2.820   3.455   4.360  0.2480 -0.1881  0.2790
  100MOL   H11316151   2.896   3.589   4.340 -2.3007  0.5401  0.5636
  100MOL   C11416152   2.672   3.560   4.202  0.2940  0.4584  0.2986
  100MOL   C11516153   2.557   3.463   4.243 -0.4673 -0.5083 -0.2142
  100MOL   N11616154   2.436   3.539   4.232  0.0503  0.5280  0.1145
  100MOL   H11716155   2.685   3.638   4.277  1.4945  1.5742 -1.0306
  100MOL   H11816156   2.638   3.609   4.110  0.1143  0.4741  0.3737
  100MOL   H11916157   2.574   3.440   4.349 -3.1334 -1.2446  0.1076
  100MOL   H12016158   2.425   3.604   4.309  0.1123  0.3275  0.2931
  100MOL   H12116159   2.365   3.475   4.264  0.6501 -0.0617  0.2752
  100MOL   C12216160   2.564   3.347   4.146 -0.2697 -0.2803  0.4769
  100MOL   C12316161   2.448   3.244   4.162 -0.0683  0.0695  0.0494
  100MOL   N12416162   2.451   3.148   4.055 -0.0705 -0.9727  0.2135
  100MOL   H12516163   2.551   3.383   4.044  0.4336 -0.7006  0.2352
  100MOL   H12616164   2.657   3.289   4.146  0.1292  0.3389 -0.8806
  100MOL   H12716165   2.360   3.306   4.154 -0.2299 -0.2009 -0.3038
  100MOL   H12816166   2.392   3.176   3.978  1.4186  0.5716 -0.4150
  100MOL   H12916167   2.406   3.067   4.095  0.6820 -2.0996 -1.1608
  100MOL   C13016168   2.446   3.173   4.301 -0.6063 -0.3117 -0.8415
  100MOL   C13116169   2.324   3.082   4.331  0.6467 -0.1496 -0.6501
  100MOL   N13216170   2.348   3.028   4.461 -0.2743  0.2284  0.0076
  100MOL   H13316171   2.541   3.122   4.318 -1.7161 -3.4231 -3.3014
  100MOL   H13416172   2.433   3.248   4.378  1.1224  0.0639 -0.9055
  100MOL   H13516173   2.326   3.001   4.258 -1.4416 -0.6024 -0.2308
  100MOL   H13616174   2.272   2.964   4.481  0.3850 -0.1052  1.5569
  100MOL   H13716175   2.432   2.972   4.457 -1.8665 -2.4212  1.8250
  100MOL   C13816176   2.181   3.158   4.321  0.7230 -0.5672  0.3756
  100MOL   C13916177   2.063   3.062   4.330  0.3054 -0.3707  0.2367
  100MOL   N14016178   1.948   3.155   4.335 -0.4055  0.1474 -0.1020
  100MOL   H14116179   2.167   3.235   4.397  0.6626  0.4568 -0.6636
  100MOL   H14216180   2.176   3.215   4.229 -0.8618 -0.2779  0.6322
  100MOL   H14316181   2.077   3.000   4.418 -2.2480 -1.2954  0.0285
  100MOL   H14416182   1.934   3.196   4.426 -1.0013  0.7570 -0.4679
  100MOL   H14516183   1.870   3.093   4.317  0.6718 -1.6186  1.0520
  100MOL   C14616184   2.050   2.971   4.206  0.3087  0.2872 -0.4160
  100MOL   C14716185   1.935   2.869   4.211  0.2881 -0.4016  0.3984
  100MOL   N14816186   1.930   2.827   4.066  0.1226 -0.7349  0.3866
  100MOL   H14916187   2.054   3.038   4.120 -1.0560 -0.9327 -1.4637
  100MOL   H15016188   2.135   2.904   4.207  0.8034  0.9119  0.8445
  100MOL   H15116189   1.842   2.920   4.233  0.9479  0.9737  0.0670
  100MOL   H15216190   1.866   2.749   4.063 -0.3515 -0.3301 -0.0925
  100MOL   H15316191   1.882   2.890   4.003  0.3022 -0.7551  0.2286
  100MOL   C15416192   1.966   2.746   4.298  0.4054 -0.2422  0.2657
  100MOL   C15516193   1.928   2.767   4.443  0.1433 -0.1690  0.2346
  100MOL   N15616194   1.904   2.645   4.512  0.0818  0.3057  0.3846
  100MOL   H15716195   1.899   2.667   4.265  0.4016 -0.1344  0.0193
  100MOL   H15816196   2.066   2.706   4.281 -0.5239 -2.1454 -0.8531
  100MOL   H15916197   1.838   2.829   4.451 -1.2739 -2.2228  0.5835
  100MOL   H16016198   1.979   2.578   4.511 -0.8534 -0.7933  1.4566
  100MOL   H16116199   1.825   2.585   4.492 -0.0855  0.0821  1.6351
  100MOL   H16216200   2.005   2.824   4.495 -0.3262  1.0473 -0.3831
  101MOL     C116201   7.019   7.220   3.991 -0.2522 -0.4208 -0.1011
  101MOL     C216202   6.912   7.214   3.893  0.0460  0.4994  0.4082
  101MOL     N316203   6.973   7.242   3.763 -0.0304 -0.0587  0.4530
  101MOL     H416204   6.986   7.218   4.095  2.4691  2.0548  0.8982
  101MOL     H516205   7.090   0.024   3.967 -0.5865  0.7869  2.6876
  101MOL     H616206   6.829   0.007   3.907 -0.6793  0.5392 -3.4930
  101MOL     H716207   6.921   7.201   3.687 -0.9599  0.5874  0.7302
  101MOL     H816208   6.982   0.067   3.754 -0.9747 -0.1011 -1.2433
  101MOL     H916209   7.071   7.125   3.983 -0.8370 -0.7114 -0.5083
  101MOL    C1016210   6.846   7.072   3.884 -0.2958  0.0924 -0.2527
  101MOL    C1116211   6.773   7.031   4.011 -0.1982  0.5764 -0.3110
  101MOL    N1216212   6.650   7.107   4.022  0.5016  0.6084  0.0751
  101MOL    H1316213   6.781   7.056   3.797 -1.1242 -0.8563  0.5340
  101MOL    H1416214   6.924   6.998   3.872  2.0107  2.4834 -0.4891
  101MOL    H1516215   6.838   7.048   4.097  1.1957 -1.9297 -0.8333
  101MOL    H1616216   6.601   7.062   4.098  0.9495  0.6235  0.3755
  101MOL    H1716217   6.672   7.203   4.046  3.2255  0.3794 -1.2788
  101MOL    C1816218   6.730   6.883   4.010 -0.1488 -0.5496 -0.4327
  101MOL    C1916219   6.840   6.783   4.047  0.3650  0.8562 -0.2730
  101MOL    N2016220   6.855   6.783   4.191  0.0662  0.6787 -0.1228
  101MOL    H2116221   6.650   6.867   4.082  1.3062 -0.7599  1.1695
  101MOL    H2216222   6.698   6.860   3.909 -0.0623 -1.1599 -0.3190
  101MOL    H2316223   6.935   6.818   4.008  0.9665  0.0928  0.5001
  101MOL    H2416224   6.902   6.870   4.213  0.7047  0.5012 -0.7731
  101MOL    H2516225   6.921   6.712   4.220  0.1329  1.2063  1.0729
  101MOL    C2616226   6.821   6.638   4.009  0.0952 -0.5499  0.3123
  101MOL    C2716227   6.890   6.613   3.874  0.0864  0.1807  0.2033
  101MOL    N2816228   7.031   6.639   3.889  0.3812  0.2684  0.0938
  101MOL    H2916229   6.876   6.569   4.072  1.5315  0.7600  0.5339
  101MOL    H3016230   6.716   6.616   3.995  0.2504 -1.4945  0.6452
  101MOL    H3116231   6.846   6.686   3.806  0.6061  1.9357  1.6943
  101MOL    H3216232   7.039   6.727   3.939  0.1953  0.2258  0.2008
  101MOL    H3316233   7.072   6.656   3.799  0.1031 -0.0247 -0.0871
  101MOL    C3416234   6.875   6.477   3.811  0.3541  0.4184 -0.2784
  101MOL    C3516235   6.733   6.418   3.805 -0.6299  0.3429 -0.5947
  101MOL    N3616236   6.633   6.508   3.760  0.5770 -0.5769 -0.0731
  101MOL    H3716237   6.915   6.480   3.709  1.7705  1.8764  0.2993
  101MOL    H3816238   6.944   6.407   3.856 -1.7050 -1.3700  0.2088
  101MOL    H3916239   6.700   6.387   3.905  1.8115  2.8700  1.0568
  101MOL    H4016240   6.616   6.580   3.829 -0.8226  1.0991 -2.1239
  101MOL    H4116241   6.651   6.555   3.673 -0.6364  1.9666  0.9817
  101MOL    C4216242   6.737   6.296   3.718  0.6954  0.6971  0.8923
  101MOL    C4316243   6.612   6.205   3.718  0.3755  0.0896  0.6209
  101MOL    N4416244   6.500   6.265   3.640 -0.1234 -0.8132  0.2686
  101MOL    H4516245   6.749   6.326   3.614 -1.6441 -0.5561  0.2297
  101MOL    H4616246   6.829   6.240   3.740 -0.5015 -0.7719  2.3602
  101MOL    H4716247   6.591   6.199   3.825  0.3599 -0.4572  0.5893
  101MOL    H4816248   6.495   6.356   3.683  1.9445  0.3015 -1.7466
  101MOL    H4916249   6.414   6.217   3.661 -0.2606 -1.4650 -1.6541
  101MOL    C5016250   6.646   6.062   3.673 -0.4405  0.4166 -0.3481
  101MOL    C5116251   6.529   5.964   3.682  0.5284  0.1112 -0.6616
  101MOL    N5216252   6.579   5.835   3.635 -0.0728 -0.5339 -0.0193
  101MOL    H5316253   6.685   6.062   3.571  0.4148  0.6418 -0.0281
  101MOL    H5416254   6.725   6.024   3.738 -1.7848 -0.9191  0.5250
  101MOL    H5516255   6.454   5.997   3.610 -0.3328  0.8023  0.5446
  101MOL    H5616256   6.502   5.773   3.659 -0.3036  0.4624  1.9400
  101MOL    H5716257   6.605   5.826   3.538 -1.3860  1.8776 -0.6252
  101MOL    C5816258   6.464   5.945   3.822  0.1906  0.2731 -0.3288
  101MOL    C5916259   6.346   6.039   3.852  0.3089  0.3683 -0.1141
  101MOL    N6016260   6.223   5.975   3.808 -0.5510 -0.0832  0.3753
  101MOL    H6116261   6.442   5.842   3.851 -0.5785  1.0187  1.8275
  101MOL    H6216262   6.550   5.960   3.886  1.4617 -2.5045 -1.2728
  101MOL    H6316263   6.352   6.128   3.788  0.8164 -0.0695 -0.6854
  101MOL    H6416264   6.143   6.034   3.828 -0.0731  0.5220  0.5257
  101MOL    H6516265   6.202   5.890   3.858 -2.0678  1.0782  1.7699
  101MOL    C6616266   6.336   6.074   4.009 -0.2346 -0.5311  0.0652
  101MOL    C6716267   6.424   6.202   4.056 -0.6833  0.1142 -0.2537
  101MOL    N6816268   6.364   6.318   4.004 -0.4816 -0.7129 -0.4255
  101MOL    H6916269   6.232   6.099   4.033  0.4255  1.5816  0.8282
  101MOL    H7016270   6.365   5.985   4.065 -0.2863 -1.1077 -0.8133
  101MOL    H7116271   6.524   6.185   4.015 -0.1729 -0.3593  1.1377
  101MOL    H7216272   6.406   6.394   4.055 -2.4217  0.0601  0.0511
  101MOL    H7316273   6.403   6.336   3.912 -0.0236  0.7373  0.0315
  101MOL    C7416274   6.434   6.214   4.207  0.0237  0.6481  0.2667
  101MOL    C7516275   6.555   6.302   4.253  0.2318 -0.8621 -0.3305
  101MOL    N7616276   6.533   6.353   4.385  0.3875 -0.1431  0.3840
  101MOL    H7716277   6.346   6.261   4.252  0.8040  0.5209  1.9925
  101MOL    H7816278   6.445   6.109   4.235  1.1022  0.5919 -0.3349
  101MOL    H7916279   6.559   6.378   4.176 -2.2113 -2.0506 -1.6974
  101MOL    H8016280   6.444   6.401   4.393  0.3955 -0.2846  1.3938
  101MOL    H8116281   6.599   6.428   4.396  0.0260  0.5678 -2.0555
  101MOL    C8216282   6.681   6.221   4.245 -0.4639  0.4457 -0.5879
  101MOL    C8316283   6.812   6.293   4.195 -0.6672 -0.5369  0.1998
  101MOL    N8416284   6.853   6.395   4.281 -0.0119  0.0414  0.8618
  101MOL    H8516285   6.695   6.167   4.339 -2.4056  1.0257  0.0620
  101MOL    H8616286   6.654   6.138   4.181  1.4067  0.4012 -1.3413
  101MOL    H8716287   6.799   6.336   4.095  2.4011  1.8755  0.7781
  101MOL    H8816288   6.934   6.433   4.234 -0.4748 -0.7643 -0.6013
  101MOL    H8916289   6.786   6.470   4.268  1.0058  1.2355  2.2069
  101MOL    C9016290   6.936   6.195   4.188 -0.2003  0.2146 -0.0225
  101MOL    C9116291   6.933   6.084   4.076 -0.0947 -0.0538  0.0768
  101MOL    N9216292   7.001   6.146   3.957  0.3652 -0.0785 -0.1053
  101MOL    H9316293   7.031   6.248   4.187  0.3906 -0.7659  1.7418
  101MOL    H9416294   6.941   6.153   4.289 -0.1813 -0.2408 -0.2120
  101MOL    H9516295   6.827   6.067   4.055  0.1397 -0.8056 -0.4901
  101MOL    H9616296   6.945   6.209   3.901 -1.9370 -2.4307 -0.5114
  101MOL    H9716297   7.085   6.198   3.981  0.4686  0.7379 -2.1691
  101MOL    C9816298   7.000   5.947   4.101 -0.4659 -0.0953  0.4110
  101MOL    C9916299   6.978   5.888   4.241  0.2670 -0.0375  0.1987
  101MOL   N10016300   6.840   5.875   4.270  0.8511 -0.4104  0.3780
  101MOL   H10116301   6.969   5.879   4.021  2.9130  0.6055 -1.6170
  101MOL   H10216302   7.105   5.943   4.073 -0.1672  4.0249  0.7437
  101MOL   H10316303   7.017   5.955   4.317  1.8008  2.2276 -2.5131
  101MOL   H10416304   6.793   5.960   4.299  0.8053  0.1192 -1.1960
  101MOL   H10516305   6.800   5.849   4.181 -0.2598  0.4239  0.6183
  101MOL   C10616306   7.051   5.756   4.256 -0.2018  0.2463 -0.0759
  101MOL   C10716307   7.037   5.689   4.397  0.0707  0.4048  0.1199
  101MOL   N10816308   7.090   5.553   4.407 -0.3673  0.2814 -0.3775
  101MOL   H10916309   7.027   5.686   4.176 -2.0829  1.8370 -0.9614
  101MOL   H11016310   7.155   5.788   4.244  0.1318 -0.9930 -0.5092
  101MOL   H11116311   6.928   5.687   4.405  0.1728 -2.6692  1.8883
  101MOL   H11216312   7.046   5.516   4.490  0.2311 -0.8572 -0.5545
  101MOL   H11316313   7.186   5.565   4.437  0.7601 -0.6419 -3.4789
  101MOL   C11416314   7.075   5.768   4.520 -0.5023 -0.4735  0.4698
  101MOL   C11516315   6.965   5.822   4.603  0.3324  0.0631 -0.4739
  101MOL   N11616316   6.901   5.712   4.677 -0.3779  0.4428  0.3764
  101MOL   H11716317   7.157   5.712   4.566 -0.2745  0.6308  1.4218
  101MOL   H11816318   7.116   5.863   4.487 -1.6866  0.1165  0.6908
  101MOL   H11916319   6.891   5.854   4.530  1.5280  0.2498 -1.6228
  101MOL   H12016320   6.885   5.629   4.622 -1.3514 -0.1787  1.6001
  101MOL   H12116321   6.806   5.740   4.696 -0.3017  0.3281  0.9202
  101MOL   C12216322   7.004   5.930   4.706  0.3515 -0.2060 -0.3945
  101MOL   C12316323   7.037   6.073   4.652  0.1456  0.1391  1.0521
  101MOL   N12416324   6.916   6.131   4.590 -0.1349  0.6878  0.2513
  101MOL   H12516325   6.940   5.925   4.794 -0.9646 -1.4081 -1.4223
  101MOL   H12616326   7.101   5.899   4.746  1.2113 -0.6114 -2.7474
  101MOL   H12716327   7.115   6.048   4.581 -2.3102  1.0208 -2.0727
  101MOL   H12816328   6.871   6.069   4.524  0.9117 -0.7903  0.9170
  101MOL   H12916329   6.932   6.220   4.544  0.5302  1.2559  1.5412
  101MOL   C13016330   7.085   6.178   4.751  0.1225  0.2970 -0.2768
  101MOL   C13116331   7.210   6.138   4.826  0.4353 -0.0384  0.3489
  101MOL   N13216332   0.044   6.138   4.736 -0.4138  0.0546  0.3081
  101MOL   H13316333   7.109   6.265   4.690  2.3158  1.9792  2.8735
  101MOL   H13416334   7.000   6.185   4.818 -0.4544 -1.9946 -0.7297
  101MOL   H13516335   7.205   6.044   4.880 -0.0006  0.3652  1.0195
  101MOL   H13616336   0.061   6.039   4.726 -0.6090  0.1163 -0.7266
  101MOL   H13716337   0.130   6.151   4.786  0.0745  0.1481 -0.5411
  101MOL   C13816338   7.230   6.240   4.939 -1.0295  0.3099  0.2864
  101MOL   C13916339   7.127   6.235   5.055  0.4155  0.0092 -0.5585
  101MOL   N14016340   7.132   6.114   5.137 -0.7660  0.1137  0.2455
  101MOL   H14116341   0.053   6.224   4.982 -0.9305 -0.9728 -0.3830
  101MOL   H14216342   7.222   6.339   4.892  0.5534  0.1377 -0.3426
  101MOL   H14316343   7.025   6.246   5.021  0.2455 -0.6235 -0.2702
  101MOL   H14416344   7.207   6.058   5.100  0.5852  1.4727  0.8623
  101MOL   H14516345   7.172   6.144   5.225 -2.0666 -0.1744  0.9504
  101MOL   C14616346   7.157   6.351   5.156  0.6242  0.0775  0.2423
  101MOL   C14716347   7.036   6.400   5.248 -0.2217  0.4680  0.0033
  101MOL   N14816348   7.087   6.482   5.351  0.3709 -0.2795  0.1563
  101MOL   H14916349   7.238   6.315   5.220 -0.9776 -1.7321  1.2898
  101MOL   H15016350   7.204   6.439   5.109  2.4203 -1.8727 -1.7434
  101MOL   H15116351   6.994   6.315   5.302 -2.8316  1.5448 -0.2475
  101MOL   H15216352   7.002   6.517   5.393  0.0632 -0.6253 -0.1709
  101MOL   H15316353   7.123   6.427   5.427 -2.8143 -0.1418  1.8250
  101MOL   C15416354   6.934   6.465   5.156 -0.3340 -0.1361  0.6313
  101MOL   C15516355   6.797   6.467   5.218 -0.0630  0.7374  0.0401
  101MOL   N15616356   6.788   6.545   5.341 -0.4352  0.3896 -0.2175
  101MOL   H15716357   6.967   6.564   5.125 -0.5135 -0.1962  0.2541
  101MOL   H15816358   6.928   6.422   5.056  0.6227  0.9193  0.0993
  101MOL   H15916359   6.770   6.362   5.232  0.1897  0.7841  0.9018
  101MOL   H16016360   6.806   6.639   5.311 -3.3016  0.7338 -1.0591
  101MOL   H16116361   6.695   6.546   5.382 -0.1882 -1.4126  0.4484
  101MOL   H16216362   6.720   6.506   5.151  0.0943 -0.1043 -0.6445
  102MOL     C116363   4.529   4.095   2.305 -0.3407 -0.1680 -0.1631
  102MOL     C216364   4.459   4.021   2.191  0.0228 -0.1916  0.1001
  102MOL     N316365   4.459   4.122   2.090 -0.7389  0.0230  0.6122
  102MOL     H416366   4.633   4.119   2.286  0.1942 -0.5748  2.0085
  102MOL     H516367   4.529   4.033   2.395 -0.0001 -1.3763 -0.9777
  102MOL     H616368   4.363   3.979   2.221 -0.5382  1.6126  0.9192
  102MOL     H716369   4.521   4.091   2.016 -0.7361  0.5393  0.3921
  102MOL     H816370   4.366   4.124   2.051 -0.9306 -1.9075  0.9463
  102MOL     H916371   4.498   4.197   2.329 -1.5839 -0.5657 -0.0206
  102MOL    C1016372   4.550   3.906   2.152 -0.3776  0.2449 -0.9086
  102MOL    C1116373   4.473   3.807   2.057  0.4262 -0.0022 -0.4975
  102MOL    N1216374   4.561   3.746   1.957  0.0685  0.3241  0.2985
  102MOL    H1316375   4.639   3.938   2.097 -0.5987  0.4105 -1.1656
  102MOL    H1416376   4.583   3.852   2.242 -0.6675  1.2748 -0.1768
  102MOL    H1516377   4.397   3.862   2.002 -2.4466 -1.5441  1.8113
  102MOL    H1616378   4.505   3.687   1.898 -0.1071 -0.6885  1.4581
  102MOL    H1716379   4.604   3.808   1.890 -1.3400 -0.3983 -1.2753
  102MOL    C1816380   4.419   3.687   2.135 -0.1872  0.2221 -0.5168
  102MOL    C1916381   4.342   3.717   2.264  0.5993 -0.1427 -0.4857
  102MOL    N2016382   4.215   3.778   2.217  0.4182 -0.2555  0.1712
  102MOL    H2116383   4.351   3.619   2.084 -0.8598  1.5242 -1.3829
  102MOL    H2216384   4.502   3.623   2.162  1.1519  2.0287 -0.2571
  102MOL    H2316385   4.391   3.799   2.317 -1.2125  0.3241  0.5070
  102MOL    H2416386   4.168   3.702   2.170 -1.8875  0.5369  1.0724
  102MOL    H2516387   4.153   3.795   2.295 -2.9752 -0.9007 -2.2760
  102MOL    C2616388   4.330   3.584   2.341 -0.3739 -0.1488 -0.3735
  102MOL    C2716389   4.302   3.609   2.487  1.0734 -0.6055 -0.6763
  102MOL    N2816390   4.224   3.497   2.545 -0.4321 -0.0895 -0.0914
  102MOL    H2916391   4.243   3.527   2.311 -1.6605  1.8684 -0.5683
  102MOL    H3016392   4.412   3.513   2.327 -1.9134 -1.6837 -1.7683
  102MOL    H3116393   4.231   3.692   2.490  1.2549 -0.5056  1.0894
  102MOL    H3216394   4.287   3.418   2.538  1.5664  1.4779 -0.1776
  102MOL    H3316395   4.152   3.461   2.485 -1.6839  1.4503  0.4793
  102MOL    C3416396   4.429   3.637   2.574 -0.0808 -0.0291  0.5747
  102MOL    C3516397   4.459   3.780   2.612 -0.6395 -0.4268 -0.1437
  102MOL    N3616398   4.374   3.836   2.715 -0.1641 -0.2113  0.3309
  102MOL    H3716399   4.439   3.572   2.661  0.2453  0.4000  0.8618
  102MOL    H3816400   4.507   3.602   2.506 -1.3546 -0.2611 -0.7992
  102MOL    H3916401   4.469   3.832   2.517  1.0565 -1.6264 -0.6453
  102MOL    H4016402   4.278   3.808   2.699  0.0029  0.4217 -2.0295
  102MOL    H4116403   4.376   3.935   2.698 -1.6958 -0.1496  0.4902
  102MOL    C4216404   4.599   3.779   2.668 -0.1897  0.0089  0.4313
  102MOL    C4316405   4.701   3.751   2.560  0.4112  0.0408  1.2880
  102MOL    N4416406   4.774   3.874   2.540  0.3734  0.3177  0.3387
  102MOL    H4516407   4.624   3.866   2.729 -1.0764  1.4267 -1.1868
  102MOL    H4616408   4.605   3.694   2.736  1.7833 -0.1339  0.1144
  102MOL    H4716409   4.657   3.714   2.467 -0.6805  2.8077  0.6608
  102MOL    H4816410   4.825   3.858   2.455  0.2108  0.0100  0.2990
  102MOL    H4916411   4.715   3.952   2.515  1.0425  1.0745  1.0973
  102MOL    C5016412   4.805   3.643   2.596 -0.0008  0.1508  0.1291
  102MOL    C5116413   4.753   3.495   2.611  0.8892 -0.6448 -0.5054
  102MOL    N5216414   4.747   3.435   2.478 -0.8219 -0.8669  0.0236
  102MOL    H5316415   4.881   3.637   2.518  0.0240  1.6513  0.0240
  102MOL    H5416416   4.857   3.688   2.680  1.7134  0.9085 -1.2842
  102MOL    H5516417   4.651   3.481   2.648  1.0438 -0.3159  0.0602
  102MOL    H5616418   4.838   3.442   2.434 -1.1793  0.1586 -0.5959
  102MOL    H5716419   4.688   3.483   2.411  0.8691 -0.0037 -0.8833
  102MOL    C5816420   4.837   3.401   2.702 -0.7864  0.2789 -0.2334
  102MOL    C5916421   4.799   3.392   2.852  0.1325  0.4308 -0.1638
  102MOL    N6016422   4.882   3.293   2.912 -0.1209  0.2000 -0.2884
  102MOL    H6116423   4.834   3.300   2.660  0.5113  0.4389 -0.7149
  102MOL    H6216424   4.941   3.433   2.700 -0.5865 -0.1773  1.4197
  102MOL    H6316425   4.693   3.368   2.861  0.2679 -0.2844 -0.4338
  102MOL    H6416426   4.857   3.209   2.862  1.3950  0.5374 -1.6528
  102MOL    H6516427   4.981   3.311   2.901 -0.1911  1.4029  0.9394
  102MOL    C6616428   4.810   3.514   2.943 -0.1317 -0.4099 -0.5774
  102MOL    C6716429   4.943   3.593   2.959 -0.5574  0.1913 -0.1525
  102MOL    N6816430   4.912   3.735   2.965 -0.7854 -0.0575 -0.5969
  102MOL    H6916431   4.742   3.582   2.892 -0.3356 -0.3329 -0.2115
  102MOL    H7016432   4.765   3.485   3.039  1.3376 -2.1129 -0.3849
  102MOL    H7116433   4.995   3.579   2.864 -0.5489  3.0958 -0.6124
  102MOL    H7216434   4.836   3.756   2.902 -2.6670 -0.6629  1.4237
  102MOL    H7316435   4.894   3.767   3.059  3.3256 -0.9947  0.6153
  102MOL    C7416436   5.023   3.548   3.087  0.1440 -0.3939  0.2141
  102MOL    C7516437   5.169   3.583   3.087  0.2232  0.5837  0.0345
  102MOL    N7616438   5.232   3.538   3.206 -0.4481  0.1462  0.0749
  102MOL    H7716439   4.976   3.597   3.173  2.8606  1.0568  0.9071
  102MOL    H7816440   5.014   3.441   3.108  1.7398 -0.3729  1.0536
  102MOL    H7916441   5.177   3.692   3.087 -0.6563  0.6611  1.4110
  102MOL    H8016442   5.332   3.528   3.192 -0.1786  1.6743  0.8130
  102MOL    H8116443   5.231   3.611   3.276  1.9970  0.5287 -0.2220
  102MOL    C8216444   5.248   3.520   2.970 -0.2413  0.1428  0.6031
  102MOL    C8316445   5.398   3.554   2.954 -0.8696 -0.4810 -0.3777
  102MOL    N8416446   5.469   3.426   2.939  0.0273  0.1315  0.4901
  102MOL    H8516447   5.237   3.413   2.991 -0.5991 -0.2436 -1.3668
  102MOL    H8616448   5.205   3.525   2.869  0.8158 -1.5900  0.0411
  102MOL    H8716449   5.445   3.598   3.042 -2.1479  1.6259 -0.7068
  102MOL    H8816450   5.562   3.424   2.978  0.0097 -0.5643  0.4941
  102MOL    H8916451   5.419   3.356   2.992  0.8554  0.4225  1.6851
  102MOL    C9016452   5.439   3.638   2.829  0.4996  0.1106 -0.0341
  102MOL    C9116453   5.373   3.778   2.830  0.2132 -0.0818  0.0229
  102MOL    N9216454   5.463   3.892   2.875 -0.8750 -0.4998 -0.0067
  102MOL    H9316455   5.548   3.638   2.834  0.5274 -1.9762 -0.2667
  102MOL    H9416456   5.414   3.589   2.735 -1.5253  1.0587 -0.0254
  102MOL    H9516457   5.293   3.776   2.904 -1.0383  2.2387 -1.2107
  102MOL    H9616458   5.508   3.860   2.959  1.6715 -0.5993 -1.3507
  102MOL    H9716459   5.411   3.977   2.892  0.0089  0.0433  0.0065
  102MOL    C9816460   5.322   3.812   2.691 -0.0793 -1.2879  0.7370
  102MOL    C9916461   5.171   3.778   2.658 -0.1411 -0.3521 -0.8324
  102MOL   N10016462   5.077   3.879   2.706 -0.4254  0.0943  0.3541
  102MOL   H10116463   5.340   3.918   2.674 -1.1237 -1.0258  1.2251
  102MOL   H10216464   5.391   3.764   2.621  0.9772 -1.9746  2.2282
  102MOL   H10316465   5.153   3.687   2.714 -1.3730  0.2388 -0.2445
  102MOL   H10416466   4.993   3.870   2.651  0.1538 -0.1683 -0.4870
  102MOL   H10516467   5.045   3.850   2.797 -0.1105 -0.7023  0.2165
  102MOL   C10616468   5.148   3.743   2.504 -0.4194 -0.2035 -0.3705
  102MOL   C10716469   5.209   3.608   2.459 -0.3321 -0.3315 -0.6150
  102MOL   N10816470   5.133   3.492   2.512  0.2297 -0.0638 -0.4946
  102MOL   H10916471   5.044   3.750   2.473 -0.1136 -0.1466 -1.4019
  102MOL   H11016472   5.201   3.822   2.450 -2.1606  1.4853  0.3335
  102MOL   H11116473   5.311   3.600   2.496  0.6701  1.0058 -2.9770
  102MOL   H11216474   5.192   3.410   2.504 -1.8791 -1.7432  0.4038
  102MOL   H11316475   5.115   3.502   2.611  0.8111  0.3539 -0.4332
  102MOL   C11416476   5.219   3.601   2.305  0.7406  0.4727 -0.3163
  102MOL   C11516477   5.312   3.703   2.225  0.0453  0.4086  0.0669
  102MOL   N11616478   5.440   3.701   2.286 -0.0778 -0.5477  0.6356
  102MOL   H11716479   5.267   3.506   2.282  0.9961  0.1379  1.4973
  102MOL   H11816480   5.117   3.604   2.269  0.9565 -0.0936 -0.9822
  102MOL   H11916481   5.286   3.808   2.239  1.1144  0.8585 -1.2250
  102MOL   H12016482   5.491   3.765   2.227 -0.7843  0.2253  0.8567
  102MOL   H12116483   5.433   3.759   2.368  0.3808  1.0470 -0.4353
  102MOL   C12216484   5.313   3.667   2.075  0.2044  0.1399  0.1867
  102MOL   C12316485   5.356   3.528   2.024  0.4076  0.1897  0.5910
  102MOL   N12416486   5.237   3.447   2.004 -0.2634  0.2960  0.1609
  102MOL   H12516487   5.212   3.691   2.042  0.7543 -0.9393 -2.4121
  102MOL   H12616488   5.388   3.725   2.022 -0.1353 -2.3093 -3.2139
  102MOL   H12716489   5.418   3.488   2.104  2.5437 -1.7694 -1.9390
  102MOL   H12816490   5.193   3.429   2.093 -0.9068  3.2617  0.5064
  102MOL   H12916491   5.262   3.354   1.974  0.3270 -0.9131  4.1286
  102MOL   C13016492   5.427   3.535   1.889 -0.4392  0.1531  0.5633
  102MOL   C13116493   5.570   3.591   1.889  0.3336 -0.7394  0.1889
  102MOL   N13216494   5.669   3.484   1.916  0.0851 -0.4770  1.0408
  102MOL   H13316495   5.435   3.437   1.843  0.7347 -0.0886  1.2811
  102MOL   H13416496   5.366   3.585   1.813  0.9498 -0.6711 -1.1478
  102MOL   H13516497   5.591   3.658   1.972  0.4266  0.1094 -0.5116
  102MOL   H13616498   5.672   3.455   2.013  0.6580 -0.2977  1.0764
  102MOL   H13716499   5.761   3.504   1.881 -0.8327  1.5689 -0.2933
  102MOL   C13816500   5.613   3.657   1.756  0.7379  0.3465 -0.4322
  102MOL   C13916501   5.537   3.780   1.704  0.1452  0.4322  0.4882
  102MOL   N14016502   5.542   3.886   1.806  0.1942 -0.3071 -0.0998
  102MOL   H14116503   5.718   3.686   1.765  1.5210 -1.8587 -1.8795
  102MOL   H14216504   5.603   3.585   1.674  1.1819  0.4996 -0.6204
  102MOL   H14316505   5.431   3.758   1.693  0.5474 -1.1007 -0.4943
  102MOL   H14416506   5.504   3.854   1.894  2.8010 -1.6032  0.6056
  102MOL   H14516507   5.486   3.965   1.778  0.1186  0.7597  2.8064
  102MOL   C14616508   5.610   3.854   1.582 -0.0705  0.1550 -0.7448
  102MOL   C14716509   5.619   3.781   1.445  0.2757 -0.5372 -0.0903
  102MOL   N14816510   5.500   3.789   1.377 -0.1358  0.6112 -0.2176
  102MOL   H14916511   5.564   3.952   1.571 -0.4531  0.1399  0.6488
  102MOL   H15016512   5.712   3.885   1.604 -0.4529  0.8042  0.0959
  102MOL   H15116513   5.628   3.673   1.463 -1.7739 -0.3058  2.6458
  102MOL   H15216514   5.515   3.751   1.285 -2.6118 -1.7504  0.3069
  102MOL   H15316515   5.471   3.883   1.353 -1.8669  0.0460 -0.4033
  102MOL   C15416516   5.728   3.828   1.357  0.5203  0.2144  0.0806
  102MOL   C15516517   5.867   3.779   1.404  0.7571  0.0107 -0.1485
  102MOL   N15616518   5.965   3.799   1.297 -0.1076 -0.0726 -0.1663
  102MOL   H15716519   5.717   3.790   1.255 -1.8086 -0.7871  0.6760
  102MOL   H15816520   5.732   3.936   1.345  0.8713 -0.0852 -3.0950
  102MOL   H15916521   5.872   3.673   1.431  1.3624  0.0698 -0.0321
  102MOL   H16016522   5.932   3.734   1.227  0.9782 -0.0378 -0.7164
  102MOL   H16116523   5.954   3.893   1.261  2.0381  0.7726  1.2700
  102MOL   H16216524   5.893   3.815   1.503 -1.3202  1.2909 -0.0332
  103MOL     C116525   7.177   1.346   3.186  0.1462  0.1217 -0.2391
  103MOL     C216526   7.225   1.205   3.165  0.1218 -0.7307 -0.2618
  103MOL     N316527   7.142   1.111   3.236  0.2376 -0.1859  0.2364
  103MOL     H416528   7.146   1.357   3.289 -2.6364  3.2841 -1.3255
  103MOL     H516529   7.091   1.373   3.125  1.1208 -1.0513 -2.1749
  103MOL     H616530   0.036   1.187   3.229  0.4872  0.1024 -0.5100
  103MOL     H716531   7.184   1.090   3.325 -3.0801 -0.8374  1.7265
  103MOL     H816532   7.140   1.021   3.191  0.3495  0.3742 -0.9155
  103MOL     H916533   7.241   1.433   3.170 -0.2361  0.1766 -1.5152
  103MOL    C1016534   7.249   1.157   3.021  0.2848  0.3961 -0.4457
  103MOL    C1116535   0.047   1.256   2.925  0.8356  0.2640  0.2803
  103MOL    N1216536   0.184   1.253   2.957  0.2609  0.2593  0.0011
  103MOL    H1316537   0.034   1.066   3.020 -0.4074 -0.0596 -0.8148
  103MOL    H1416538   7.151   1.125   2.987 -0.5320  1.7304  0.6076
  103MOL    H1516539   0.005   1.356   2.935 -2.8435 -0.8993 -2.5843
  103MOL    H1616540   0.211   1.282   3.050  2.4804  3.1454 -1.4594
  103MOL    H1716541   0.214   1.157   2.947  0.8353  0.5275 -0.9520
  103MOL    C1816542   0.028   1.214   2.781  0.6270  0.5590  0.1534
  103MOL    C1916543   0.061   1.319   2.672 -0.6019  1.0722 -0.4081
  103MOL    N2016544   0.069   1.247   2.540  0.0273 -0.2939 -0.7427
  103MOL    H2116545   0.063   1.112   2.767 -1.5660 -0.2453  0.3389
  103MOL    H2216546   7.199   1.186   2.769  0.5919  1.3615 -1.5443
  103MOL    H2316547   0.155   1.372   2.686  0.0032 -1.0509  4.4550
  103MOL    H2416548   0.040   1.323   2.480  0.0600 -1.0642 -1.7592
  103MOL    H2516549   7.265   1.185   2.540  1.2137 -1.8776  1.8504
  103MOL    C2616550   7.221   1.417   2.657  0.3516 -0.1398 -0.0905
  103MOL    C2716551   7.230   1.513   2.537 -0.1595 -0.7586 -1.1121
  103MOL    N2816552   7.207   1.454   2.408 -0.0978  0.0907  0.5677
  103MOL    H2916553   7.124   1.371   2.639  0.0886 -0.4467  1.9882
  103MOL    H3016554   7.224   1.478   2.748  0.0132  1.6850 -1.2566
  103MOL    H3116555   0.050   1.567   2.534 -0.6799  0.4011  1.4138
  103MOL    H3216556   7.138   1.381   2.418  2.4861 -2.7136 -1.1453
  103MOL    H3316557   7.172   1.525   2.346 -0.5060 -1.0704 -0.5500
  103MOL    C3416558   7.129   1.625   2.544 -0.4432  0.1924 -0.9402
  103MOL    C3516559   7.140   1.730   2.431 -1.1251  0.0848 -0.4098
  103MOL    N3616560   7.036   1.704   2.330  0.2763  0.1838  0.2493
  103MOL    H3716561   7.027   1.589   2.539 -0.4238 -0.2367  1.4640
  103MOL    H3816562   7.128   1.665   2.645  1.6543  2.9824 -1.9348
  103MOL    H3916563   7.233   1.725   2.375 -1.1132 -2.4033 -0.2127
  103MOL    H4016564   7.041   1.777   2.261 -0.5277 -0.1015 -0.1174
  103MOL    H4116565   6.941   1.716   2.362  0.4128 -0.8843  1.1270
  103MOL    C4216566   7.127   1.877   2.483  0.0827  0.0857  0.8989
  103MOL    C4316567   7.261   1.951   2.511  0.2041  0.3544 -0.0365
  103MOL    N4416568   7.223   2.091   2.512  0.2063 -0.4224 -1.0002
  103MOL    H4516569   7.088   1.949   2.410 -0.9706 -0.9355  0.4481
  103MOL    H4616570   7.066   1.879   2.573 -0.0430 -1.8907  0.8812
  103MOL    H4716571   0.052   1.935   2.427  0.0981 -1.2511  0.1716
  103MOL    H4816572   7.168   2.105   2.429  1.6494  0.4426 -1.8219
  103MOL    H4916573   0.033   2.144   2.509  1.2048 -1.6906  2.1229
  103MOL    C5016574   0.059   1.909   2.641 -0.6888  0.9524  0.7330
  103MOL    C5116575   0.214   1.939   2.647 -0.3638  0.2081 -0.2470
  103MOL    N5216576   0.256   1.904   2.790 -0.4499  0.6532 -0.0537
  103MOL    H5316577   0.004   1.943   2.729 -2.6003 -0.8528  0.2721
  103MOL    H5416578   0.059   1.800   2.642  2.5048  0.9330  2.4515
  103MOL    H5516579   0.237   2.044   2.626  2.2541  0.3125  2.7236
  103MOL    H5616580   0.356   1.920   2.787 -0.3692 -0.0632 -2.2083
  103MOL    H5716581   0.228   1.990   2.835  0.0827  1.7802 -1.8233
  103MOL    C5816582   0.294   1.849   2.552 -0.8987  0.4418  0.2975
  103MOL    C5916583   0.437   1.887   2.522  1.0173 -0.6333 -0.0699
  103MOL    N6016584   0.495   1.799   2.428  0.0374  0.1154  0.0107
  103MOL    H6116585   0.292   1.748   2.592  2.5340  0.0906 -0.2780
  103MOL    H6216586   0.239   1.831   2.459  0.6887  0.4125 -0.6547
  103MOL    H6316587   0.498   1.882   2.612 -2.5825 -0.2055  2.4976
  103MOL    H6416588   0.485   1.711   2.476 -0.3948  1.4542  2.4632
  103MOL    H6516589   0.435   1.797   2.346 -0.1429 -2.7730  0.1629
  103MOL    C6616590   0.463   2.024   2.460  0.5191 -0.2763  0.0943
  103MOL    C6716591   0.607   2.074   2.431  0.1892 -0.0336  0.6543
  103MOL    N6816592   0.590   2.187   2.347  0.2928  0.0281  0.4349
  103MOL    H6916593   0.397   2.019   2.373 -0.7092  2.9562  0.7742
  103MOL    H7016594   0.415   2.095   2.526 -2.0039 -3.1899  1.5533
  103MOL    H7116595   0.659   1.996   2.375  0.0674  0.3109  0.0607
  103MOL    H7216596   0.523   2.162   2.276 -1.5993  0.9926  1.8388
  103MOL    H7316597   0.532   2.250   2.400 -1.9977 -0.5308 -1.3357
  103MOL    C7416598   0.670   2.121   2.564  0.6301  0.2846  0.8248
  103MOL    C7516599   0.828   2.134   2.556  0.4304 -0.2703  0.1399
  103MOL    N7616600   0.853   2.261   2.485  0.0353 -0.2067  0.3408
  103MOL    H7716601   0.617   2.207   2.606  2.2578  3.2469 -2.8324
  103MOL    H7816602   0.666   2.034   2.629  1.1107 -0.6426 -0.3643
  103MOL    H7916603   0.870   2.053   2.497 -2.2971  0.7642 -3.3561
  103MOL    H8016604   0.820   2.334   2.547  1.4412  1.9722 -1.3631
  103MOL    H8116605   0.780   2.262   2.416 -0.1777 -0.9765  0.5590
  103MOL    C8216606   0.885   2.127   2.694  0.2821 -0.4623 -0.8168
  103MOL    C8316607   0.925   1.982   2.743 -0.4777  0.4517 -0.3544
  103MOL    N8416608   1.052   1.934   2.675 -0.2508 -0.5158 -0.1367
  103MOL    H8516609   0.979   2.182   2.689 -0.2799  0.7610  1.3817
  103MOL    H8616610   0.819   2.177   2.764 -0.6420 -2.8871  0.1167
  103MOL    H8716611   0.841   1.917   2.714  0.4664 -0.6347 -0.6928
  103MOL    H8816612   1.129   1.995   2.700 -1.8946  1.1592  0.9887
  103MOL    H8916613   1.076   1.840   2.701 -0.0283 -0.7538 -1.1896
  103MOL    C9016614   0.939   1.973   2.898  0.0429 -0.0241  0.2982
  103MOL    C9116615   0.908   1.836   2.953  0.1186 -0.5754 -0.0463
  103MOL    N9216616   0.943   1.837   3.091  0.5417  0.0278 -0.1328
  103MOL    H9316617   1.045   1.988   2.919  0.4302  1.2484 -2.3468
  103MOL    H9416618   0.877   2.049   2.943  1.1723  1.8853 -1.2713
  103MOL    H9516619   0.972   1.772   2.893  0.9578  1.3693 -1.2681
  103MOL    H9616620   1.008   1.915   3.098  0.4790  0.1002 -0.3452
  103MOL    H9716621   0.988   1.748   3.103 -0.7096 -0.9267 -2.2169
  103MOL    C9816622   0.770   1.765   2.942 -0.1662 -0.6354  0.6888
  103MOL    C9916623   0.657   1.863   2.963  0.0571 -0.4399 -0.4058
  103MOL   N10016624   0.538   1.780   2.938  0.0223 -0.0362 -0.6185
  103MOL   H10116625   0.761   1.725   2.841 -0.8125 -0.4540  0.6723
  103MOL   H10216626   0.759   1.680   3.010 -1.9002  0.7723  2.2550
  103MOL   H10316627   0.665   1.943   2.889  1.3796 -0.6757 -0.5292
  103MOL   H10416628   0.550   1.681   2.955  2.5167  0.0401 -1.7085
  103MOL   H10516629   0.460   1.805   2.997  1.2927  0.8110  0.7555
  103MOL   C10616630   0.630   1.925   3.103 -0.6422 -0.3785  0.2921
  103MOL   C10716631   0.515   2.026   3.110 -0.0690 -0.3606  0.0279
  103MOL   N10816632   0.456   2.017   3.241  0.6888  0.2644  0.3089
  103MOL   H10916633   0.602   1.838   3.161  0.2719 -0.6452  0.3393
  103MOL   H11016634   0.720   1.963   3.151 -1.1976 -0.5267  1.4613
  103MOL   H11116635   0.433   2.002   3.043  1.3010 -0.3441 -1.6823
  103MOL   H11216636   0.437   1.919   3.256 -0.1017  0.7578  2.6393
  103MOL   H11316637   0.371   2.071   3.247  1.5994  2.0149 -1.6859
  103MOL   C11416638   0.539   2.175   3.079  0.0842  0.1452  0.7616
  103MOL   C11516639   0.578   2.221   2.936  0.7199  0.9384 -0.3848
  103MOL   N11616640   0.460   2.206   2.847 -0.4479 -0.4930 -0.3077
  103MOL   H11716641   0.456   2.241   3.106 -2.2498 -1.4218 -2.3303
  103MOL   H11816642   0.625   2.194   3.144  2.3169  0.0958 -2.1021
  103MOL   H11916643   0.650   2.149   2.897 -0.0482  1.4121 -2.7795
  103MOL   H12016644   0.374   2.244   2.884 -0.3814 -2.0479  1.5296
  103MOL   H12116645   0.484   2.236   2.754 -1.5638 -2.2849 -1.1802
  103MOL   C12216646   0.629   2.366   2.924 -0.1193  0.6665  0.8310
  103MOL   C12316647   0.755   2.401   3.007 -0.0509  0.7217  0.2133
  103MOL   N12416648   0.816   2.511   2.943  0.9711 -0.6719 -0.2567
  103MOL   H12516649   0.625   2.398   2.820 -0.4815 -1.7538  0.0787
  103MOL   H12616650   0.558   2.437   2.965  2.2202  3.3314  0.4459
  103MOL   H12716651   0.818   2.312   3.000 -1.2344 -0.0677 -0.7977
  103MOL   H12816652   0.749   2.586   2.952 -0.2257 -1.6558 -0.8003
  103MOL   H12916653   0.889   2.544   3.005  0.1618  0.3203  0.1818
  103MOL   C13016654   0.737   2.416   3.162 -0.9173 -0.2488  0.3448
  103MOL   C13116655   0.842   2.325   3.243  0.1194 -0.0749 -0.1422
  103MOL   N13216656   0.983   2.374   3.215  0.1790  0.0943 -0.0018
  103MOL   H13316657   0.761   2.520   3.184 -0.5163 -0.2818  0.0660
  103MOL   H13416658   0.635   2.400   3.197 -0.2866 -1.8287  1.5234
  103MOL   H13516659   0.834   2.223   3.204  0.0424 -0.1835  0.1602
  103MOL   H13616660   0.959   2.421   3.129 -0.9732  0.9651  0.7824
  103MOL   H13716661   1.040   2.297   3.180  0.4352  0.9177 -1.4510
  103MOL   C13816662   0.824   2.334   3.397 -0.0792 -0.3679 -0.0002
  103MOL   C13916663   0.690   2.268   3.434  0.4046 -0.4004  0.4113
  103MOL   N14016664   0.711   2.121   3.426  0.7985  0.5247 -0.1953
  103MOL   H14116665   0.907   2.283   3.446 -1.0314 -1.9545 -0.0353
  103MOL   H14216666   0.815   2.443   3.406 -1.8631 -0.3833 -1.4089
  103MOL   H14316667   0.612   2.299   3.364  1.6333 -0.4252 -0.9966
  103MOL   H14416668   0.668   2.082   3.344 -1.5712  0.3556  1.0768
  103MOL   H14516669   0.658   2.071   3.496 -1.9074  3.1217 -0.2926
  103MOL   C14616670   0.634   2.314   3.574  0.3853  0.8545 -0.0752
  103MOL   C14716671   0.572   2.453   3.562 -0.3551 -0.2899 -0.2430
  103MOL   N14816672   0.430   2.441   3.534  0.1470 -0.0691 -0.1073
  103MOL   H14916673   0.559   2.246   3.612  0.3535 -0.2230 -1.9937
  103MOL   H15016674   0.719   2.313   3.642  2.8263  0.6977 -3.0238
  103MOL   H15116675   0.616   2.517   3.486 -0.6037 -0.8040 -0.8333
  103MOL   H15216676   0.405   2.413   3.440 -0.7122 -2.3181  0.7665
  103MOL   H15316677   0.378   2.522   3.566  1.7996  0.7417  0.5530
  103MOL   C15416678   0.582   2.529   3.694  0.7285 -0.5525  0.5412
  103MOL   C15516679   0.725   2.573   3.722 -0.0596 -0.3354  0.5188
  103MOL   N15616680   0.719   2.671   3.830 -0.8110  0.2091 -0.0208
  103MOL   H15716681   0.527   2.621   3.675 -0.8490 -1.8567 -1.5330
  103MOL   H15816682   0.547   2.481   3.786 -0.9835 -1.2337 -0.4215
  103MOL   H15916683   0.767   2.618   3.632  3.7102 -0.1518  2.2403
  103MOL   H16016684   0.816   2.695   3.851 -0.8254 -1.1141  1.7113
  103MOL   H16116685   0.665   2.753   3.807  0.6107  1.8734  2.3092
  103MOL   H16216686   0.794   2.495   3.756 -1.1415 -0.7546  1.7950
  104MOL     C116687   3.831   7.090   2.088  0.6007 -0.8115 -0.3771
  104MOL     C216688   3.868   7.020   1.953 -0.9034  0.6598  0.3253
  104MOL     N316689   3.752   7.005   1.873  0.4423  0.3498  0.5028
  104MOL     H416690   3.726   7.064   2.101  0.9828 -2.1757  0.1263
  104MOL     H516691   3.843   7.195   2.064 -0.6862 -0.6614 -0.3435
  104MOL     H616692   3.911   6.922   1.976 -0.1858  0.9140  0.0876
  104MOL     H716693   3.698   7.089   1.857  0.2924  0.0373 -0.7382
  104MOL     H816694   3.700   6.957   1.945  3.9292  1.3641  3.8321
  104MOL     H916695   3.892   7.067   2.175  2.2390  1.6085 -0.8456
  104MOL    C1016696   3.978   7.100   1.871  0.7709 -0.1817 -0.2254
  104MOL    C1116697   4.120   7.088   1.918 -0.3255  0.0729  0.0383
  104MOL    N1216698   4.215   7.084   1.803 -0.2430 -0.0446 -1.0154
  104MOL    H1316699   3.968   7.064   1.768 -4.8101  0.7635 -0.1879
  104MOL    H1416700   3.938   7.200   1.856  2.8229  0.6294 -0.3904
  104MOL    H1516701   4.129   6.995   1.975 -0.8925 -0.2128 -0.3263
  104MOL    H1616702   4.305   7.056   1.839 -0.5414 -0.9778 -0.9716
  104MOL    H1716703   4.191   7.007   1.742 -0.6648 -0.8344  0.1222
  104MOL    C1816704   4.162   7.202   2.017 -0.4467  0.7970 -0.2149
  104MOL    C1916705   4.292   7.161   2.087  0.0667  1.0214  0.3319
  104MOL    N2016706   4.338   0.005   2.147 -0.2842  0.2792 -0.1555
  104MOL    H2116707   4.172   0.022   1.968  2.7107  0.7842  0.2366
  104MOL    H2216708   4.092   7.226   2.097  2.1376 -1.2662  2.8065
  104MOL    H2316709   4.368   7.130   2.016 -0.5064 -0.3396  0.3021
  104MOL    H2416710   4.439   0.007   2.141 -0.0505  0.7727  2.9354
  104MOL    H2516711   4.299   0.077   2.088 -0.7714 -0.9037 -1.2891
  104MOL    C2616712   4.283   7.041   2.187 -0.9104 -0.0404  0.7912
  104MOL    C2716713   4.395   7.020   2.293 -0.2813  0.0756  0.0344
  104MOL    N2816714   4.354   6.897   2.365 -0.3589 -0.4397 -0.0123
  104MOL    H2916715   4.193   7.060   2.245 -0.5071  0.1174  1.3609
  104MOL    H3016716   4.269   6.950   2.128 -1.2940 -0.1290  1.0242
  104MOL    H3116717   4.393   7.112   2.351 -1.7883  0.2823 -0.3220
  104MOL    H3216718   4.330   6.818   2.307 -0.3603 -1.0264  0.7806
  104MOL    H3316719   4.272   6.925   2.418  0.6647 -0.6004  1.6949
  104MOL    C3416720   4.528   6.996   2.229  0.3686 -0.9186 -0.2295
  104MOL    C3516721   4.641   6.998   2.332 -0.4050  0.1158 -0.0979
  104MOL    N3616722   4.630   6.875   2.408 -0.3367  0.2165  0.1855
  104MOL    H3716723   4.521   6.910   2.162  0.8462 -0.2424 -1.1555
  104MOL    H3816724   4.536   7.087   2.170  0.3441 -0.9048 -0.2110
  104MOL    H3916725   4.615   7.079   2.399  1.0688  0.3517  0.1886
  104MOL    H4016726   4.633   6.898   2.506  1.6277  0.9687 -0.0341
  104MOL    H4116727   4.529   6.872   2.407 -0.3668 -0.1047 -3.0859
  104MOL    C4216728   4.787   7.037   2.274  0.5986 -0.3430 -0.4357
  104MOL    C4316729   4.892   7.058   2.388 -0.2542 -0.5075 -0.2948
  104MOL    N4416730   4.911   6.931   2.458  0.1174  0.4379 -0.3193
  104MOL    H4516731   4.819   6.964   2.199  0.6288 -1.6072  0.7854
  104MOL    H4616732   4.794   7.132   2.221  1.3332 -1.1462 -1.8285
  104MOL    H4716733   4.847   7.124   2.463  2.4864 -1.6461  2.4483
  104MOL    H4816734   4.828   6.878   2.437  0.9571 -0.9143 -0.2626
  104MOL    H4916735   4.979   6.880   2.403  1.7481  1.3567  0.7774
  104MOL    C5016736   5.025   7.107   2.324  0.2498 -1.2150  0.3985
  104MOL    C5116737   5.040   7.255   2.264  0.1711  0.7588 -0.2259
  104MOL    N5216738   5.173   0.027   2.285  0.0721 -0.0907 -0.0381
  104MOL    H5316739   5.086   7.107   2.414  1.4730 -0.0548 -0.4214
  104MOL    H5416740   5.062   7.027   2.260  1.8557  0.3662 -0.7000
  104MOL    H5516741   4.979   0.048   2.322 -0.4640  0.7751 -0.9006
  104MOL    H5616742   5.202   0.025   2.382 -0.8423 -2.8510  0.2444
  104MOL    H5716743   5.183   0.122   2.254  0.9954 -0.0479  0.3646
  104MOL    C5816744   5.013   7.250   2.109  0.2953  0.0066  0.7576
  104MOL    C5916745   4.922   0.078   2.043  0.4322 -1.1929  0.2277
  104MOL    N6016746   5.008   0.192   2.004  0.1271  0.4506  0.1695
  104MOL    H6116747   5.108   7.241   2.058  0.3683  1.3028  0.6491
  104MOL    H6216748   4.975   7.152   2.079 -0.7606  0.8931 -0.8734
  104MOL    H6316749   4.857   0.116   2.122 -0.0853 -0.1109 -0.7021
  104MOL    H6416750   5.044   0.158   1.916 -0.3306  1.3790 -0.3857
  104MOL    H6516751   4.946   0.265   1.971 -0.6146 -0.1814  0.1231
  104MOL    C6616752   4.831   0.028   1.923 -0.4183 -0.3692  0.2266
  104MOL    C6716753   4.716   7.211   1.956 -0.3454 -0.6230  0.8197
  104MOL    N6816754   4.608   0.011   2.025 -0.3389 -0.4514  0.0485
  104MOL    H6916755   4.792   0.117   1.873  0.0838 -1.2386 -1.7476
  104MOL    H7016756   4.897   7.266   1.845  1.4399 -3.8373  3.2967
  104MOL    H7116757   4.753   7.128   2.016 -0.7414 -1.2071  0.2570
  104MOL    H7216758   4.651   0.057   2.104 -1.7306 -0.7790  1.0124
  104MOL    H7316759   4.572   0.086   1.967 -1.2100 -0.0630  1.0846
  104MOL    C7416760   4.641   7.168   1.822  0.0516  0.3562  0.6496
  104MOL    C7516761   4.716   7.122   1.690  0.5867  0.6329 -0.0677
  104MOL    N7616762   4.700   6.974   1.687 -0.4385  0.3153 -0.4181
  104MOL    H7716763   4.565   7.092   1.839 -0.4097  1.1687  2.2870
  104MOL    H7816764   4.573   7.248   1.791  0.0812  0.9516  2.0571
  104MOL    H7916765   4.820   7.152   1.691  0.5125  0.9563 -1.5347
  104MOL    H8016766   4.606   6.952   1.714 -0.0577 -0.9988 -0.1102
  104MOL    H8116767   4.754   6.931   1.761 -1.4973  0.7043  0.5943
  104MOL    C8216768   4.652   7.178   1.563  0.0041  0.9050 -0.3421
  104MOL    C8316769   4.710   0.037   1.507  0.0112 -0.5961  0.0920
  104MOL    N8416770   4.681   0.048   1.365 -0.3798 -0.6739 -0.7783
  104MOL    H8516771   4.671   7.100   1.489  0.9632 -0.3361  1.1624
  104MOL    H8616772   4.544   7.183   1.579 -0.0467 -1.6221  0.4484
  104MOL    H8716773   4.818   0.032   1.517  0.0005  0.3277  0.7440
  104MOL    H8816774   4.588   0.010   1.352  0.2339 -1.6176 -2.5651
  104MOL    H8916775   4.743   7.275   1.302 -0.9690 -1.7325 -0.5587
  104MOL    C9016776   4.652   0.164   1.580 -0.4506 -0.4470 -0.1294
  104MOL    C9116777   4.691   0.305   1.547  0.0048  0.2123 -0.1556
  104MOL    N9216778   4.606   0.391   1.628 -0.1028  0.6032  0.1857
  104MOL    H9316779   4.545   0.158   1.560 -0.1540  0.5681 -2.1623
  104MOL    H9416780   4.662   0.155   1.689 -1.2231  1.4661  0.1306
  104MOL    H9516781   4.660   0.327   1.445  2.5539 -1.6382 -1.3828
  104MOL    H9616782   4.609   0.479   1.578 -3.2902  1.2696  1.0672
  104MOL    H9716783   4.510   0.361   1.626 -0.7418  2.6631 -1.3811
  104MOL    C9816784   4.844   0.329   1.580  0.4448 -0.4331 -0.0719
  104MOL    C9916785   4.935   0.335   1.453 -0.5854 -0.1626  0.7499
  104MOL   N10016786   4.956   0.202   1.393 -0.3815  0.2364  0.1937
  104MOL   H10116787   4.846   0.425   1.632  0.8326 -0.0109 -0.8500
  104MOL   H10216788   4.872   0.255   1.655 -0.7999 -2.9099 -1.9766
  104MOL   H10316789   5.038   0.357   1.480 -0.3509 -2.6303  2.0226
  104MOL   H10416790   4.945   0.209   1.293  1.6961 -1.9970 -0.2309
  104MOL   H10516791   4.869   0.162   1.423 -0.0273 -0.6111  0.0853
  104MOL   C10616792   4.887   0.438   1.342 -0.0782  0.8056 -0.8783
  104MOL   C10716793   4.862   0.585   1.389  0.5605 -1.0115  0.4456
  104MOL   N10816794   4.986   0.649   1.431 -0.3490 -0.1739  0.1727
  104MOL   H10916795   4.951   0.436   1.254  1.3672 -2.2599  0.1986
  104MOL   H11016796   4.798   0.390   1.302 -0.0459  0.6483 -0.7588
  104MOL   H11116797   4.792   0.574   1.472  0.7656 -0.9782  0.6236
  104MOL   H11216798   5.039   0.686   1.354  1.1639 -0.5866  0.9866
  104MOL   H11316799   4.959   0.732   1.483 -1.0432 -0.8444  0.9035
  104MOL   C11416800   4.798   0.655   1.274  0.2295  0.5288  0.8926
  104MOL   C11516801   4.758   0.801   1.291 -0.1081 -0.1205 -0.4935
  104MOL   N11616802   4.695   0.839   1.166 -0.2655 -0.6256  0.0084
  104MOL   H11716803   4.868   0.654   1.190 -0.7721  1.3103  0.0366
  104MOL   H11816804   4.708   0.602   1.244  0.2658  1.5158 -1.0586
  104MOL   H11916805   4.843   0.862   1.323  0.0547  0.0048 -1.1516
  104MOL   H12016806   4.763   0.866   1.096 -0.9873 -1.9433 -1.2141
  104MOL   H12116807   4.651   0.927   1.189 -1.2843 -1.7900  2.6262
  104MOL   C12216808   4.644   0.816   1.399  0.5235  0.2056  0.6557
  104MOL   C12316809   4.604   0.963   1.442 -0.2035  0.2525  0.5944
  104MOL   N12416810   4.462   0.963   1.458  0.5014 -0.6507 -0.0509
  104MOL   H12516811   4.555   0.762   1.366 -1.8068  3.4490  1.4028
  104MOL   H12616812   4.679   0.765   1.488 -0.8923  1.4404  1.9420
  104MOL   H12716813   4.612   1.038   1.364  1.6694  0.7506  1.2515
  104MOL   H12816814   4.428   1.058   1.458  1.3493 -0.3068  2.2647
  104MOL   H12916815   4.425   0.922   1.373  2.3434  0.9318 -1.6393
  104MOL   C13016816   4.679   1.026   1.556  0.2721 -0.2287 -0.3346
  104MOL   C13116817   4.824   1.076   1.536 -0.1655 -0.6081 -0.1184
  104MOL   N13216818   4.835   1.192   1.446 -0.4364 -0.3178  0.0697
  104MOL   H13316819   4.618   1.103   1.603  1.8404 -0.8860  2.9011
  104MOL   H13416820   4.685   0.945   1.628  0.4344  0.4661  0.4415
  104MOL   H13516821   4.874   0.987   1.498 -0.7924  0.1256 -2.7275
  104MOL   H13616822   4.884   1.186   1.358 -1.2339 -0.2602 -0.3817
  104MOL   H13716823   4.743   1.202   1.405 -0.7436 -1.6370  0.4287
  104MOL   C13816824   4.897   1.118   1.663  0.1658 -0.4721  0.5441
  104MOL   C13916825   4.906   1.015   1.774  0.3472  0.1197 -0.6241
  104MOL   N14016826   4.960   0.891   1.726  0.6445  0.1189 -1.0856
  104MOL   H14116827   4.997   1.143   1.629 -1.8383  2.1342 -3.9020
  104MOL   H14216828   4.856   1.212   1.700 -0.9669 -0.3394 -0.9837
  104MOL   H14316829   4.804   0.998   1.808  0.5470 -0.1007 -0.1342
  104MOL   H14416830   5.052   0.892   1.767  0.6253 -0.2672 -1.0330
  104MOL   H14516831   4.900   0.817   1.761  0.9549 -0.3235 -1.4883
  104MOL   C14616832   5.000   1.064   1.887  0.8917 -0.6264  0.2049
  104MOL   C14716833   4.935   1.175   1.974 -0.0966 -0.3109 -0.2901
  104MOL   N14816834   4.809   1.135   2.025 -0.7069  0.1476  0.2810
  104MOL   H14916835   5.023   0.979   1.952  1.5660 -1.4250 -1.0542
  104MOL   H15016836   5.083   1.113   1.838  0.3664 -1.6187 -1.7519
  104MOL   H15116837   4.917   1.261   1.910  1.6280 -0.3755 -0.8780
  104MOL   H15216838   4.834   1.068   2.096  0.6938 -0.1501 -0.4878
  104MOL   H15316839   4.754   1.077   1.963 -1.2356  0.8517  0.0888
  104MOL   C15416840   5.020   1.237   2.090 -0.3610 -0.1171  0.0422
  104MOL   C15516841   5.143   1.309   2.039  0.1334  0.8153 -0.0231
  104MOL   N15616842   5.215   1.346   2.157  0.1505 -0.0448 -0.2298
  104MOL   H15716843   4.956   1.308   2.142 -0.8522 -1.3116  1.1084
  104MOL   H15816844   5.046   1.156   2.159 -1.3863 -0.2808  0.2500
  104MOL   H15916845   5.114   1.395   1.979 -1.3280 -0.5255 -1.2793
  104MOL   H16016846   5.253   1.268   2.210 -1.5612  0.6281  2.0999
  104MOL   H16116847   5.297   1.396   2.126  0.8182  0.6680  2.5025
  104MOL   H16216848   5.216   1.242   1.993  1.4007  0.6929  2.0518
  105MOL     C116849   0.315   5.228   3.872 -1.0936  0.1762  0.3258
  105MOL     C216850   0.336   5.098   3.957  0.4627  0.0071 -1.0333
  105MOL     N316851   0.210   5.028   3.978  0.2158 -0.2924 -0.4652
  105MOL     H416852   0.282   5.321   3.918 -1.4104  0.3485 -0.2532
  105MOL     H516853   0.238   5.205   3.798  0.2054 -1.1187 -0.6558
  105MOL     H616854   0.382   5.127   4.052 -1.4010 -1.8799  0.4776
  105MOL     H716855   0.237   4.945   4.030  0.5509  0.0312 -0.1209
  105MOL     H816856   0.156   5.070   4.053  0.0900 -2.1188  0.5205
  105MOL     H916857   0.397   5.276   3.818 -1.6025  1.6703  0.8608
  105MOL    C1016858   0.436   5.005   3.881 -0.7615 -0.4615  0.6241
  105MOL    C1116859   0.582   5.004   3.919 -0.0999  0.3477 -0.0594
  105MOL    N1216860   0.642   4.905   3.829  0.4002 -1.0393 -0.1427
  105MOL    H1316861   0.398   4.904   3.896  0.1905 -0.8119  0.7424
  105MOL    H1416862   0.422   5.031   3.776  0.1377 -0.9903  0.3684
  105MOL    H1516863   0.585   4.973   4.024 -0.4744  2.1265  0.5098
  105MOL    H1616864   0.592   4.818   3.840  2.2979 -2.3399 -1.5022
  105MOL    H1716865   0.734   4.889   3.866 -0.1519 -0.3406  1.5835
  105MOL    C1816866   0.664   5.137   3.892 -0.2288 -0.0355 -0.1430
  105MOL    C1916867   0.677   5.234   4.013 -0.0435  0.2985 -0.3048
  105MOL    N2016868   0.735   5.152   4.118  0.1414 -0.1557 -0.7132
  105MOL    H2116869   0.764   5.106   3.861 -0.4458 -1.4398  0.4891
  105MOL    H2216870   0.622   5.189   3.806  1.3387  1.6466  0.1052
  105MOL    H2316871   0.587   5.283   4.049 -0.6964 -0.6074 -0.6813
  105MOL    H2416872   0.812   5.101   4.076  0.4031 -2.2145  2.1257
  105MOL    H2516873   0.669   5.086   4.157  1.6819  0.5723  3.4032
  105MOL    C2616874   0.780   5.343   3.973 -0.3886  0.0282 -0.3947
  105MOL    C2716875   0.790   5.474   4.057 -0.3568  0.1195  0.1494
  105MOL    N2816876   0.913   5.467   4.131  0.1048  0.1413 -0.4528
  105MOL    H2916877   0.877   5.302   3.948 -0.4255  0.9650 -2.1690
  105MOL    H3016878   0.743   5.366   3.873  0.0410 -1.8599 -0.9977
  105MOL    H3116879   0.710   5.480   4.131 -1.2396 -0.0854 -0.7630
  105MOL    H3216880   0.890   5.388   4.189 -2.9691  1.5196  0.2942
  105MOL    H3316881   0.904   5.538   4.202 -1.4167 -0.0333 -0.4505
  105MOL    C3416882   0.783   5.605   3.974  0.9766  0.3891 -0.8404
  105MOL    C3516883   0.639   5.632   3.907 -0.2016 -0.1597  0.2244
  105MOL    N3616884   0.526   5.610   4.001  0.0840  0.0398  0.7788
  105MOL    H3716885   0.802   5.682   4.049 -2.1067  0.2866  0.1313
  105MOL    H3816886   0.864   5.605   3.901  0.2805  2.5204 -1.6547
  105MOL    H3916887   0.620   5.561   3.827 -4.1483 -0.3118  1.2386
  105MOL    H4016888   0.524   5.518   4.043 -0.1049  0.3256  1.4103
  105MOL    H4116889   0.440   5.644   3.959  0.5327  1.0098  0.6130
  105MOL    C4216890   0.626   5.780   3.864  0.2238  0.2868 -0.2007
  105MOL    C4316891   0.718   5.825   3.747 -0.2976  0.6702 -0.1121
  105MOL    N4416892   0.708   5.733   3.633 -0.1592  0.0073  0.7510
  105MOL    H4516893   0.520   5.800   3.845 -0.2706 -1.4386  0.6384
  105MOL    H4616894   0.652   5.850   3.944  0.9604  1.7127 -1.6493
  105MOL    H4716895   0.824   5.812   3.768 -0.2419  0.7002 -0.3634
  105MOL    H4816896   0.742   5.640   3.652  1.0743  0.6403  1.6987
  105MOL    H4916897   0.614   5.704   3.612  0.0362 -0.2523  0.2313
  105MOL    C5016898   0.702   5.976   3.699  0.1091 -0.2399  1.0108
  105MOL    C5116899   0.692   6.099   3.797  0.3672 -0.2886 -0.4167
  105MOL    N5216900   0.824   6.119   3.849 -0.2065 -0.4871  0.4093
  105MOL    H5316901   0.777   5.990   3.621 -1.1430  0.0468 -0.1611
  105MOL    H5416902   0.607   5.969   3.646 -0.3238 -1.3202  1.9040
  105MOL    H5516903   0.625   6.068   3.878  0.0764 -1.3788 -1.0696
  105MOL    H5616904   0.843   6.218   3.840  1.1937 -0.7263  0.6814
  105MOL    H5716905   0.840   6.086   3.943 -2.2500 -1.8743  0.3008
  105MOL    C5816906   0.650   6.234   3.733  0.7750 -0.6114  0.6073
  105MOL    C5916907   0.511   6.236   3.670  0.4526  0.5729 -0.5284
  105MOL    N6016908   0.420   6.303   3.770  0.3071  0.1190 -0.3262
  105MOL    H6116909   0.646   6.310   3.811  1.0822  0.1935 -0.1571
  105MOL    H6216910   0.734   6.245   3.665  0.7144 -2.3081  0.2254
  105MOL    H6316911   0.482   6.131   3.662  1.1227  0.3539 -0.1232
  105MOL    H6416912   0.395   6.245   3.849  1.2444  0.0217 -0.0867
  105MOL    H6516913   0.473   6.379   3.812  0.4759  0.6328 -1.4506
  105MOL    C6616914   0.502   6.304   3.533 -0.2792  0.2651 -0.5629
  105MOL    C6716915   0.595   6.253   3.424  0.3774 -0.2597  0.3496
  105MOL    N6816916   0.518   6.185   3.324  0.8266 -0.3370 -0.6033
  105MOL    H6916917   0.399   6.331   3.509 -0.1677  1.2008 -0.0209
  105MOL    H7016918   0.537   6.405   3.549  0.6979  0.0818 -1.5365
  105MOL    H7116919   0.666   6.179   3.461 -0.4494 -1.4529 -0.4514
  105MOL    H7216920   0.461   6.107   3.352 -0.1690  0.9211  0.9456
  105MOL    H7316921   0.601   6.150   3.279  1.3405 -0.2582  0.2654
  105MOL    C7416922   0.676   6.365   3.346 -0.3331  0.3174 -0.8082
  105MOL    C7516923   0.762   6.457   3.434 -0.2858 -0.0449 -0.2743
  105MOL    N7616924   0.880   6.502   3.366 -0.3739 -1.0177 -0.0288
  105MOL    H7716925   0.736   6.302   3.280  0.6336 -0.8222  1.1331
  105MOL    H7816926   0.610   6.428   3.286 -1.6637 -0.8622 -0.6147
  105MOL    H7916927   0.797   6.390   3.514 -1.4714  0.8989  1.0518
  105MOL    H8016928   0.927   6.413   3.351 -0.3654 -1.2197  1.1612
  105MOL    H8116929   0.851   6.538   3.276 -0.2260 -1.9251 -0.4450
  105MOL    C8216930   0.701   6.590   3.504 -0.3091  0.2834  0.5431
  105MOL    C8316931   0.779   6.653   3.624  0.7020  0.1431  0.4483
  105MOL    N8416932   0.699   6.766   3.665 -0.6047 -0.6441  0.4193
  105MOL    H8516933   0.696   6.665   3.425 -0.9200 -0.0974  0.2223
  105MOL    H8616934   0.602   6.582   3.547 -0.2169 -0.1971  0.6633
  105MOL    H8716935   0.880   6.675   3.590  0.4710 -0.3491 -0.5670
  105MOL    H8816936   0.673   6.821   3.584  0.6324 -1.8200 -0.8034
  105MOL    H8916937   0.751   6.834   3.718 -0.8618  0.1639 -0.3437
  105MOL    C9016938   0.792   6.556   3.749 -0.1848 -0.2318  0.0175
  105MOL    C9116939   0.904   6.594   3.848 -0.3128  0.0929  0.4576
  105MOL    N9216940   0.909   6.474   3.930  0.5890  0.0508 -0.2210
  105MOL    H9316941   0.698   6.559   3.804 -0.9756 -0.7814 -1.2686
  105MOL    H9416942   0.811   6.456   3.710 -1.8391  0.4844 -2.8294
  105MOL    H9516943   0.879   6.678   3.912  0.1035  1.4764 -1.1659
  105MOL    H9616944   0.816   6.477   3.971  1.1158 -3.1670  1.4118
  105MOL    H9716945   0.965   6.511   4.006 -0.0062  1.9676 -0.7042
  105MOL    C9816946   1.045   6.598   3.781  0.2972 -0.0386 -0.1232
  105MOL    C9916947   1.082   6.738   3.736 -0.2960  0.5067  0.1262
  105MOL   N10016948   1.137   6.800   3.856 -0.2127 -0.3808 -0.6360
  105MOL   H10116949   1.124   6.561   3.847  1.3426  0.0463 -1.3202
  105MOL   H10216950   1.048   6.521   3.705 -1.2086 -0.3094  0.0736
  105MOL   H10316951   1.000   6.795   3.695  0.0336  2.0097  1.5059
  105MOL   H10416952   1.112   6.896   3.876  2.4711 -0.0735  1.4678
  105MOL   H10516953   1.092   6.759   3.936 -3.6222  0.0367 -2.2464
  105MOL   C10616954   1.196   6.743   3.631  0.1492 -0.1212  0.0006
  105MOL   C10716955   1.160   6.725   3.482  0.0109 -0.7686  0.3733
  105MOL   N10816956   1.113   6.861   3.447 -0.7650 -0.1281  0.4041
  105MOL   H10916957   1.257   6.831   3.649 -1.1019  0.1783  3.0457
  105MOL   H11016958   1.268   6.665   3.656  1.0487  0.2564 -1.3425
  105MOL   H11116959   1.072   6.660   3.478  0.5521 -1.4706 -0.3246
  105MOL   H11216960   1.071   6.850   3.356 -1.1175 -0.0091  0.5516
  105MOL   H11316961   1.037   6.883   3.511 -0.4365 -2.0937  1.5127
  105MOL   C11416962   1.282   6.684   3.384 -0.2959 -0.2484  0.2714
  105MOL   C11516963   1.332   6.532   3.398  0.1517  0.9975 -0.4083
  105MOL   N11616964   1.285   6.458   3.286 -0.1416 -0.1617 -0.4812
  105MOL   H11716965   1.253   6.700   3.280 -0.3360  0.0626  0.3304
  105MOL   H11816966   1.366   6.748   3.413  1.4802 -2.1951 -0.3846
  105MOL   H11916967   1.293   6.482   3.486 -0.0018 -0.8132 -1.4799
  105MOL   H12016968   1.311   6.520   3.211  0.3020 -0.7225 -0.7927
  105MOL   H12116969   1.350   6.381   3.290 -1.0879 -1.0389 -1.4400
  105MOL   C12216970   1.483   6.530   3.389 -0.2480 -1.1635  0.1993
  105MOL   C12316971   1.550   6.592   3.511  0.4507  0.3006 -0.0797
  105MOL   N12416972   1.607   6.478   3.574  0.1628  0.2878 -0.0469
  105MOL   H12516973   1.521   6.430   3.368 -1.1377 -1.5793  0.5604
  105MOL   H12616974   1.504   6.594   3.303  1.6756  0.9925  2.2030
  105MOL   H12716975   1.474   6.631   3.579  1.4155 -2.8874  3.0025
  105MOL   H12816976   1.536   6.419   3.615 -0.1902  0.8485  0.1454
  105MOL   H12916977   1.654   6.514   3.656  0.7244 -1.4948  0.4414
  105MOL   C13016978   1.669   6.697   3.498 -0.0529  0.1307 -0.0308
  105MOL   C13116979   1.614   6.832   3.443  0.1186 -0.1548  0.1487
  105MOL   N13216980   1.558   6.913   3.557 -0.2655  0.5704 -0.5370
  105MOL   H13316981   1.727   6.711   3.589  0.6956 -1.2908 -0.2752
  105MOL   H13416982   1.746   6.664   3.428  0.1939  2.3299 -0.8471
  105MOL   H13516983   1.544   6.804   3.364 -0.6036 -0.6412  0.9543
  105MOL   H13616984   1.633   6.941   3.618 -0.5366  0.1003  0.0071
  105MOL   H13716985   1.496   6.856   3.611 -1.4434  1.4189 -0.9617
  105MOL   C13816986   1.716   6.925   3.379  0.3599  0.2705 -1.1086
  105MOL   C13916987   1.792   6.871   3.249  0.2240  0.0685 -0.0638
  105MOL   N14016988   1.705   6.817   3.152  0.1938  0.6463  0.2321
  105MOL   H14116989   1.658   7.012   3.350 -1.0652  0.1928  1.4102
  105MOL   H14216990   1.780   6.954   3.462 -0.3899 -0.2026 -0.3547
  105MOL   H14316991   1.869   6.805   3.290 -0.1092  0.6756  1.6158
  105MOL   H14416992   1.644   6.891   3.121  0.6982 -0.3577 -3.4360
  105MOL   H14516993   1.751   6.798   3.064 -1.7888  1.5989 -1.0315
  105MOL   C14616994   1.865   6.992   3.191  0.1411  0.0575 -0.2074
  105MOL   C14716995   1.956   6.959   3.065 -0.3201  0.6853  0.4257
  105MOL   N14816996   2.002   7.082   3.014 -0.1710 -0.1036  0.4827
  105MOL   H14916997   1.791   7.069   3.167  2.3351  2.0743 -0.7286
  105MOL   H15016998   1.920   7.040   3.272 -1.6955  1.3345  0.3139
  105MOL   H15116999   1.891   6.908   2.994  2.0937 -0.8505 -0.7539
  105MOL   H15217000   1.996   7.082   2.914 -0.7933  2.5907  0.4918
  105MOL   H15317001   1.933   7.149   3.044 -0.4474  0.1938 -0.8173
  105MOL   C15417002   2.075   6.866   3.099  0.7405  0.0315  0.2946
  105MOL   C15517003   2.159   6.822   2.979 -0.3187 -0.3604 -0.0833
  105MOL   N15617004   2.250   6.715   3.009 -0.3067  0.5865  0.5497
  105MOL   H15717005   2.133   6.913   3.178 -0.6195  1.4994  0.4364
  105MOL   H15817006   2.036   6.771   3.137  0.8819 -1.1139 -2.2923
  105MOL   H15917007   2.224   6.905   2.951 -0.3137 -0.8046 -1.4255
  105MOL   H16017008   2.193   6.640   3.046 -1.0017  0.5696 -0.5039
  105MOL   H16117009   2.301   6.740   3.092 -0.7916 -1.2939  1.4434
  105MOL   H16217010   2.092   6.796   2.897 -0.4704 -0.5712  0.1053
  106MOL     C117011   3.333   1.517   3.495  0.4057 -0.0905 -0.2647
  106MOL     C217012   3.255   1.640   3.557 -0.4610 -0.0581  0.1953
  106MOL     N317013   3.267   1.652   3.704 -0.8496  0.1993  0.4211
  106MOL     H417014   3.297   1.494   3.394 -0.2577 -0.3324  0.0260
  106MOL     H517015   3.310   1.422   3.543  0.3991  0.6010  1.0969
  106MOL     H617016   3.151   1.626   3.529 -0.3969  2.1794 -1.3357
  106MOL     H717017   3.358   1.621   3.732 -1.8027 -0.9446  2.3584
  106MOL     H817018   3.206   1.577   3.734  1.5745 -2.0224 -0.0762
  106MOL     H917019   3.442   1.519   3.496  0.3767  1.8906  0.5603
  106MOL    C1017020   3.297   1.775   3.491  0.0955  0.0504 -0.8326
  106MOL    C1117021   3.215   1.798   3.358  0.7310 -0.4124  0.1465
  106MOL    N1217022   3.140   1.922   3.374 -0.0343  0.1102 -0.4371
  106MOL    H1317023   3.287   1.853   3.566 -0.4423  0.5144 -1.3767
  106MOL    H1417024   3.405   1.781   3.477 -0.0169  0.9929 -1.3176
  106MOL    H1517025   3.136   1.723   3.345  0.4341 -0.1865  0.6424
  106MOL    H1617026   3.206   1.996   3.356 -0.4083  0.9249  1.3994
  106MOL    H1717027   3.061   1.932   3.312 -1.1446  0.8285  1.0334
  106MOL    C1817028   3.305   1.818   3.232 -0.2196  0.4380  0.0743
  106MOL    C1917029   3.395   1.702   3.201  0.9628  0.3339 -0.3594
  106MOL    N2017030   3.319   1.592   3.150 -0.0220  0.8290 -0.2572
  106MOL    H2117031   3.240   1.839   3.147 -1.8655 -1.5107  0.8078
  106MOL    H2217032   3.358   1.907   3.267  2.7142 -0.6016 -1.5919
  106MOL    H2317033   3.441   1.666   3.292  0.7687 -2.6029 -1.3812
  106MOL    H2417034   3.270   1.613   3.064 -2.0193 -2.3893  0.0104
  106MOL    H2517035   3.379   1.531   3.095 -0.7725 -0.8871  0.7930
  106MOL    C2617036   3.506   1.744   3.107 -0.3151  0.5778  0.7563
  106MOL    C2717037   3.605   1.838   3.161 -0.1895 -0.9045 -0.3649
  106MOL    N2817038   3.692   1.762   3.253 -0.0840  0.2622 -0.2044
  106MOL    H2917039   3.557   1.655   3.071 -0.7241  1.2160 -1.4487
  106MOL    H3017040   3.455   1.778   3.017  0.1180 -1.8193 -0.4337
  106MOL    H3117041   3.552   1.909   3.225  0.6813 -1.7713  1.3329
  106MOL    H3217042   3.756   1.823   3.302 -0.9226 -0.2117  1.5469
  106MOL    H3317043   3.758   1.702   3.205 -0.7425  0.3348 -1.2084
  106MOL    C3417044   3.688   1.903   3.047  0.8296 -0.2333  0.6846
  106MOL    C3517045   3.631   2.031   2.981  0.3884  0.7761  0.4300
  106MOL    N3617046   3.721   2.139   3.007  0.3154 -0.2283 -0.4054
  106MOL    H3717047   3.783   1.933   3.091  0.3634 -1.4577  2.5407
  106MOL    H3817048   3.720   1.834   2.969 -0.4239 -0.7915  0.6609
  106MOL    H3917049   3.536   2.035   3.035  1.4685  1.1107  2.3418
  106MOL    H4017050   3.764   2.124   3.097  0.6779 -1.0887 -0.7177
  106MOL    H4117051   3.686   2.233   2.999 -0.8994 -0.6961 -0.8331
  106MOL    C4217052   3.603   2.010   2.830  0.4851 -0.0669  0.1982
  106MOL    C4317053   3.495   2.116   2.769  0.0451 -0.6032 -0.2981
  106MOL    N4417054   3.498   2.103   2.625 -0.5450 -0.3126 -1.2219
  106MOL    H4517055   3.699   2.020   2.778 -0.0826  0.9224 -0.6828
  106MOL    H4617056   3.561   1.913   2.807 -1.0495 -0.2135  3.4391
  106MOL    H4717057   3.525   2.217   2.797  2.4928 -0.7291 -2.2709
  106MOL    H4817058   3.591   2.082   2.593 -1.0979 -1.5983 -2.0151
  106MOL    H4917059   3.443   2.024   2.594  0.1387 -1.8219  1.3575
  106MOL    C5017060   3.354   2.095   2.823  0.2979 -0.1550  0.3044
  106MOL    C5117061   3.236   2.173   2.755  0.2803  0.4757  0.9660
  106MOL    N5217062   3.115   2.101   2.782 -0.3607  0.1113  0.3510
  106MOL    H5317063   3.336   1.991   2.796  1.0497 -0.2614  0.2180
  106MOL    H5417064   3.343   2.106   2.931 -0.2368 -0.6839  0.3049
  106MOL    H5517065   3.256   2.164   2.649 -1.8373  0.6449  0.5336
  106MOL    H5617066   3.105   2.019   2.724 -0.6494  0.1074  0.4071
  106MOL    H5717067   3.039   2.164   2.758  0.5634  0.9858 -0.3366
  106MOL    C5817068   3.227   2.316   2.792 -0.4507  0.2651 -0.3132
  106MOL    C5917069   3.343   2.407   2.751  0.2160 -0.3205  0.1319
  106MOL    N6017070   3.389   2.379   2.610  0.3849  0.2354 -0.2435
  106MOL    H6117071   3.140   2.354   2.740 -0.9634 -0.6338 -0.1276
  106MOL    H6217072   3.192   2.324   2.895 -3.6586  0.3002 -1.3686
  106MOL    H6317073   3.418   2.383   2.826 -2.0340  1.3396  3.0040
  106MOL    H6417074   3.471   2.434   2.589 -0.4519  1.6428  0.1367
  106MOL    H6517075   3.410   2.281   2.597  2.3893  0.2051  2.6713
  106MOL    C6617076   3.319   2.557   2.752 -0.3232  0.5208  0.3316
  106MOL    C6717077   3.267   2.602   2.890  0.0958  0.2569  0.0921
  106MOL    N6817078   3.385   2.620   2.971  0.4835 -0.9271 -0.5220
  106MOL    H6917079   3.407   2.610   2.717 -1.3240  2.2873  0.4575
  106MOL    H7017080   3.241   2.583   2.680 -0.5927  0.0198  0.4328
  106MOL    H7117081   3.196   2.525   2.922 -1.7841  1.3015 -1.4724
  106MOL    H7217082   3.425   2.535   3.008 -1.0109 -0.8487  1.3669
  106MOL    H7317083   3.351   2.645   3.063  1.4136 -3.1424  0.4677
  106MOL    C7417084   3.188   2.734   2.892  0.4011 -0.4137 -0.2755
  106MOL    C7517085   3.098   2.766   3.014 -0.4725 -0.2435  0.8267
  106MOL    N7617086   3.064   2.907   3.000 -0.1603 -0.5221  0.2472
  106MOL    H7717087   3.258   2.816   2.878  0.1561  0.0102  0.9810
  106MOL    H7817088   3.113   2.737   2.813  2.5166  0.8884 -2.3090
  106MOL    H7917089   3.158   2.771   3.105 -0.9687 -2.6675  1.3517
  106MOL    H8017090   3.153   2.954   3.005 -0.5227  0.2782 -0.6558
  106MOL    H8117091   3.042   2.922   2.903  1.2589 -0.9571 -0.1583
  106MOL    C8217092   2.972   2.684   3.031 -0.3340 -0.3686 -0.0676
  106MOL    C8317093   2.917   2.695   3.176 -0.5188  0.1368  0.4541
  106MOL    N8417094   2.776   2.678   3.165 -0.6664  0.4360  0.6043
  106MOL    H8517095   2.900   2.721   2.959 -2.5898 -0.0444  2.2906
  106MOL    H8617096   2.985   2.579   3.002 -0.1115 -0.0629 -1.0866
  106MOL    H8717097   2.930   2.797   3.213 -1.6433  0.7229 -0.6960
  106MOL    H8817098   2.742   2.753   3.106  0.7646  0.2601 -0.4428
  106MOL    H8917099   2.725   2.694   3.251  1.1452  0.3785  1.7014
  106MOL    C9017100   2.978   2.582   3.261  0.0656  0.2394  0.4104
  106MOL    C9117101   2.940   2.580   3.412 -0.0264 -0.0483 -0.1067
  106MOL    N9217102   2.986   2.454   3.467 -0.6498 -0.1021  0.0344
  106MOL    H9317103   2.957   2.487   3.211  2.0642  1.2189 -2.4052
  106MOL    H9417104   3.085   2.597   3.254  0.4073 -2.2128 -0.0820
  106MOL    H9517105   2.832   2.579   3.421 -0.0284 -0.6259 -0.1481
  106MOL    H9617106   2.944   2.433   3.556  1.4537  0.2185  1.1487
  106MOL    H9717107   2.949   2.377   3.413 -1.0329  0.1374 -0.0456
  106MOL    C9817108   2.998   2.699   3.494  0.1571 -0.0121 -0.0295
  106MOL    C9917109   2.995   2.691   3.648 -0.2301 -0.0928  0.4988
  106MOL   N10017110   3.109   2.741   3.725  0.0122 -0.0344 -0.3785
  106MOL   H10117111   3.099   2.716   3.457  0.5961  1.9439  1.9412
  106MOL   H10217112   2.934   2.783   3.468 -1.1932 -1.7299 -2.5012
  106MOL   H10317113   2.989   2.584   3.667  2.2783  0.0517  2.4597
  106MOL   H10417114   3.093   2.701   3.816  0.6538  1.5296  0.4315
  106MOL   H10517115   3.195   2.698   3.694 -0.0532  0.6939 -1.5906
  106MOL   C10617116   2.858   2.749   3.710 -0.1599  0.1555 -0.0051
  106MOL   C10717117   2.723   2.657   3.713 -0.1055  0.5260  0.1927
  106MOL   N10817118   2.712   2.575   3.834 -0.5776  0.2841  0.6027
  106MOL   H10917119   2.884   2.799   3.803  2.1798 -1.4095  0.2203
  106MOL   H11017120   2.834   2.839   3.653 -2.5417  1.0867  2.3727
  106MOL   H11117121   2.728   2.597   3.622 -0.4059 -0.6454  0.9396
  106MOL   H11217122   2.707   2.630   3.919  1.3101 -0.9185  1.5249
  106MOL   H11317123   2.628   2.520   3.823  0.5118 -1.4312  0.7237
  106MOL   C11417124   2.593   2.734   3.695  1.4334 -0.4736  0.6124
  106MOL   C11517125   2.574   2.806   3.548  0.3088  0.7010  0.6593
  106MOL   N11617126   2.538   2.706   3.443 -0.6745  0.6804  0.3332
  106MOL   H11717127   2.513   2.661   3.693 -0.5625  1.6542  0.3723
  106MOL   H11817128   2.565   2.801   3.776  0.1553  1.5196 -1.4005
  106MOL   H11917129   2.670   2.854   3.529 -0.2795  1.6555  0.0542
  106MOL   H12017130   2.479   2.634   3.482  1.2523  0.4820  3.0403
  106MOL   H12117131   2.489   2.744   3.363  0.4826 -2.5954 -2.0513
  106MOL   C12217132   2.458   2.905   3.552  0.7408  0.1512  0.2805
  106MOL   C12317133   2.421   2.992   3.426  0.7103  0.4133 -0.0628
  106MOL   N12417134   2.292   3.065   3.451  0.1098 -0.1843  0.1774
  106MOL   H12517135   2.370   2.848   3.581  1.1727 -1.0423 -0.6783
  106MOL   H12617136   2.477   2.974   3.634  1.5528 -2.3171  2.2451
  106MOL   H12717137   2.406   2.936   3.334 -0.7284  2.6696 -1.2732
  106MOL   H12817138   2.219   2.997   3.432 -0.7471  0.6025  0.6514
  106MOL   H12917139   2.269   3.136   3.384  2.7341  0.6797  0.1548
  106MOL   C13017140   2.528   3.104   3.397  0.2154 -0.5745  0.1389
  106MOL   C13117141   2.547   3.135   3.245 -0.1993  0.6204 -0.3898
  106MOL   N13217142   2.631   3.254   3.225  0.4793  0.6391 -0.2575
  106MOL   H13317143   2.501   3.198   3.445 -2.0789 -1.2674  0.2646
  106MOL   H13417144   2.619   3.066   3.442  0.0488  1.6175  2.4635
  106MOL   H13517145   2.446   3.134   3.203 -0.7655 -0.7161  0.9498
  106MOL   H13617146   2.581   3.337   3.252 -0.3512  0.1659 -0.3487
  106MOL   H13717147   2.652   3.261   3.127  1.3343 -0.8261 -0.1934
  106MOL   C13817148   2.615   3.011   3.180 -0.4726  0.6814  0.5257
  106MOL   C13917149   2.567   2.975   3.043  1.1608  0.0177 -0.3147
  106MOL   N14017150   2.671   2.887   2.986  0.1547 -0.2262 -0.1967
  106MOL   H14117151   2.721   3.031   3.166 -0.7363  1.3048 -0.6043
  106MOL   H14217152   2.617   2.919   3.239 -1.2668  0.9188  0.9323
  106MOL   H14317153   2.568   3.075   3.002 -1.0642  0.5749  0.9164
  106MOL   H14417154   2.761   2.930   2.972  0.6514 -1.6477 -1.6301
  106MOL   H14517155   2.646   2.854   2.893 -0.2799  0.0387 -0.1744
  106MOL   C14617156   2.426   2.896   3.042  0.5149 -1.0085  0.2512
  106MOL   C14717157   2.425   2.748   3.094 -0.1462  0.3345  0.0130
  106MOL   N14817158   2.335   2.733   3.210 -0.2866 -0.0112  0.4819
  106MOL   H14917159   2.359   2.960   3.098  0.6997 -0.4855 -0.1165
  106MOL   H15017160   2.382   2.896   2.942 -2.0194  0.7425  1.3013
  106MOL   H15117161   2.523   2.728   3.137 -0.1042  0.2423 -0.1268
  106MOL   H15217162   2.244   2.763   3.177 -0.5354  0.5713  1.6673
  106MOL   H15317163   2.330   2.637   3.240  2.0690 -0.0500  0.8368
  106MOL   C15417164   2.397   2.639   2.989  0.4133  0.2668  0.5411
  106MOL   C15517165   2.516   2.619   2.899  0.0780 -0.3513 -0.0152
  106MOL   N15617166   2.498   2.522   2.793 -0.2382 -1.0675 -0.8817
  106MOL   H15717167   2.376   2.538   3.024  2.0798 -0.9511 -1.8115
  106MOL   H15817168   2.308   2.658   2.929  0.4929  0.9177  0.6292
  106MOL   H15917169   2.607   2.597   2.954 -0.3189 -0.3334  0.6502
  106MOL   H16017170   2.426   2.547   2.726 -0.8473  1.6540  0.7263
  106MOL   H16117171   2.587   2.502   2.751  0.2692  0.3343 -0.4995
  106MOL   H16217172   2.544   2.713   2.850 -0.0359 -0.0761  0.4489
  107MOL     C117173   6.313   4.902   1.209  0.0273  0.0678 -0.2230
  107MOL     C217174   6.332   4.829   1.075  0.0981 -0.1680 -0.0354
  107MOL     N317175   6.279   4.904   0.964 -0.5344 -0.2004 -0.4186
  107MOL     H417176   6.209   4.929   1.227  0.2112  0.4141  0.3211
  107MOL     H517177   6.365   4.997   1.216 -0.5027  0.2203  2.0479
  107MOL     H617178   6.261   4.747   1.075  0.0674 -0.1889  2.4559
  107MOL     H717179   6.275   4.835   0.890  1.2860  0.1747 -0.8934
  107MOL     H817180   6.182   4.931   0.966 -0.7909 -1.1593  1.7890
  107MOL     H917181   6.335   4.840   1.296 -0.4713  0.5338  0.2361
  107MOL    C1017182   6.471   4.772   1.047  0.1050  0.1771 -0.1819
  107MOL    C1117183   6.497   4.636   1.120 -0.8678 -0.0451  0.1158
  107MOL    N1217184   6.411   4.534   1.071  0.3656  0.1982 -0.5192
  107MOL    H1317185   6.505   4.759   0.944  0.3176  1.7482 -0.3387
  107MOL    H1417186   6.550   4.841   1.079  1.0564 -1.2962  0.7030
  107MOL    H1517187   6.481   4.658   1.225  0.5329  3.4769 -0.3555
  107MOL    H1617188   6.422   4.449   1.124 -1.3346  0.2543 -0.0445
  107MOL    H1717189   6.315   4.559   1.093  0.5174 -0.6077  1.1739
  107MOL    C1817190   6.640   4.586   1.117 -0.3088  0.2377  0.1417
  107MOL    C1917191   6.733   4.655   1.221  0.3496 -0.0620  0.2666
  107MOL    N2017192   6.735   4.599   1.352 -0.1903 -0.1812  0.3901
  107MOL    H2117193   6.648   4.478   1.117 -0.2858  0.2219 -1.9035
  107MOL    H2217194   6.674   4.618   1.018 -0.5805  0.7408  0.2088
  107MOL    H2317195   6.699   4.758   1.235  0.6464  0.0016  0.4981
  107MOL    H2417196   6.651   4.619   1.405 -2.0700 -2.4617 -1.5745
  107MOL    H2517197   6.818   4.634   1.398  0.8240 -2.4397  0.3751
  107MOL    C2617198   6.877   4.654   1.173 -0.5278 -0.0340  0.3226
  107MOL    C2717199   6.915   4.748   1.064  0.0559  0.3101 -0.4698
  107MOL    N2817200   6.925   4.880   1.111  0.5570 -0.4718 -0.1085
  107MOL    H2917201   6.936   4.671   1.263 -0.2346 -1.8709  0.4978
  107MOL    H3017202   6.894   4.551   1.144  1.3964 -0.2103  1.9427
  107MOL    H3117203   6.840   4.752   0.985 -1.6020 -1.1090  1.0014
  107MOL    H3217204   6.830   4.914   1.120  1.2395  1.7047 -0.9238
  107MOL    H3317205   6.964   4.879   1.204  0.0178  0.3258  0.1333
  107MOL    C3417206   7.053   4.702   1.013 -0.8804 -0.5363  0.1617
  107MOL    C3517207   7.085   4.752   0.870  0.7181  0.2593 -0.1775
  107MOL    N3617208   7.231   4.752   0.841  0.4027  0.7841  0.1643
  107MOL    H3717209   7.132   4.736   1.081  1.1396 -2.5877 -1.0984
  107MOL    H3817210   7.055   4.593   1.017  1.4575 -0.5591 -1.2154
  107MOL    H3917211   7.066   4.858   0.857 -0.3236  0.5023  2.9946
  107MOL    H4017212   0.008   4.785   0.921  0.3189 -1.5374  1.2081
  107MOL    H4117213   7.251   4.818   0.767  2.4097 -0.0549 -0.0710
  107MOL    C4217214   7.004   4.657   0.776  0.0343 -0.1051  0.5336
  107MOL    C4317215   6.974   4.713   0.632  0.6950 -0.1897  0.4450
  107MOL    N4417216   6.895   4.611   0.550 -0.7028 -0.4023  0.1015
  107MOL    H4517217   7.060   4.564   0.767 -0.3999 -0.1693 -1.8113
  107MOL    H4617218   6.908   4.634   0.822 -1.5935  0.4682 -2.4059
  107MOL    H4717219   7.069   4.722   0.580 -0.3665 -0.0637 -1.5454
  107MOL    H4817220   6.954   4.531   0.530  2.5255  1.1743  2.6417
  107MOL    H4917221   6.820   4.564   0.598 -1.1565 -1.0950 -1.2624
  107MOL    C5017222   6.890   4.845   0.631  0.4469  0.7626 -0.0344
  107MOL    C5117223   6.852   4.912   0.495 -1.1327 -0.2036 -0.1077
  107MOL    N5217224   6.728   4.982   0.533 -0.7412 -0.1613  0.1338
  107MOL    H5317225   6.798   4.811   0.678  1.4607 -1.1416  0.6222
  107MOL    H5417226   6.936   4.920   0.695  1.0830  0.5591 -0.2460
  107MOL    H5517227   6.829   4.832   0.424 -0.1789 -0.6267  0.0575
  107MOL    H5617228   6.677   5.000   0.448 -1.0319 -0.2261  0.2941
  107MOL    H5717229   6.669   4.908   0.567 -1.5969  0.5548  0.2059
  107MOL    C5817230   6.964   5.011   0.426  0.8623 -0.2854  0.9588
  107MOL    C5917231   7.092   4.935   0.392 -0.3116 -0.1008  0.2973
  107MOL    N6017232   7.053   4.827   0.305  0.4741 -0.3368 -0.4314
  107MOL    H6117233   6.917   5.049   0.335  2.5692 -0.6155 -0.0993
  107MOL    H6217234   6.990   5.087   0.500  0.8774  0.7732 -0.1201
  107MOL    H6317235   7.142   4.881   0.472 -1.7190 -2.5746 -0.4416
  107MOL    H6417236   7.128   4.761   0.297 -1.4414 -2.2585 -4.0066
  107MOL    H6517237   6.983   4.771   0.351  0.9498  2.6928  4.2824
  107MOL    C6617238   7.194   5.018   0.305  0.0310 -0.1505 -0.8290
  107MOL    C6717239   0.025   5.097   0.395  0.3643  0.2303  0.7761
  107MOL    N6817240   0.142   5.023   0.414 -0.4799 -0.0766  0.2565
  107MOL    H6917241   7.255   4.954   0.241 -0.0313 -0.1532 -0.8864
  107MOL    H7017242   7.137   5.071   0.228  0.4104  0.0484 -0.9769
  107MOL    H7117243   7.255   5.130   0.488  1.2606 -0.1397  1.3537
  107MOL    H7217244   0.214   5.025   0.344  1.5132  0.6668  2.2832
  107MOL    H7317245   0.111   4.928   0.401 -1.6652  0.3525 -0.1835
  107MOL    C7417246   0.048   5.237   0.328  0.4635  0.0803  0.2274
  107MOL    C7517247   0.114   5.335   0.422 -0.1569 -0.8586 -0.4043
  107MOL    N7617248   0.251   5.365   0.371 -0.3391  0.2995 -0.1314
  107MOL    H7717249   0.102   5.222   0.234  0.3354  0.9477  0.0144
  107MOL    H7817250   7.228   5.269   0.289  1.2815  0.7593 -1.2687
  107MOL    H7917251   0.133   5.296   0.522 -1.5387  0.5716  0.4332
  107MOL    H8017252   0.300   5.277   0.359 -2.3441 -0.6788 -1.6442
  107MOL    H8117253   0.300   5.411   0.445  2.0227 -3.2292  0.6492
  107MOL    C8217254   0.047   5.469   0.448 -0.2688 -0.4069  0.0732
  107MOL    C8317255   7.203   5.439   0.546  0.1027 -0.1309  0.2070
  107MOL    N8417256   7.262   5.430   0.685 -0.0104 -0.0116  0.0190
  107MOL    H8517257   0.121   5.532   0.496 -0.6618  1.7770 -2.0961
  107MOL    H8617258   0.017   5.509   0.351 -0.6054 -1.5585 -0.3083
  107MOL    H8717259   7.141   5.355   0.515  0.6794 -0.4612 -0.0723
  107MOL    H8817260   0.038   5.345   0.703 -0.1253 -0.2136 -0.5908
  107MOL    H8917261   7.186   5.421   0.750 -1.2306  1.5762 -1.1420
  107MOL    C9017262   7.109   5.561   0.539 -0.1333  0.1915 -0.1585
  107MOL    C9117263   6.962   5.545   0.591  0.5081 -0.1919  0.1190
  107MOL    N9217264   6.935   5.660   0.681  0.5493 -0.4102  0.0856
  107MOL    H9317265   7.161   5.639   0.593  0.8455  0.0404 -0.8501
  107MOL    H9417266   7.106   5.619   0.447  1.7537  1.1331  0.3472
  107MOL    H9517267   6.960   5.451   0.647 -0.5324  0.5424  1.3396
  107MOL    H9617268   6.994   5.662   0.763 -1.1593 -1.9191  1.3720
  107MOL    H9717269   6.908   5.748   0.639 -0.2893 -1.1990 -1.0607
  107MOL    C9817270   6.848   5.532   0.489  0.0938  0.7291  0.4876
  107MOL    C9917271   6.846   5.394   0.421  0.4094 -0.3018  0.1212
  107MOL   N10017272   6.763   5.298   0.494  1.1054  0.0162 -0.2444
  107MOL   H10117273   6.757   5.553   0.546 -1.0650  1.4375 -1.5892
  107MOL   H10217274   6.858   5.603   0.408  1.2180 -1.9438 -1.7888
  107MOL   H10317275   6.949   5.359   0.418  0.5230 -0.0722  1.1822
  107MOL   H10417276   6.779   5.204   0.461 -1.7159  0.1260 -2.1314
  107MOL   H10517277   6.794   5.290   0.589 -0.9776  2.7562  0.7342
  107MOL   C10617278   6.788   5.395   0.277 -0.1596  0.7768  0.0700
  107MOL   C10717279   6.891   5.451   0.172  0.7039  0.4416  0.5605
  107MOL   N10817280   6.984   5.342   0.137  0.3630 -0.1887  0.0431
  107MOL   H10917281   6.752   5.295   0.251 -1.2863  1.3621 -0.6632
  107MOL   H11017282   6.694   5.448   0.275 -0.7483 -0.2936 -3.2915
  107MOL   H11117283   6.947   5.535   0.213  1.0894  1.5247 -2.1158
  107MOL   H11217284   6.983   5.319   0.039 -2.0138  1.1383 -0.2894
  107MOL   H11317285   7.074   5.385   0.154 -1.0940  2.5243  1.1970
  107MOL   C11417286   6.829   5.491   0.037  0.4766  0.2004  0.3097
  107MOL   C11517287   6.747   5.621   0.030 -0.0792  0.6197 -0.3358
  107MOL   N11617288   6.827   5.724   7.235  0.4745 -0.5038 -0.8465
  107MOL   H11717289   6.904   5.502   7.234 -0.2980  1.0749 -0.3260
  107MOL   H11817290   6.760   5.409   0.017 -0.1674  0.1542  2.5683
  107MOL   H11917291   6.724   5.650   0.133 -1.3222 -1.7888  0.1044
  107MOL   H12017292   6.776   5.809   7.221  0.0374 -0.8962 -1.6940
  107MOL   H12117293   6.916   5.739   0.004  0.8144 -1.3149 -1.2334
  107MOL   C12217294   6.607   5.610   7.245 -0.7519 -0.3496 -0.0513
  107MOL   C12317295   6.502   5.513   0.041  0.7079  0.2893  0.1372
  107MOL   N12417296   6.436   5.594   0.144 -0.2246 -0.0049 -0.1771
  107MOL   H12517297   6.562   5.709   7.234 -0.3515  0.0667  1.8716
  107MOL   H12617298   6.623   5.576   7.142  1.4015 -0.6255  0.3663
  107MOL   H12717299   6.551   5.437   0.102 -4.2046 -1.6442  1.8522
  107MOL   H12817300   6.499   5.615   0.219 -2.0389  0.7552  1.1634
  107MOL   H12917301   6.404   5.685   0.115  0.4770  0.6082  0.9464
  107MOL   C13017302   6.406   5.457   7.210  0.6092  0.6968 -0.3562
  107MOL   C13117303   6.413   5.317   7.139  0.1050  0.0918  0.6906
  107MOL   N13217304   6.295   5.291   7.059 -0.2694 -0.3975 -0.1988
  107MOL   H13317305   6.310   5.458   7.260  0.3983 -0.5159 -0.7197
  107MOL   H13417306   6.395   5.531   7.130 -0.0388  2.0438  0.9606
  107MOL   H13517307   6.416   5.247   7.222  4.5530  0.4330  0.9202
  107MOL   H13617308   6.298   5.317   6.961  1.6627 -1.4493 -0.4369
  107MOL   H13717309   6.209   5.336   7.089 -1.3706 -1.4209 -1.6973
  107MOL   C13817310   6.543   5.301   7.057  0.1803  0.6031 -0.0594
  107MOL   C13917311   6.601   5.159   7.054  0.1560  0.2713  0.0936
  107MOL   N14017312   6.707   5.154   6.952  0.1792 -0.1384  0.3150
  107MOL   H14117313   6.516   5.335   6.957 -1.0559  1.6776  0.6332
  107MOL   H14217314   6.626   5.355   7.103  0.8235 -1.8143  1.7647
  107MOL   H14317315   6.513   5.105   7.021 -1.1600  2.8259 -0.7133
  107MOL   H14417316   6.726   5.056   6.941  1.5423  0.2048 -0.5021
  107MOL   H14517317   6.791   5.193   6.991 -0.8696  2.1151  0.4159
  107MOL   C14617318   6.656   5.100   7.177 -0.3201 -0.3965 -0.1969
  107MOL   C14717319   6.618   4.950   7.203  0.4763  0.6021  0.0599
  107MOL   N14817320   6.685   4.862   7.108 -0.1588  0.1705  0.0193
  107MOL   H14917321   6.764   5.100   7.168 -0.3807 -0.6680 -1.0222
  107MOL   H15017322   6.638   5.159   7.267  2.1630  3.0610 -1.8557
  107MOL   H15117323   6.510   4.948   7.207  0.5115  1.0057  1.3498
  107MOL   H15217324   6.674   4.912   7.021  0.6604  0.2357 -0.0518
  107MOL   H15317325   6.780   4.834   7.130 -0.2495  0.5399  0.8894
  107MOL   C15417326   6.672   4.913   0.069  0.4043  0.0935  0.1716
  107MOL   C15517327   6.629   5.000   0.188 -0.0389 -0.3175  0.7241
  107MOL   N15617328   6.588   4.905   0.290  0.1640 -0.0348  0.3004
  107MOL   H15717329   6.642   4.808   0.074  1.5072 -0.2798 -0.8913
  107MOL   H15817330   6.780   4.918   0.060  0.3985 -0.7836 -0.5015
  107MOL   H15917331   6.542   5.064   0.179 -0.3707 -1.0214 -1.5472
  107MOL   H16017332   6.634   4.816   0.277 -1.9985 -1.2503  0.6061
  107MOL   H16117333   6.495   4.870   0.271  0.5581  0.1054 -1.9937
  107MOL   H16217334   6.711   5.069   0.206 -0.1657 -0.0695  0.3692
  108MOL     C117335   1.861   2.914   0.140  0.2102 -0.0747  0.4235
  108MOL     C217336   1.706   2.935   0.113  0.5027 -0.7837 -0.0824
  108MOL     N317337   1.676   3.058   0.184 -0.8056  0.0990 -0.1039
  108MOL     H417338   1.900   2.821   0.099 -0.3163  0.8539 -2.2966
  108MOL     H517339   1.878   2.910   0.248  1.1331 -0.5352  0.2594
  108MOL     H617340   1.654   2.858   0.170 -0.1490 -0.2215  0.0730
  108MOL     H717341   1.681   3.042   0.283  2.4024  0.8693 -0.0992
  108MOL     H817342   1.583   3.094   0.167 -0.2768  3.1247  2.9828
  108MOL     H917343   1.920   2.986   0.083  2.8589 -1.3472  1.4831
  108MOL    C1017344   1.670   2.944   7.243  0.0545 -0.1858 -0.2394
  108MOL    C1117345   1.514   2.948   7.216  0.3602  0.6963  0.7805
  108MOL    N1217346   1.497   2.987   7.075 -0.4262  0.4126 -0.0957
  108MOL    H1317347   1.725   3.023   7.192 -1.5392  1.4471  0.4799
  108MOL    H1417348   1.704   2.853   7.194 -1.3289 -0.6200 -0.4281
  108MOL    H1517349   1.461   3.029   7.265 -2.4583  0.1267 -1.2291
  108MOL    H1617350   1.534   3.080   7.059  2.9502 -0.6766  0.9902
  108MOL    H1717351   1.399   2.996   7.051 -0.0038 -2.3021 -3.2796
  108MOL    C1817352   1.457   2.808   7.254 -0.5291 -1.2131  0.0269
  108MOL    C1917353   1.384   2.793   0.106  0.3542  0.2725  0.7012
  108MOL    N2017354   1.245   2.830   0.090  0.0148 -1.0130  0.1427
  108MOL    H2117355   1.397   2.765   7.174 -0.9906 -0.3738 -0.0883
  108MOL    H2217356   1.537   2.736   7.269 -1.4530 -2.3164 -0.2733
  108MOL    H2317357   1.430   2.856   0.182  1.6868 -0.3379  0.4207
  108MOL    H2417358   1.226   2.914   0.143  0.0078 -0.7299 -0.3089
  108MOL    H2517359   1.224   2.855   7.270  1.8664  0.1777  0.0025
  108MOL    C2617360   1.374   2.648   0.150  0.2029  0.4949  0.1516
  108MOL    C2717361   1.503   2.579   0.188  0.5114 -0.6729  0.2044
  108MOL    N2817362   1.485   2.522   0.324 -0.4633 -0.7468 -0.5841
  108MOL    H2917363   1.301   2.651   0.231  0.9979 -0.1892  0.9069
  108MOL    H3017364   1.329   2.582   0.076  0.1144  0.4312  0.2625
  108MOL    H3117365   1.583   2.652   0.195  0.0182 -0.2660  1.7582
  108MOL    H3217366   1.565   2.464   0.347 -1.2321 -1.2367  0.9196
  108MOL    H3317367   1.400   2.467   0.334 -0.6127 -0.5115 -0.5577
  108MOL    C3417368   1.533   2.460   0.096  0.4713 -0.5160 -0.2678
  108MOL    C3517369   1.659   2.379   0.126  0.3343 -0.0961  0.2155
  108MOL    N3617370   1.688   2.287   0.018  0.4694 -0.5427  0.3863
  108MOL    H3717371   1.448   2.395   0.075 -0.7236  0.3482  1.7468
  108MOL    H3817372   1.555   2.503   7.274  2.4169 -1.0732 -0.0956
  108MOL    H3917373   1.650   2.335   0.225 -2.5748  0.4985  0.2320
  108MOL    H4017374   1.787   2.300   0.003  0.4320 -0.8367 -0.1017
  108MOL    H4117375   1.697   2.199   0.066 -1.9579 -0.1338  1.6430
  108MOL    C4217376   1.776   2.475   0.147 -0.5718  0.3860 -0.2838
  108MOL    C4317377   1.921   2.427   0.146  0.2864  0.2565 -0.5321
  108MOL    N4417378   1.964   2.410   0.007  0.5306 -0.4343 -0.1247
  108MOL    H4517379   1.753   2.564   0.088  2.3780  1.3737 -0.0519
  108MOL    H4617380   1.767   2.516   0.248  1.5542 -0.0770  0.1228
  108MOL    H4717381   1.918   2.328   0.190 -1.9157 -1.5337 -4.4259
  108MOL    H4817382   2.063   2.429   0.004  0.1414  2.2546  1.6275
  108MOL    H4917383   1.916   2.487   7.237 -0.4668 -0.9479  0.0497
  108MOL    C5017384   2.013   2.527   0.205  0.5928 -0.6318  0.4360
  108MOL    C5117385   2.039   2.499   0.357  0.0940 -0.1074 -0.3800
  108MOL    N5217386   2.119   2.378   0.370  0.1670  0.6379 -0.5336
  108MOL    H5317387   2.109   2.540   0.155 -0.8466  0.0688 -2.2375
  108MOL    H5417388   1.958   2.621   0.197 -0.8392 -1.3703  1.4300
  108MOL    H5517389   1.940   2.489   0.402  0.1974  0.1602 -0.0857
  108MOL    H5617390   2.059   2.297   0.362 -0.3337  0.8878  0.7225
  108MOL    H5717391   2.181   2.372   0.291 -0.1846  3.3193 -1.0604
  108MOL    C5817392   2.113   2.610   0.427 -0.7801  0.6926 -0.6289
  108MOL    C5917393   2.066   2.637   0.572  1.0627 -0.3457 -0.4641
  108MOL    N6017394   2.170   2.708   0.638  0.4071 -0.3284 -0.1820
  108MOL    H6117395   2.220   2.590   0.418 -0.8541  0.5796 -1.2153
  108MOL    H6217396   2.098   2.699   0.366 -0.8169  1.3769  0.3496
  108MOL    H6317397   2.052   2.546   0.631  0.0315  0.1767  0.1185
  108MOL    H6417398   2.254   2.653   0.628  0.8011  0.5972 -2.3446
  108MOL    H6517399   2.134   2.702   0.732 -2.0661  0.8296 -1.0249
  108MOL    C6617400   1.938   2.724   0.578  0.2289 -0.4406  0.3997
  108MOL    C6717401   1.802   2.648   0.571  0.5149  0.0465  0.1469
  108MOL    N6817402   1.795   2.524   0.644 -0.5471  0.2153  0.2371
  108MOL    H6917403   1.936   2.785   0.669 -2.1812  2.3755 -1.4362
  108MOL    H7017404   1.930   2.802   0.502  1.1867 -2.4697 -1.8448
  108MOL    H7117405   1.770   2.623   0.470 -0.2837 -0.4018  0.5116
  108MOL    H7217406   1.811   2.550   0.740  1.2058 -1.5585  0.4612
  108MOL    H7317407   1.871   2.463   0.618 -0.4412  0.2986  0.3495
  108MOL    C7417408   1.697   2.744   0.625 -0.3534 -0.5277 -0.2004
  108MOL    C7517409   1.641   2.836   0.510  0.5163  0.2721  0.0425
  108MOL    N7617410   1.503   2.792   0.474  0.2303 -0.0597 -0.4650
  108MOL    H7717411   1.610   2.683   0.650 -1.4595  0.2436 -2.0505
  108MOL    H7817412   1.727   2.803   0.712 -0.6443  0.3676 -0.7066
  108MOL    H7917413   1.697   2.830   0.417  2.7687  1.3987  1.2875
  108MOL    H8017414   1.502   2.705   0.422  0.5960 -0.4756  0.2123
  108MOL    H8117415   1.463   2.861   0.412  2.5552  1.5820 -0.2154
  108MOL    C8217416   1.618   2.982   0.548 -0.0395  0.8467  0.2824
  108MOL    C8317417   1.757   3.047   0.569 -0.0596  0.5045 -0.1313
  108MOL    N8417418   1.825   3.070   0.443  0.3676 -0.0700 -0.3043
  108MOL    H8517419   1.553   3.047   0.490 -0.3903  0.7057  0.5183
  108MOL    H8617420   1.566   2.979   0.644 -1.9524  0.2406 -0.7525
  108MOL    H8717421   1.823   2.976   0.618 -0.6292  1.2513  1.7504
  108MOL    H8817422   1.862   2.980   0.419 -2.4491 -2.0838  2.5022
  108MOL    H8917423   1.903   3.124   0.476  1.0525 -0.5989 -1.0570
  108MOL    C9017424   1.743   3.174   0.662 -0.3398  0.1932  0.4449
  108MOL    C9117425   1.710   3.136   0.810  0.4242  0.6075  0.2982
  108MOL    N9217426   1.817   3.052   0.857 -0.9320 -0.5923  0.1882
  108MOL    H9317427   1.831   3.238   0.659 -0.8155  0.8460  0.3954
  108MOL    H9417428   1.662   3.229   0.615 -0.1821  0.2022  0.1864
  108MOL    H9517429   1.631   3.062   0.819  0.6138  0.5620  1.7013
  108MOL    H9617430   1.911   3.085   0.871  0.0093 -2.5701 -1.2388
  108MOL    H9717431   1.824   2.964   0.807 -0.9206 -1.6655  2.0350
  108MOL    C9817432   1.682   3.246   0.906 -0.1021 -0.6123  0.0087
  108MOL    C9917433   1.556   3.341   0.870 -0.8475  0.8152  0.5912
  108MOL   N10017434   1.434   3.272   0.898 -0.2584 -0.4384 -0.0068
  108MOL   H10117435   1.668   3.203   1.005  0.3839 -0.9196 -0.0554
  108MOL   H10217436   1.776   3.301   0.914  0.3846 -1.8522  3.9441
  108MOL   H10317437   1.564   3.356   0.762 -2.2136 -0.7335  0.2535
  108MOL   H10417438   1.429   3.178   0.860 -2.9689 -0.5175  0.4530
  108MOL   H10517439   1.357   3.333   0.875  1.3454  1.4606 -0.4299
  108MOL   C10617440   1.566   3.474   0.955 -0.4597  0.1911  0.0033
  108MOL   C10717441   1.613   3.591   0.866 -0.1201 -0.0334  0.4680
  108MOL   N10817442   1.612   3.714   0.951 -0.2735  0.1487  0.2368
  108MOL   H10917443   1.472   3.507   1.001  0.6487 -0.5205  2.8927
  108MOL   H11017444   1.641   3.459   1.033  0.7652 -0.3325 -1.2749
  108MOL   H11117445   1.543   3.596   0.783 -1.0452  0.0152  1.2454
  108MOL   H11217446   1.513   3.733   0.953  0.0027  1.5779  0.8016
  108MOL   H11317447   1.656   3.796   0.910  1.0877 -1.1098 -0.8919
  108MOL   C11417448   1.754   3.578   0.805  0.1684 -0.4676  0.1481
  108MOL   C11517449   1.762   3.639   0.662  0.2417 -0.2221 -0.5088
  108MOL   N11617450   1.890   3.714   0.635 -0.0488 -0.5971 -0.5186
  108MOL   H11717451   1.826   3.634   0.866 -0.7193  1.0771 -0.1907
  108MOL   H11817452   1.789   3.475   0.794 -0.6980 -1.2519  3.7763
  108MOL   H11917453   1.682   3.712   0.665  0.3722 -0.1385  0.9761
  108MOL   H12017454   1.914   3.776   0.711  0.7643  0.3662 -1.5378
  108MOL   H12117455   1.962   3.644   0.646  3.4966  2.9301  0.1716
  108MOL   C12217456   1.738   3.536   0.554  0.7692 -0.0231  0.0108
  108MOL   C12317457   1.724   3.589   0.412 -0.2572  0.1372  0.0984
  108MOL   N12417458   1.863   3.611   0.359  0.2008 -0.3976  0.8247
  108MOL   H12517459   1.812   3.456   0.561 -1.4580 -2.2094 -0.6352
  108MOL   H12617460   1.644   3.489   0.585 -1.4253  3.7087 -0.6649
  108MOL   H12717461   1.682   3.690   0.411 -0.7772 -0.0165 -4.7586
  108MOL   H12817462   1.912   3.581   0.443 -0.8242 -1.1922  1.1370
  108MOL   H12917463   1.880   3.711   0.363  1.5989 -0.6046  0.5278
  108MOL   C13017464   1.655   3.498   0.310  0.2992  0.6567 -0.9662
  108MOL   C13117465   1.619   3.564   0.178 -0.2197  0.9063  0.2424
  108MOL   N13217466   1.594   3.458   0.082 -0.3378  0.0299 -0.5872
  108MOL   H13317467   1.721   3.412   0.309 -1.8137 -1.0524  0.7067
  108MOL   H13417468   1.561   3.463   0.352  1.5735  0.7878  2.1487
  108MOL   H13517469   1.707   3.621   0.150  0.7058 -0.9507 -0.7774
  108MOL   H13617470   1.547   3.503   0.004  0.0390  0.4997 -0.5491
  108MOL   H13717471   1.686   3.423   0.060 -0.4181 -0.2432 -0.4864
  108MOL   C13817472   1.496   3.654   0.191  0.4764 -0.0432  0.7760
  108MOL   C13917473   1.499   3.776   0.090  0.7418  0.4691  0.0214
  108MOL   N14017474   1.462   3.734   7.230 -0.2394  0.0088  0.6963
  108MOL   H14117475   1.401   3.603   0.199 -0.1511  0.9374 -0.3199
  108MOL   H14217476   1.500   3.699   0.291 -0.6733 -1.4264  1.4489
  108MOL   H14317477   1.602   3.812   0.092  0.3999  1.4229  2.3216
  108MOL   H14417478   1.369   3.694   7.235 -0.0121 -0.4807  1.1744
  108MOL   H14517479   1.434   3.822   7.191 -2.2535 -0.5456  0.8615
  108MOL   C14617480   1.410   3.893   0.127  0.4524 -0.5613 -0.1382
  108MOL   C14717481   1.461   4.022   0.063  0.1856  0.1878  0.2855
  108MOL   N14817482   1.346   4.102   0.044  0.4786 -0.3848  0.1126
  108MOL   H14917483   1.307   3.864   0.106 -0.1075 -0.7171  2.6905
  108MOL   H15017484   1.426   3.910   0.233 -0.6867  0.3304 -0.1030
  108MOL   H15117485   1.499   4.016   7.237  2.9055 -1.7262  1.3261
  108MOL   H15217486   1.269   4.049   0.005  1.4529 -3.1454  1.8371
  108MOL   H15317487   1.371   4.180   7.260 -0.9473  0.6240  0.7953
  108MOL   C15417488   1.560   4.104   0.143  0.2773  0.4687 -0.3653
  108MOL   C15517489   1.699   4.030   0.176  0.1115  0.3195  0.5384
  108MOL   N15617490   1.787   4.120   0.242  1.1586 -0.1297 -0.1320
  108MOL   H15717491   1.573   4.201   0.094 -3.9298  0.2866 -2.0283
  108MOL   H15817492   1.518   4.136   0.238  1.9206  0.5393  0.3606
  108MOL   H15917493   1.749   4.015   0.080 -3.0280  0.6479 -1.2245
  108MOL   H16017494   1.735   4.158   0.320  0.2124  0.5611 -1.0953
  108MOL   H16117495   1.873   4.080   0.278  0.8022  0.2317  1.1545
  108MOL   H16217496   1.690   3.938   0.233  0.9839  0.3203  0.6721
  109MOL     C117497   7.150   3.500   4.516 -0.3133 -0.5579 -1.0620
  109MOL     C217498   7.039   3.455   4.417 -0.2107  0.1061 -0.0922
  109MOL     N317499   7.071   3.321   4.376  1.5183  0.0436 -0.4283
  109MOL     H417500   7.159   3.606   4.543 -1.3903 -0.5163 -0.8489
  109MOL     H517501   7.245   3.475   4.469  0.4585 -0.3893  0.3763
  109MOL     H617502   7.028   3.514   4.326 -0.9499 -1.0178 -0.7585
  109MOL     H717503   7.107   3.277   4.460  2.6914  0.7733 -0.5297
  109MOL     H817504   6.985   3.273   4.359  0.9285  0.8296  0.2800
  109MOL     H917505   7.148   3.441   4.607  2.0468  2.0662  0.7828
  109MOL    C1017506   6.903   3.449   4.489 -0.1342  0.2961 -0.4224
  109MOL    C1117507   6.824   3.583   4.491  0.0026 -0.5262  0.1443
  109MOL    N1217508   6.686   3.549   4.493  0.0808  0.0989 -0.0433
  109MOL    H1317509   6.846   3.367   4.445 -1.2752 -0.9477  3.1870
  109MOL    H1417510   6.928   3.434   4.594  0.3270  1.0545 -0.4168
  109MOL    H1517511   6.849   3.645   4.405 -0.1468  1.0073  1.1705
  109MOL    H1617512   6.629   3.623   4.532  0.7174  1.9791 -2.5383
  109MOL    H1717513   6.667   3.532   4.395  2.1275  1.7852 -0.7825
  109MOL    C1817514   6.849   3.670   4.619  0.9095  0.0080  0.2843
  109MOL    C1917515   6.800   3.816   4.608 -0.1671 -0.2682  0.6585
  109MOL    N2017516   6.787   3.865   4.743  0.4941 -0.0668 -0.5081
  109MOL    H2117517   6.801   3.620   4.703  0.5329 -1.3878 -0.7554
  109MOL    H2217518   6.955   3.675   4.641  1.0290 -0.7025 -0.1137
  109MOL    H2317519   6.692   3.817   4.593 -0.1785 -0.5043  0.7190
  109MOL    H2417520   6.786   3.791   4.812  1.4896  0.7407  0.3767
  109MOL    H2517521   6.698   3.911   4.758 -0.3349 -1.3718 -1.2577
  109MOL    C2617522   6.864   3.908   4.508 -0.7302  0.1597  0.5392
  109MOL    C2717523   6.792   3.922   4.373 -0.1037 -0.9977  0.2402
  109MOL    N2817524   6.689   4.023   4.384 -0.2447  0.4917  0.2036
  109MOL    H2917525   6.879   4.006   4.555 -0.8854  0.8935 -0.9284
  109MOL    H3017526   6.964   3.867   4.493  0.3384  3.2228 -0.9707
  109MOL    H3117527   6.735   3.830   4.360 -2.8341  0.8578 -1.3381
  109MOL    H3217528   6.724   4.102   4.436 -1.2853 -0.1114  1.8726
  109MOL    H3317529   6.631   3.973   4.450 -0.3613  1.0037  0.4880
  109MOL    C3417530   6.890   3.960   4.261 -0.5478 -0.1122  0.7043
  109MOL    C3517531   6.993   3.842   4.218  0.7184 -0.1712  0.0764
  109MOL    N3617532   6.947   3.770   4.104 -0.3539  0.2254 -0.2399
  109MOL    H3717533   6.836   4.009   4.180  0.1982  2.9821  1.9718
  109MOL    H3817534   6.947   4.047   4.296  0.7990  0.0998 -1.8953
  109MOL    H3917535   7.007   3.774   4.302 -1.9974 -0.2893  0.4555
  109MOL    H4017536   6.946   3.833   4.025 -0.1749 -1.1336 -1.3563
  109MOL    H4117537   6.849   3.746   4.116  0.2624 -1.6949  1.1983
  109MOL    C4217538   7.133   3.911   4.190 -0.0636 -0.3243  0.4330
  109MOL    C4317539   7.198   3.958   4.322 -0.4556  0.0751  0.2144
  109MOL    N4417540   0.010   3.853   4.361 -0.5015  0.0901  0.0309
  109MOL    H4517541   7.194   3.841   4.134 -2.2343 -0.9748 -1.2038
  109MOL    H4617542   7.103   3.988   4.118  3.1220 -0.0569 -0.6639
  109MOL    H4717543   7.133   3.980   4.406  0.2884 -0.1929  0.8637
  109MOL    H4817544   0.103   3.862   4.323 -1.5142  0.4111 -2.4426
  109MOL    H4917545   0.032   3.857   4.460 -0.8293  0.8623  0.0812
  109MOL    C5017546   0.001   4.091   4.295  0.2090 -0.1767  1.0316
  109MOL    C5117547   7.181   4.218   4.287 -0.5031  0.0966  0.5881
  109MOL    N5217548   7.129   4.239   4.419  0.4549 -0.6381  0.6600
  109MOL    H5317549   0.072   4.106   4.376  1.2118  1.9777 -0.2020
  109MOL    H5417550   0.071   4.080   4.212  1.0009 -1.0927  1.8075
  109MOL    H5517551   7.104   4.200   4.213  0.3049 -0.9548 -0.0041
  109MOL    H5617552   7.205   4.282   4.470  1.4611 -1.4418 -0.1337
  109MOL    H5717553   7.060   4.313   4.422  2.2717  1.0399  2.2448
  109MOL    C5817554   7.257   4.341   4.237 -0.0409 -0.4186  0.2605
  109MOL    C5917555   0.034   4.336   4.091  0.7080 -0.5922  0.0869
  109MOL    N6017556   7.192   4.343   4.004 -1.0211  0.1552 -0.4722
  109MOL    H6117557   7.189   4.426   4.228  0.3342 -0.1286  0.1428
  109MOL    H6217558   0.061   4.372   4.305  0.3615  1.3139 -0.9830
  109MOL    H6317559   0.079   4.238   4.080  0.0861 -0.9065  0.3310
  109MOL    H6417560   7.177   4.245   3.985 -0.0812  0.3429 -2.3029
  109MOL    H6517561   7.209   4.363   3.906  0.3333 -0.1556 -0.3186
  109MOL    C6617562   0.131   4.449   4.058 -0.2840  0.0555  0.1047
  109MOL    C6717563   0.231   4.417   3.945  0.7884 -0.6191 -0.4119
  109MOL    N6817564   0.160   4.401   3.819 -0.2500  0.4880  0.5732
  109MOL    H6917565   0.091   4.550   4.055  0.8443  0.5121  0.2199
  109MOL    H7017566   0.204   4.454   4.138 -0.7666 -0.4740  0.5792
  109MOL    H7117567   0.287   4.324   3.957  2.4845  0.4348  0.0509
  109MOL    H7217568   0.208   4.369   3.736 -1.0964 -0.6368  0.5057
  109MOL    H7317569   0.107   4.316   3.831  0.3246 -0.0635 -0.7696
  109MOL    C7417570   0.335   4.535   3.927  0.6280 -0.0474  0.0488
  109MOL    C7517571   0.451   4.515   3.824  0.1825  0.8053  0.3025
  109MOL    N7617572   0.516   4.640   3.792 -0.9126  0.0564  0.2690
  109MOL    H7717573   0.277   4.625   3.908  0.3346 -0.2360  0.0469
  109MOL    H7817574   0.386   4.557   4.021 -1.8612 -0.0777  1.4461
  109MOL    H7917575   0.398   4.490   3.733  0.0149 -0.4346  0.7288
  109MOL    H8017576   0.451   4.715   3.773  1.3963  2.1577  0.3640
  109MOL    H8117577   0.553   4.628   3.699  1.4322  1.8292  0.9222
  109MOL    C8217578   0.547   4.400   3.867 -0.8559  0.1068 -0.2042
  109MOL    C8317579   0.623   4.316   3.755  0.5810  0.2116 -0.4282
  109MOL    N8417580   0.706   4.216   3.824 -0.2513 -0.0415  0.3305
  109MOL    H8517581   0.613   4.419   3.951  0.9177  0.6942 -1.7096
  109MOL    H8617582   0.482   4.322   3.908 -1.1125 -0.6831 -2.0669
  109MOL    H8717583   0.692   4.384   3.704  1.6376  0.3452  1.1155
  109MOL    H8817584   0.721   4.148   3.750 -2.7300  1.3345 -1.5547
  109MOL    H8917585   0.791   4.270   3.832  0.3174 -0.9883  0.7133
  109MOL    C9017586   0.531   4.246   3.652 -0.4002  0.1442  0.3093
  109MOL    C9117587   0.615   4.216   3.526 -0.4578  0.2496  0.4072
  109MOL    N9217588   0.584   4.083   3.474 -0.0433 -0.4888  0.3337
  109MOL    H9317589   0.475   4.160   3.689 -0.6728  1.1600  2.3126
  109MOL    H9417590   0.449   4.314   3.633 -0.3314  0.6645  1.7935
  109MOL    H9517591   0.718   4.228   3.560 -0.6130  0.4811  0.8036
  109MOL    H9617592   0.620   4.019   3.543 -1.1607 -0.0463  1.3365
  109MOL    H9717593   0.485   4.064   3.466 -0.3769  1.4955 -0.6304
  109MOL    C9817594   0.578   4.316   3.414 -0.3955 -1.0120 -0.4942
  109MOL    C9917595   0.607   4.465   3.443 -0.4962  0.7476  1.1679
  109MOL   N10017596   0.754   4.472   3.416 -0.7444  0.1645 -0.6456
  109MOL   H10117597   0.637   4.283   3.328 -1.3460  0.5705 -1.7705
  109MOL   H10217598   0.474   4.298   3.385 -0.9042 -0.9836  1.2503
  109MOL   H10317599   0.596   4.497   3.547 -0.4000  0.8951  1.1329
  109MOL   H10417600   0.781   4.566   3.392 -0.4520  0.4998  0.9756
  109MOL   H10517601   0.777   4.425   3.329  0.6206  0.7733 -0.6212
  109MOL   C10617602   0.527   4.561   3.360  0.5455 -0.8079 -0.8876
  109MOL   C10717603   0.377   4.571   3.416 -1.0068  0.3438  0.4761
  109MOL   N10817604   0.387   4.643   3.546  0.4898 -0.2758 -0.1888
  109MOL   H10917605   0.578   4.657   3.346  0.5768 -0.5769  0.7321
  109MOL   H11017606   0.526   4.511   3.263 -2.3596 -0.9642 -0.7961
  109MOL   H11117607   0.326   4.476   3.425  0.6379 -1.0858 -3.6781
  109MOL   H11217608   0.410   4.737   3.517  1.6467 -0.4151  0.2361
  109MOL   H11317609   0.300   4.646   3.598  0.3618 -4.1226 -0.0484
  109MOL   C11417610   0.300   4.662   3.321  0.7333  0.5874 -0.1397
  109MOL   C11517611   0.150   4.680   3.364 -0.0645  0.0698  0.0543
  109MOL   N11617612   0.101   4.779   3.264  0.6400  0.2829  0.0571
  109MOL   H11717613   0.346   4.761   3.314  0.4130  0.6823 -0.9742
  109MOL   H11817614   0.295   4.609   3.225  1.2652  1.5133 -0.6830
  109MOL   H11917615   0.140   4.707   3.469  0.1772 -0.4123  0.2058
  109MOL   H12017616   0.160   4.858   3.285  1.4395 -0.7102  1.5774
  109MOL   H12117617   0.119   4.755   3.167 -0.3718  1.3113 -0.4001
  109MOL   C12217618   0.062   4.560   3.342  0.7689  0.0333  0.7947
  109MOL   C12317619   7.194   4.575   3.374 -1.1487  0.5692  0.2846
  109MOL   N12417620   7.103   4.594   3.255  0.1295 -0.2603  0.2810
  109MOL   H12517621   0.078   4.547   3.235 -0.2944 -0.0503  0.6405
  109MOL   H12617622   0.110   4.474   3.389  2.1712 -0.1442 -0.9170
  109MOL   H12717623   7.192   4.666   3.433 -1.0081  1.2635 -0.7650
  109MOL   H12817624   7.027   4.653   3.286  0.8617  1.4317 -1.0835
  109MOL   H12917625   7.153   4.660   3.198 -3.2189  1.7538 -0.4864
  109MOL   C13017626   7.137   4.455   3.465  0.0806  0.6140  0.0328
  109MOL   C13117627   7.001   4.493   3.535 -0.0622 -0.2068  0.4198
  109MOL   N13217628   6.897   4.465   3.432 -0.7217  0.1137  0.3900
  109MOL   H13317629   7.129   4.360   3.412 -2.6871  0.0580  1.3597
  109MOL   H13417630   7.209   4.441   3.546  2.0979 -1.3623 -2.0592
  109MOL   H13517631   6.999   4.597   3.567 -3.0885  0.4512 -1.6659
  109MOL   H13617632   6.938   4.498   3.346  1.8022 -2.2894  0.5632
  109MOL   H13717633   6.866   4.369   3.424  1.2566 -0.4473 -1.0698
  109MOL   C13817634   6.976   4.403   3.666  0.2138 -0.4937 -0.6275
  109MOL   C13917635   6.829   4.388   3.714 -0.1033 -0.0552  0.3045
  109MOL   N14017636   6.834   4.304   3.832  0.3893  1.1020 -0.3940
  109MOL   H14117637   7.003   4.300   3.643  0.9494 -1.1151  2.6452
  109MOL   H14217638   7.024   4.448   3.753  1.0733 -0.0607 -1.3271
  109MOL   H14317639   6.769   4.334   3.640  0.6632  1.4876 -1.4760
  109MOL   H14417640   6.905   4.343   3.892 -0.4099  0.7652  0.7888
  109MOL   H14517641   6.747   4.306   3.884 -0.0740  0.6817 -1.1461
  109MOL   C14617642   6.769   4.520   3.750  0.1180 -0.5276  0.2211
  109MOL   C14717643   6.619   4.513   3.800 -0.3440 -0.1687  0.3257
  109MOL   N14817644   6.600   4.635   3.875 -0.1274  0.2705 -0.1302
  109MOL   H14917645   6.837   4.566   3.821  1.7608 -1.2347 -0.8774
  109MOL   H15017646   6.770   4.580   3.659  2.6391 -0.6390  0.1453
  109MOL   H15117647   6.617   4.423   3.861  1.8445 -0.2201  0.3672
  109MOL   H15217648   6.515   4.617   3.927  0.1539 -0.1611  0.1768
  109MOL   H15317649   6.671   4.637   3.947 -0.3768 -0.7583  0.1525
  109MOL   C15417650   6.522   4.492   3.685 -0.0506  0.0636 -0.2735
  109MOL   C15517651   6.488   4.347   3.666 -0.3978  0.0964 -0.2629
  109MOL   N15617652   6.380   4.336   3.569 -0.2148 -0.6896 -0.3351
  109MOL   H15717653   6.427   4.536   3.715 -0.1332 -0.4340  0.2133
  109MOL   H15817654   6.554   4.549   3.598  0.6672  0.8144  0.4716
  109MOL   H15917655   6.445   4.314   3.761 -0.7709  2.3702  0.3919
  109MOL   H16017656   6.414   4.358   3.476 -0.5052 -1.0768 -0.5350
  109MOL   H16117657   6.354   4.240   3.553  0.5412 -0.6871 -1.6557
  109MOL   H16217658   6.576   4.286   3.643  0.1695  0.5146  0.7928
  110MOL     C117659   4.204   1.781   5.295 -0.5516  0.2208 -0.2722
  110MOL     C217660   4.141   1.847   5.167  0.6211  0.0360  0.6084
  110MOL     N317661   4.055   1.741   5.102 -0.0919 -0.5424 -0.7597
  110MOL     H417662   4.273   1.698   5.280  2.1554  2.0470  1.4356
  110MOL     H517663   4.127   1.747   5.364 -0.1531 -2.2029 -0.9698
  110MOL     H617664   4.222   1.874   5.100  0.5927 -1.7566 -0.1724
  110MOL     H717665   3.999   1.787   5.031 -0.7922 -0.9358 -0.4677
  110MOL     H817666   4.115   1.680   5.049 -0.2729 -0.1777 -1.3912
  110MOL     H917667   4.265   1.855   5.347 -0.0226 -0.1781 -0.3243
  110MOL    C1017668   4.048   1.971   5.195  0.2473  0.4535  0.3439
  110MOL    C1117669   4.102   2.104   5.138  1.0466 -0.3038 -0.5570
  110MOL    N1217670   3.998   2.209   5.143 -0.2909  0.3018  0.4038
  110MOL    H1317671   3.952   1.952   5.146  0.5561 -0.2386  0.0059
  110MOL    H1417672   4.027   1.988   5.301 -1.8866  2.9216 -0.4067
  110MOL    H1517673   4.121   2.083   5.032 -1.2351 -1.7477 -0.7205
  110MOL    H1617674   4.017   2.296   5.094  1.7566 -0.9634 -1.1540
  110MOL    H1717675   3.986   2.247   5.236 -1.9785  0.3204  0.1993
  110MOL    C1817676   4.225   2.160   5.220  0.7308  0.3747  0.1856
  110MOL    C1917677   4.366   2.121   5.162 -0.7887 -0.3524 -0.4889
  110MOL    N2017678   4.388   2.200   5.048 -0.0073  0.3744 -0.4024
  110MOL    H2117679   4.221   2.268   5.229  0.8870  0.1342  3.7230
  110MOL    H2217680   4.222   2.122   5.322 -0.9294  0.1336  0.0621
  110MOL    H2317681   4.381   2.018   5.129  0.7396 -0.2285 -0.2154
  110MOL    H2417682   4.301   2.190   4.998 -0.9824 -0.9918  1.4849
  110MOL    H2517683   4.450   2.145   4.990 -2.5028 -1.1156 -1.7683
  110MOL    C2617684   4.486   2.165   5.254 -0.3602  0.5090 -1.1520
  110MOL    C2717685   4.610   2.069   5.253  0.3677 -0.1102  0.7417
  110MOL    N2817686   4.718   2.139   5.319  0.1423 -0.6876  0.8643
  110MOL    H2917687   4.517   2.266   5.228  0.3012 -0.1940 -3.1893
  110MOL    H3017688   4.454   2.160   5.358  1.0239 -0.3124 -0.7441
  110MOL    H3117689   4.634   2.051   5.149 -3.3126  1.6353 -0.4745
  110MOL    H3217690   4.694   2.223   5.369  0.2078 -0.2252  0.1235
  110MOL    H3317691   4.780   2.160   5.242 -1.3583 -2.0999 -0.7762
  110MOL    C3417692   4.576   1.946   5.335 -0.4889  0.5908 -0.0610
  110MOL    C3517693   4.693   1.846   5.347  0.7089 -0.3305 -0.0018
  110MOL    N3617694   4.653   1.744   5.442 -0.3262 -0.0584 -0.1240
  110MOL    H3717695   4.559   1.976   5.438 -0.9882  0.7937 -0.2044
  110MOL    H3817696   4.482   1.902   5.302  0.9394 -2.4677 -0.2267
  110MOL    H3917697   4.776   1.898   5.395 -0.2093 -1.0576  2.4311
  110MOL    H4017698   4.612   1.778   5.528 -0.2427 -2.9237  1.1044
  110MOL    H4117699   4.582   1.682   5.406 -1.2719  0.9720 -0.0444
  110MOL    C4217700   4.740   1.781   5.207 -0.5023 -1.0588  0.2408
  110MOL    C4317701   4.644   1.718   5.105 -0.0116 -0.4728  0.1918
  110MOL    N4417702   4.720   1.679   4.980  0.0284  0.1942  0.0559
  110MOL    H4517703   4.802   1.851   5.151 -1.1363 -0.5709  0.1423
  110MOL    H4617704   4.808   1.700   5.235  0.0505 -0.7802 -0.2678
  110MOL    H4717705   4.578   1.798   5.070  3.0418  1.6570 -0.9190
  110MOL    H4817706   4.666   1.640   4.905 -1.0138 -0.2354  1.0100
  110MOL    H4917707   4.749   1.767   4.941  2.5563 -0.9306 -0.7394
  110MOL    C5017708   4.562   1.594   5.156  0.1290 -0.5670 -0.2956
  110MOL    C5117709   4.487   1.528   5.039 -0.2552  0.6961 -0.1982
  110MOL    N5217710   4.414   1.417   5.098 -0.7385 -0.2070  0.6695
  110MOL    H5317711   4.628   1.530   5.214  2.7575  2.2863  0.0302
  110MOL    H5417712   4.485   1.632   5.223  0.1011 -1.0645 -0.0504
  110MOL    H5517713   4.566   1.496   4.971  1.8413  0.6824  2.1323
  110MOL    H5617714   4.482   1.352   5.136 -0.0645 -0.1890 -0.4995
  110MOL    H5717715   4.380   1.374   5.014  0.9955 -1.0881  0.3977
  110MOL    C5817716   4.370   1.612   4.976  0.2392 -0.0995 -0.0182
  110MOL    C5917717   4.331   1.556   4.831 -0.0008  0.1503 -0.5478
  110MOL    N6017718   4.204   1.607   4.798  0.6379  0.4785 -0.1229
  110MOL    H6117719   4.282   1.625   5.039  0.3455  1.7162 -0.2357
  110MOL    H6217720   4.401   1.716   4.967 -0.0833 -0.0836 -1.0342
  110MOL    H6317721   4.311   1.450   4.818 -0.5174  0.4726 -2.5792
  110MOL    H6417722   4.199   1.606   4.697  2.1540 -1.0103 -0.2012
  110MOL    H6517723   4.134   1.539   4.826 -0.7316  2.2457  0.8251
  110MOL    C6617724   4.427   1.599   4.717 -0.0048  0.0376 -0.8689
  110MOL    C6717725   4.413   1.515   4.586 -0.1921  0.3386 -0.4402
  110MOL    N6817726   4.480   1.580   4.479 -0.6158  0.4850  0.5445
  110MOL    H6917727   4.417   1.706   4.699  3.2897  0.1554 -2.2158
  110MOL    H7017728   4.531   1.594   4.749 -0.0002 -1.4773 -1.0881
  110MOL    H7117729   4.305   1.518   4.569 -0.6770  1.0161  2.5172
  110MOL    H7217730   4.454   1.677   4.480 -1.3350  0.2953  0.9460
  110MOL    H7317731   4.440   1.553   4.390  0.1344 -0.4192  0.4766
  110MOL    C7417732   4.454   1.372   4.607 -0.0140  0.2938  0.0682
  110MOL    C7517733   4.367   1.258   4.553  0.1036  0.4990  0.3287
  110MOL    N7617734   4.455   1.145   4.551 -0.5242 -0.3268  0.1550
  110MOL    H7717735   4.559   1.365   4.580  0.1236  1.4586  0.2664
  110MOL    H7817736   4.458   1.353   4.714  1.1169  1.2486  0.2156
  110MOL    H7917737   4.338   1.280   4.451  2.0367 -0.4418 -0.4457
  110MOL    H8017738   4.479   1.143   4.649  0.1094  0.7290  0.0272
  110MOL    H8117739   4.402   1.059   4.543 -1.3056  0.1297  0.4725
  110MOL    C8217740   4.244   1.229   4.640 -0.8676  0.0115 -0.0541
  110MOL    C8317741   4.147   1.131   4.579 -0.5749  0.8552 -0.2714
  110MOL    N8417742   4.051   1.099   4.685 -0.3763  0.7914 -0.3588
  110MOL    H8517743   4.281   1.210   4.741  2.9313  0.7473 -1.2073
  110MOL    H8617744   4.197   1.325   4.663  1.3959  1.2844 -0.6022
  110MOL    H8717745   4.193   1.033   4.569  0.6616  1.4627 -0.5961
  110MOL    H8817746   3.988   1.024   4.657  0.8179 -0.0548 -0.8065
  110MOL    H8917747   4.094   1.066   4.770  2.1151  1.6841 -1.2517
  110MOL    C9017748   4.076   1.172   4.449  0.1569  0.2356  0.9337
  110MOL    C9117749   4.077   1.057   4.349 -0.0960  0.0468  0.2601
  110MOL    N9217750   3.984   1.093   4.246 -0.2536  0.0934 -0.7803
  110MOL    H9317751   3.972   1.199   4.469  0.0154  0.6679 -0.3396
  110MOL    H9417752   4.125   1.262   4.412  2.8634 -0.4268  2.7862
  110MOL    H9517753   4.048   0.957   4.382  0.0746  0.5915  2.0777
  110MOL    H9617754   3.894   1.119   4.284  0.4238  0.7153  0.4033
  110MOL    H9717755   3.977   1.034   4.164  1.5431  0.0544 -0.9204
  110MOL    C9817756   4.219   1.045   4.286 -0.0986 -0.0300  0.1435
  110MOL    C9917757   4.250   0.943   4.174 -0.5868 -0.6368 -0.6667
  110MOL   N10017758   4.389   0.966   4.131 -0.2630 -0.3376  0.2136
  110MOL   H10117759   4.269   1.139   4.265 -0.1629 -0.1282 -0.4667
  110MOL   H10217760   4.276   1.013   4.373 -1.8140  0.0034  1.3053
  110MOL   H10317761   4.189   0.963   4.086 -1.0481  2.7109  0.3372
  110MOL   H10417762   4.385   1.064   4.106 -3.1884 -0.5207 -0.1420
  110MOL   H10517763   4.396   0.919   4.042  0.5165  1.2459 -0.5972
  110MOL   C10617764   4.248   0.797   4.224  0.9528 -0.0917  0.4790
  110MOL   C10717765   4.276   0.683   4.120  0.5673  0.7949  0.8426
  110MOL   N10817766   4.325   0.561   4.188  0.3495  0.6653 -0.4760
  110MOL   H10917767   4.334   0.788   4.290  0.1957 -1.2865  1.3200
  110MOL   H11017768   4.166   0.774   4.291  0.3105 -1.4887 -0.7583
  110MOL   H11117769   4.354   0.708   4.048  0.5179  0.9440  0.8391
  110MOL   H11217770   4.402   0.583   4.249 -1.2679  2.0520  1.1471
  110MOL   H11317771   4.363   0.495   4.122  0.6016 -0.5934  0.9130
  110MOL   C11417772   4.148   0.651   4.038 -0.1512  0.4713 -0.2366
  110MOL   C11517773   4.161   0.551   3.919 -0.6135  0.4229 -0.0329
  110MOL   N11617774   4.033   0.511   3.873 -0.1657  0.3042 -0.3858
  110MOL   H11717775   4.072   0.621   4.110  0.4311  2.3671  1.2134
  110MOL   H11817776   4.099   0.743   4.007 -0.6733  0.5233  0.7037
  110MOL   H11917777   4.225   0.465   3.943 -1.4269 -0.3816 -0.7072
  110MOL   H12017778   4.040   0.422   3.825  0.5601  0.5561 -0.7526
  110MOL   H12117779   3.989   0.464   3.951  0.6315 -0.6439 -0.4893
  110MOL   C12217780   4.239   0.609   3.800  0.0791  0.5145 -0.3729
  110MOL   C12317781   4.293   0.499   3.707  0.9883 -0.2999  0.1885
  110MOL   N12417782   4.231   0.510   3.574  0.0863  0.1720  0.2488
  110MOL   H12517783   4.166   0.671   3.749  0.0807  2.3006  1.6945
  110MOL   H12617784   4.323   0.672   3.832  1.6436 -1.2481 -0.9403
  110MOL   H12717785   4.254   0.410   3.755  1.4570  0.7898  2.6431
  110MOL   H12817786   4.273   0.447   3.507  1.8154  1.5635 -0.0181
  110MOL   H12917787   4.133   0.485   3.579  0.0907  0.4976  2.8192
  110MOL   C13017788   4.443   0.491   3.701  0.9076 -0.1992  0.4867
  110MOL   C13117789   4.516   0.496   3.834  0.2397  0.5159 -0.1208
  110MOL   N13217790   4.455   0.408   3.934  0.2338  0.2221 -0.2452
  110MOL   H13317791   4.467   0.395   3.655 -0.0968 -0.3123  0.1944
  110MOL   H13417792   4.474   0.572   3.634 -3.0120  0.2618 -0.9063
  110MOL   H13517793   4.505   0.595   3.879 -0.5257  1.1911 -1.7446
  110MOL   H13617794   4.515   0.397   4.015 -0.1378  0.7674  0.1005
  110MOL   H13717795   4.453   0.317   3.891 -1.0063  0.0342  0.1799
  110MOL   C13817796   4.666   0.452   3.821  0.9085  0.1295 -0.0925
  110MOL   C13917797   4.762   0.531   3.907  0.6848 -0.1312  0.4964
  110MOL   N14017798   4.894   0.480   3.887 -0.6668  0.0939 -0.5296
  110MOL   H14117799   4.661   0.346   3.849 -0.9409 -0.0263 -0.9450
  110MOL   H14217800   4.694   0.441   3.717 -0.4689  0.0309 -0.4619
  110MOL   H14317801   4.743   0.524   4.014  1.3838  1.6008  0.7512
  110MOL   H14417802   4.898   0.425   3.971 -1.3353 -1.2547 -1.3558
  110MOL   H14517803   4.972   0.541   3.907 -0.7506 -0.3411  1.2123
  110MOL   C14617804   4.778   0.686   3.874 -0.7192 -0.7921  0.1147
  110MOL   C14717805   4.805   0.760   4.003 -0.3781  0.1977  0.3035
  110MOL   N14817806   4.846   0.899   3.974 -0.2029  0.2531 -0.2267
  110MOL   H14917807   4.853   0.714   3.800  1.2106  0.2589  2.4351
  110MOL   H15017808   4.685   0.727   3.833  0.8946  1.8759 -1.0424
  110MOL   H15117809   4.871   0.709   4.073  1.6648  2.8221  0.3404
  110MOL   H15217810   4.878   0.954   4.052  1.8864 -0.9619 -0.1910
  110MOL   H15317811   4.754   0.935   3.957  0.4167  0.7597 -2.6717
  110MOL   C15417812   4.680   0.778   4.092  0.3957  0.5090  0.3249
  110MOL   C15517813   4.714   0.782   4.242  0.2990 -0.2775 -0.1706
  110MOL   N15617814   4.587   0.772   4.306 -0.9461  0.4187  0.4261
  110MOL   H15717815   4.617   0.860   4.058 -1.2515  0.5043  3.2249
  110MOL   H15817816   4.623   0.685   4.081  1.3325 -0.0246 -0.1576
  110MOL   H15917817   4.787   0.859   4.269  1.0934 -0.1460 -2.6420
  110MOL   H16017818   4.584   0.852   4.369 -2.2097  1.0095 -0.3657
  110MOL   H16117819   4.516   0.801   4.240 -1.3823 -0.6703  0.4150
  110MOL   H16217820   4.765   0.692   4.275  0.6769  0.2044  0.5921
  111MOL     C117821   4.443   1.596   0.092  0.1737 -0.1322  0.1161
  111MOL     C217822   4.533   1.605   7.235 -1.0722  0.6110  0.4219
  111MOL     N317823   4.476   1.517   7.140 -0.2755 -0.4214  0.5895
  111MOL     H417824   4.340   1.624   0.071  0.0351  0.0304  1.0123
  111MOL     H517825   4.468   1.674   0.164  1.0192 -0.2322 -0.0663
  111MOL     H617826   4.633   1.572   7.261 -0.8417  1.2678  0.3565
  111MOL     H717827   4.488   1.428   7.186  2.3801 -0.1449  0.5066
  111MOL     H817828   4.547   1.518   7.068 -1.4747 -1.1673 -0.6348
  111MOL     H917829   4.426   1.505   0.149 -2.7428  0.2857  0.0088
  111MOL    C1017830   4.547   1.746   7.178 -0.6922 -0.2178 -0.0983
  111MOL    C1117831   4.624   1.839   0.000 -0.4929  0.0358  0.2023
  111MOL    N1217832   4.756   1.779   0.017  0.1725  0.8620  0.0412
  111MOL    H1317833   4.607   1.743   7.087 -1.0809 -0.9176 -0.3371
  111MOL    H1417834   4.451   1.782   7.142 -0.7726 -1.2745 -0.9674
  111MOL    H1517835   4.580   1.845   0.100  0.7436  0.1891  0.7498
  111MOL    H1617836   4.818   1.848   0.057  0.3749  0.9909 -0.4905
  111MOL    H1717837   4.743   1.705   0.085 -0.4252  1.4384  0.5619
  111MOL    C1817838   4.649   1.980   7.223  0.1916  0.0913 -0.2424
  111MOL    C1917839   4.528   2.076   7.227 -0.6920 -0.9654  0.0583
  111MOL    N2017840   4.501   2.117   0.090  1.1744 -0.0194 -0.2230
  111MOL    H2117841   4.721   2.040   0.002  0.2671  0.3972 -0.6718
  111MOL    H2217842   4.682   1.971   7.120 -1.5106  0.5923 -0.8603
  111MOL    H2317843   4.447   2.013   7.192 -0.1342 -3.4227  2.9843
  111MOL    H2417844   4.555   2.079   0.166 -2.3477  0.2846  2.5832
  111MOL    H2517845   4.414   2.068   0.106 -0.4973  2.5291 -1.1135
  111MOL    C2617846   4.554   2.205   7.149 -0.6751 -0.0665 -0.0542
  111MOL    C2717847   4.544   2.186   6.999 -0.2086  0.2624 -0.3561
  111MOL    N2817848   4.407   2.174   6.968  0.2680  0.9671 -0.2824
  111MOL    H2917849   4.491   2.289   7.177  2.2875  1.8444  1.1541
  111MOL    H3017850   4.656   2.231   7.178  0.2248 -0.9647 -2.2740
  111MOL    H3117851   4.600   2.096   6.976 -0.6017 -0.0761 -0.0027
  111MOL    H3217852   4.381   2.158   6.872 -2.3746  2.5206  0.0970
  111MOL    H3317853   4.360   2.261   6.992  1.2473  1.6225 -0.6883
  111MOL    C3417854   4.601   2.310   6.924  0.2809  0.1341  0.6062
  111MOL    C3517855   4.752   2.322   6.934  0.4172  0.1561 -0.1740
  111MOL    N3617856   4.820   2.194   6.915 -0.1114  0.0472 -0.2291
  111MOL    H3717857   4.569   2.311   6.820 -1.5901 -1.3460  1.1218
  111MOL    H3817858   4.555   2.400   6.966  0.3518 -0.4809  2.0533
  111MOL    H3917859   4.785   2.357   7.031  0.7707 -0.8788  0.0775
  111MOL    H4017860   4.785   2.135   6.989 -0.8861 -2.4643 -2.5370
  111MOL    H4117861   4.918   2.206   6.936 -0.7978  0.3843  3.1786
  111MOL    C4217862   4.809   2.421   6.824 -0.0529 -0.1615 -0.5114
  111MOL    C4317863   4.762   2.571   6.850  0.1465  0.3159 -0.0300
  111MOL    N4417864   4.824   2.624   6.971  0.0419  0.2205 -0.4282
  111MOL    H4517865   4.917   2.420   6.816  0.0258  2.0528  0.1422
  111MOL    H4617866   4.771   2.377   6.731 -1.3112  0.1700 -0.1621
  111MOL    H4717867   4.656   2.560   6.872 -0.0212 -2.1125 -1.8280
  111MOL    H4817868   4.921   2.597   6.982  0.1145  0.7466  0.2546
  111MOL    H4917869   4.778   2.575   7.047 -0.0025 -0.0716 -0.6449
  111MOL    C5017870   4.786   2.661   6.719  1.3247  0.1824  0.4623
  111MOL    C5117871   4.731   2.594   6.588  0.4248 -0.1112  0.0594
  111MOL    N5217872   4.592   2.562   6.616 -0.3639 -0.3283  0.1900
  111MOL    H5317873   4.729   2.753   6.732 -1.9388 -1.6404 -0.3922
  111MOL    H5417874   4.889   2.691   6.699  1.3362  0.3160  0.7088
  111MOL    H5517875   4.777   2.497   6.570  1.2295  0.0414  1.1886
  111MOL    H5617876   4.557   2.503   6.541  2.1801 -1.7759  0.0902
  111MOL    H5717877   4.585   2.505   6.700 -0.8815  0.7990  0.9198
  111MOL    C5817878   4.740   2.696   6.468  0.5469 -0.0597  0.5461
  111MOL    C5917879   4.877   2.714   6.396 -0.1382  0.5204  0.2406
  111MOL    N6017880   4.904   2.592   6.319  0.1278 -0.0286 -0.2504
  111MOL    H6117881   4.670   2.669   6.389  1.7472  1.4387 -1.0532
  111MOL    H6217882   4.694   2.791   6.497 -0.9620  0.2345 -2.5893
  111MOL    H6317883   4.947   2.712   6.479  0.5955 -0.4927 -0.3908
  111MOL    H6417884   4.992   2.602   6.270  0.2053 -0.5383 -0.2185
  111MOL    H6517885   4.933   2.526   6.390 -2.7565  0.1428  1.1206
  111MOL    C6617886   4.886   2.847   6.321 -0.8066 -0.2482  0.5941
  111MOL    C6717887   4.918   2.974   6.411  0.1180  0.6590  0.1242
  111MOL    N6817888   5.060   2.994   6.403 -0.0275  0.4961  0.3149
  111MOL    H6917889   4.971   2.836   6.254 -1.0788  1.5008 -0.0530
  111MOL    H7017890   4.796   2.864   6.262  0.8105 -2.5697 -2.6934
  111MOL    H7117891   4.902   2.954   6.517  0.1599  3.2745  0.6463
  111MOL    H7217892   5.068   3.040   6.313 -2.1985 -1.6926 -1.0678
  111MOL    H7317893   5.088   3.056   6.477 -1.0442  1.3165  0.0231
  111MOL    C7417894   4.850   3.102   6.352  0.2809  0.4585  0.3124
  111MOL    C7517895   4.703   3.108   6.397 -0.0264  0.6236 -0.1167
  111MOL    N7617896   4.698   3.180   6.518  0.3037 -0.4051  0.1519
  111MOL    H7717897   4.901   3.186   6.398  0.5123 -0.2537  1.3838
  111MOL    H7817898   4.856   3.108   6.244  0.0029 -0.8506  0.2123
  111MOL    H7917899   4.662   3.011   6.425 -0.2688  0.3266 -1.4708
  111MOL    H8017900   4.764   3.256   6.515  0.1143 -0.2577 -0.2429
  111MOL    H8117901   4.736   3.124   6.594 -0.3962 -2.3394 -0.8770
  111MOL    C8217902   4.605   3.168   6.303 -0.3087 -0.9690  0.1436
  111MOL    C8317903   4.459   3.124   6.327  0.1566  0.4037 -0.2039
  111MOL    N8417904   4.372   3.203   6.242 -0.2082  0.1114  0.4331
  111MOL    H8517905   4.623   3.276   6.306 -2.4922 -0.6177  2.2218
  111MOL    H8617906   4.629   3.147   6.199  2.2722  0.1817  0.4514
  111MOL    H8717907   4.439   3.149   6.431 -2.9267  1.4273 -1.0111
  111MOL    H8817908   4.281   3.170   6.271 -0.2963  0.0215  0.0477
  111MOL    H8917909   4.379   3.180   6.144 -0.9092 -1.6494  0.7710
  111MOL    C9017910   4.429   2.971   6.285 -0.1845  0.1791 -0.6128
  111MOL    C9117911   4.335   2.907   6.385 -0.1249 -1.4155 -0.2515
  111MOL    N9217912   4.275   2.790   6.328 -0.3991 -0.4701  0.4194
  111MOL    H9317913   4.404   2.951   6.181 -1.0642 -0.0827 -0.3595
  111MOL    H9417914   4.519   2.910   6.292  1.3670  2.6380  1.5432
  111MOL    H9517915   4.259   2.979   6.414  1.6169  0.6951 -0.7854
  111MOL    H9617916   4.250   2.797   6.230 -0.4393 -0.7364  0.4115
  111MOL    H9717917   4.186   2.774   6.372  0.9175 -0.1564  3.3120
  111MOL    C9817918   4.416   2.868   6.508  0.4755  0.1378  0.1885
  111MOL    C9917919   4.334   2.851   6.643  0.1576  0.3523 -0.4420
  111MOL   N10017920   4.415   2.763   6.724 -0.0219 -0.1141  0.2699
  111MOL   H10117921   4.487   2.787   6.494  1.3865  0.9245  0.1762
  111MOL   H10217922   4.482   2.953   6.525  0.2317  0.3721 -0.0341
  111MOL   H10317923   4.246   2.793   6.615  0.7568  0.7467 -3.3739
  111MOL   H10417924   4.455   2.686   6.672  0.1004 -1.3371  2.1321
  111MOL   H10517925   4.488   2.823   6.758 -1.4005  3.1190 -2.2233
  111MOL   C10617926   4.299   2.988   6.704 -0.3621 -0.1704 -0.1454
  111MOL   C10717927   4.178   3.000   6.799 -0.0456 -0.3831 -0.4536
  111MOL   N10817928   4.172   3.133   6.862 -0.3232 -0.2870 -0.2066
  111MOL   H10917929   4.389   3.016   6.759 -1.9596  0.7344  2.0975
  111MOL   H11017930   4.297   3.060   6.623  1.8579  1.1131  0.8981
  111MOL   H11117931   4.188   2.937   6.888 -0.1453  1.8377  1.1819
  111MOL   H11217932   4.109   3.125   6.940 -0.1374 -0.2564 -0.0533
  111MOL   H11317933   4.257   3.147   6.915 -0.4702  2.7213 -0.6689
  111MOL   C11417934   4.039   2.963   6.742  0.5241 -0.5300  0.4520
  111MOL   C11517935   3.927   2.910   6.840 -0.5967 -0.2858  0.1415
  111MOL   N11617936   3.800   2.919   6.767 -0.0608 -0.2769  0.1227
  111MOL   H11717937   3.996   3.049   6.689 -0.0761 -1.6266 -0.8638
  111MOL   H11817938   4.055   2.884   6.670 -1.9667 -0.8483  0.1789
  111MOL   H11917939   3.931   2.981   6.922 -0.8715  0.6916 -0.6870
  111MOL   H12017940   3.720   2.895   6.823 -0.7838  0.9709 -0.3614
  111MOL   H12117941   3.780   3.014   6.739 -0.0875 -0.2763  0.1442
  111MOL   C12217942   3.954   2.762   6.883 -0.4420  0.1081 -0.3959
  111MOL   C12317943   3.926   2.738   7.036 -0.1853  0.1562 -0.1483
  111MOL   N12417944   4.027   2.800   7.116 -0.7274  0.1786  0.4422
  111MOL   H12517945   3.899   2.692   6.820 -2.0684 -0.4789  1.6047
  111MOL   H12617946   4.059   2.739   6.863 -0.1281  1.1240  0.0653
  111MOL   H12717947   3.940   2.634   7.065 -2.4210  0.2199  1.2889
  111MOL   H12817948   4.120   2.762   7.098 -0.4560  0.3933  1.3711
  111MOL   H12917949   3.998   2.768   7.207  1.3945 -0.6549  0.8742
  111MOL   C13017950   3.784   2.794   7.076  0.2759  0.3771  0.6637
  111MOL   C13117951   3.668   2.695   7.044 -0.2224  0.0984  0.2927
  111MOL   N13217952   3.677   2.579   7.131 -0.9211 -0.1986  0.1626
  111MOL   H13317953   3.770   2.802   7.183 -0.7069  2.0775  0.4251
  111MOL   H13417954   3.757   2.897   7.054 -3.1440 -0.9052 -1.7822
  111MOL   H13517955   3.690   2.655   6.945 -0.5561 -0.7593  0.5612
  111MOL   H13617956   3.673   2.620   7.223 -3.1396  0.6683 -0.2920
  111MOL   H13717957   3.594   2.522   7.139 -1.5232  0.3604 -1.9403
  111MOL   C13817958   3.530   2.763   7.059  0.2827  0.2557  0.3914
  111MOL   C13917959   3.505   2.873   6.947  0.1940 -0.3223  0.3975
  111MOL   N14017960   3.499   2.819   6.813 -0.7125 -0.6453 -0.4639
  111MOL   H14117961   3.449   2.695   7.084  1.1396 -1.3556 -1.1578
  111MOL   H14217962   3.539   2.828   7.146 -0.5489  1.7933 -0.6421
  111MOL   H14317963   3.577   2.955   6.946 -1.3283  1.0483 -1.1972
  111MOL   H14417964   3.519   2.896   6.752 -2.2159 -1.1290 -1.5919
  111MOL   H14517965   3.409   2.786   6.784  0.0242 -0.9507 -2.4286
  111MOL   C14617966   3.363   2.939   6.957  0.2317 -0.0144 -0.0945
  111MOL   C14717967   3.342   3.044   7.066 -0.2051 -0.6436  0.7393
  111MOL   N14817968   3.273   3.159   7.019  0.4420 -0.0446  0.4007
  111MOL   H14917969   3.350   2.995   6.865  2.9817 -0.0018 -0.5200
  111MOL   H15017970   3.279   2.869   6.952  0.9777 -0.9075 -0.3335
  111MOL   H15117971   3.440   3.078   7.102  0.2680 -0.2386 -0.8918
  111MOL   H15217972   3.178   3.129   7.004  0.1843  0.3147  1.3328
  111MOL   H15317973   3.308   3.177   6.926 -0.3051 -1.0317 -0.0781
  111MOL   C15417974   3.259   2.989   7.187 -0.5292  0.3628 -0.9662
  111MOL   C15517975   3.329   2.918   0.025  0.0463  0.1765 -0.3636
  111MOL   N15617976   3.248   2.915   0.145 -0.4101  0.4175 -0.1124
  111MOL   H15717977   3.208   3.073   7.234  0.8480  0.5451  0.2663
  111MOL   H15817978   3.178   2.926   7.151  0.1251 -2.6799  2.5436
  111MOL   H15917979   3.421   2.971   0.049  1.3192 -1.5975 -1.2595
  111MOL   H16017980   3.312   2.882   0.215  1.3928 -1.8020 -2.7219
  111MOL   H16117981   3.217   3.002   0.186  1.2818  0.8176  0.3680
  111MOL   H16217982   3.336   2.817   7.260  0.9683 -0.6351  1.7320
  112MOL     C117983   3.165   5.637   1.986  0.0362 -0.1410 -0.3358
  112MOL     C217984   3.024   5.604   1.921  0.3887  0.0591 -0.4585
  112MOL     N317985   2.965   5.505   2.006  0.1700  0.2641  0.7318
  112MOL     H417986   3.241   5.676   1.918  1.2788 -0.9525  0.5632
  112MOL     H517987   3.209   5.550   2.034  0.8399 -0.4336 -1.5792
  112MOL     H617988   3.048   5.545   1.832  1.9518 -0.3478  0.2095
  112MOL     H717989   2.911   5.545   2.082 -0.1929 -1.9129  1.6595
  112MOL     H817990   2.900   5.460   1.943 -0.7929  0.3451  1.6436
  112MOL     H917991   3.156   5.730   2.042 -0.4723 -0.2676 -0.2048
  112MOL    C1017992   2.931   5.716   1.880 -0.0670 -0.4824  0.0553
  112MOL    C1117993   2.990   5.823   1.777  0.0854 -0.3078 -0.7176
  112MOL    N1217994   2.872   5.864   1.704  0.7627 -0.1943 -0.1223
  112MOL    H1317995   2.833   5.680   1.849  0.2870 -0.6092 -0.9296
  112MOL    H1417996   2.911   5.770   1.973 -0.7754  0.3681 -0.5868
  112MOL    H1517997   3.066   5.771   1.718  0.6162  0.5841 -0.8189
  112MOL    H1617998   2.847   5.953   1.745  2.5203  0.6549 -0.8622
  112MOL    H1717999   2.910   5.902   1.619 -1.9843  1.8105 -0.5387
  112MOL    C1818000   3.069   5.946   1.847  0.1119 -1.0680  0.1608
  112MOL    C1918001   2.976   6.050   1.924 -0.3359  0.0845  0.2901
  112MOL    N2018002   3.042   6.079   2.051 -0.0446 -0.0312 -0.3196
  112MOL    H2118003   3.157   5.909   1.900  1.8777  1.5923 -0.8068
  112MOL    H2218004   3.109   5.997   1.760 -2.3511  0.6766 -0.0050
  112MOL    H2318005   2.880   5.999   1.938 -0.6773  0.1782 -1.5734
  112MOL    H2418006   3.015   6.170   2.087 -1.7185  0.2412 -2.1580
  112MOL    H2518007   3.000   6.008   2.109 -4.4605  0.9564 -2.0863
  112MOL    C2618008   2.974   6.190   1.841  0.0339  0.0972 -0.5006
  112MOL    C2718009   2.890   6.190   1.709  0.0061 -0.0971 -0.1589
  112MOL    N2818010   2.756   6.160   1.757  0.0189  0.2049  0.2115
  112MOL    H2918011   2.947   6.275   1.903 -1.3642  0.1387 -1.1585
  112MOL    H3018012   3.078   6.212   1.816 -0.4783  3.9015  0.4593
  112MOL    H3118013   2.937   6.122   1.637  0.4484 -1.7355  1.6474
  112MOL    H3218014   2.739   6.224   1.833 -1.4255  0.2572 -0.1476
  112MOL    H3318015   2.684   6.182   1.689 -1.8068  0.6239  2.2461
  112MOL    C3418016   2.885   6.332   1.655  0.2432  0.0219  0.0297
  112MOL    C3518017   2.812   6.355   1.531 -0.1286  0.4385 -0.8618
  112MOL    N3618018   2.791   6.499   1.504  0.1645 -0.2462 -0.3369
  112MOL    H3718019   2.850   6.408   1.725  3.3751 -0.0636  1.7710
  112MOL    H3818020   2.988   6.368   1.653  0.8090 -1.5663 -0.2649
  112MOL    H3918021   2.712   6.315   1.546 -0.7086  1.9099 -0.7125
  112MOL    H4018022   2.732   6.511   1.422 -0.9332  0.6072  0.5665
  112MOL    H4118023   2.880   6.541   1.484  0.1105  0.4892  0.9310
  112MOL    C4218024   2.874   6.286   1.401 -0.6297 -0.0473  0.6840
  112MOL    C4318025   2.788   6.315   1.272 -0.5702  0.4302 -0.3731
  112MOL    N4418026   2.865   6.266   1.153  0.3345  0.2368  0.5740
  112MOL    H4518027   2.969   6.328   1.367 -1.3885 -0.5619 -2.2470
  112MOL    H4618028   2.896   6.180   1.415  1.2389  0.2806  0.3135
  112MOL    H4718029   2.778   6.423   1.262 -3.4291  0.3297  0.9718
  112MOL    H4818030   2.832   6.171   1.146  1.1982 -0.0014 -0.2853
  112MOL    H4918031   2.824   6.316   1.075  0.8223  0.7153  0.6167
  112MOL    C5018032   2.644   6.270   1.281 -0.1815  0.6158 -0.5010
  112MOL    C5118033   2.619   6.122   1.292  0.9508  0.0232  0.3732
  112MOL    N5218034   2.663   6.073   1.418  0.0476 -0.1432 -0.2288
  112MOL    H5318035   2.598   6.328   1.360 -1.7958 -0.0689 -0.9284
  112MOL    H5418036   2.589   6.302   1.193 -0.2862 -2.6120 -1.6687
  112MOL    H5518037   2.663   6.062   1.212  0.2934  0.0464 -0.0101
  112MOL    H5618038   2.639   5.975   1.416  0.4029 -0.2855  1.4705
  112MOL    H5718039   2.608   6.101   1.498  0.0952 -0.9676  0.1032
  112MOL    C5818040   2.466   6.096   1.294  0.4657  0.0177  0.0914
  112MOL    C5918041   2.414   5.960   1.248  0.5350  0.5345 -0.3340
  112MOL    N6018042   2.274   5.938   1.289  0.1442 -0.0271 -0.0355
  112MOL    H6118043   2.432   6.110   1.397  0.3284 -0.1368  0.0677
  112MOL    H6218044   2.409   6.172   1.242 -1.1829 -1.9613 -1.0473
  112MOL    H6318045   2.459   5.883   1.311 -0.6499 -0.0647 -0.2261
  112MOL    H6418046   2.264   5.857   1.348 -1.3462  1.5862  2.0157
  112MOL    H6518047   2.256   6.009   1.359 -0.0867  1.1224 -1.2373
  112MOL    C6618048   2.432   5.940   1.089  0.0596 -0.5618  0.1443
  112MOL    C6718049   2.425   5.785   1.055  0.5762 -0.1154  0.9641
  112MOL    N6818050   2.290   5.751   1.031 -1.0871  0.2707 -0.3393
  112MOL    H6918051   2.351   5.991   1.038  1.6953  4.0624  1.8802
  112MOL    H7018052   2.521   5.991   1.053 -1.4237  2.3927  0.5515
  112MOL    H7118053   2.476   5.730   1.134  2.5982  0.3803  0.0487
  112MOL    H7218054   2.258   5.737   1.126  2.0352  1.0953  0.9033
  112MOL    H7318055   2.239   5.835   1.005  1.9049  2.1088 -0.5684
  112MOL    C7418056   2.511   5.755   0.927  0.1196 -0.5620  0.8169
  112MOL    C7518057   2.662   5.750   0.957 -0.2264  0.2243  0.2004
  112MOL    N7618058   2.695   5.624   1.029  0.4121  0.1114  0.1076
  112MOL    H7718059   2.486   5.657   0.887  1.9038  0.5634 -3.3565
  112MOL    H7818060   2.497   5.834   0.853  0.6447  0.0732  1.3790
  112MOL    H7918061   2.679   5.817   1.041 -2.3113  3.0918 -1.5660
  112MOL    H8018062   2.672   5.539   0.978 -0.1503 -0.0598  0.6450
  112MOL    H8118063   2.795   5.609   1.031  0.2049 -2.1762 -2.8755
  112MOL    C8218064   2.743   5.762   0.834 -0.3355 -0.3492 -0.5208
  112MOL    C8318065   2.751   5.914   0.789 -0.5400  0.2063  0.1100
  112MOL    N8418066   2.812   5.990   0.895  0.7906  0.4591  0.7542
  112MOL    H8518067   2.841   5.716   0.843  1.5197  3.7948  1.9154
  112MOL    H8618068   2.698   5.711   0.749 -1.2130 -1.0052  0.3273
  112MOL    H8718069   2.655   5.959   0.765 -0.6220 -0.6038 -1.1131
  112MOL    H8818070   2.758   5.986   0.980  0.6950  2.6955  0.8207
  112MOL    H8918071   2.835   6.088   0.888  1.9553  0.2951  2.0331
  112MOL    C9018072   2.854   5.943   0.671 -0.1522 -0.7963 -0.0130
  112MOL    C9118073   2.825   5.863   0.536 -0.1620  0.1196 -0.1690
  112MOL    N9218074   2.683   5.867   0.505 -0.1256  0.5388 -1.2090
  112MOL    H9318075   2.859   6.050   0.651  0.5961 -0.6515  0.9246
  112MOL    H9418076   2.954   5.908   0.697 -0.0705 -1.2631 -0.9440
  112MOL    H9518077   2.850   5.758   0.549  0.5017  0.4892  1.5777
  112MOL    H9618078   2.688   5.804   0.425  0.9737  0.2813 -0.9463
  112MOL    H9718079   2.632   5.813   0.573 -0.4523 -0.6725 -2.3725
  112MOL    C9818080   2.920   5.917   0.424  0.7784 -0.2654 -0.8619
  112MOL    C9918081   3.070   5.888   0.426 -0.4857  0.6937 -0.5266
  112MOL   N10018082   3.108   5.791   0.327 -0.2338 -0.4480 -0.1386
  112MOL   H10118083   2.876   5.892   0.328  0.1993  0.7991 -0.8773
  112MOL   H10218084   2.912   6.026   0.425  1.9565 -0.1553  1.2513
  112MOL   H10318085   3.079   5.831   0.519 -1.8494  1.5038  0.1110
  112MOL   H10418086   3.018   5.763   0.292  0.9045 -0.7095 -2.9972
  112MOL   H10518087   3.139   5.844   0.246 -0.9382 -0.4008 -0.3846
  112MOL   C10618088   3.169   6.006   0.413  0.1819 -0.0478  0.0035
  112MOL   C10718089   3.211   6.085   0.538 -0.4246  0.5956  0.2163
  112MOL   N10818090   3.344   6.131   0.529  0.1231 -0.1491 -0.2523
  112MOL   H10918091   3.260   5.960   0.373 -0.3228 -1.0666  0.0042
  112MOL   H11018092   3.143   6.075   0.333  0.6301  0.7741  0.5596
  112MOL   H11118093   3.210   6.016   0.622  1.2904  0.1802 -0.0775
  112MOL   H11218094   3.395   6.089   0.606  1.0689  1.8725  0.2602
  112MOL   H11318095   3.382   6.091   0.445  0.3364 -3.0174  1.1268
  112MOL   C11418096   3.127   6.216   0.564 -0.4058  0.8645 -0.3026
  112MOL   C11518097   3.144   6.270   0.706 -0.2924  0.6981  0.2403
  112MOL   N11618098   3.072   6.394   0.700  0.2969  0.5916 -0.8584
  112MOL   H11718099   3.135   6.282   0.477 -0.2464  0.7834 -0.3507
  112MOL   H11818100   3.021   6.194   0.560 -1.1862  4.2650  0.0102
  112MOL   H11918101   3.249   6.296   0.716  0.6321 -2.1840 -1.3300
  112MOL   H12018102   3.086   6.432   0.792 -1.4748 -0.9608  0.0725
  112MOL   H12118103   2.973   6.374   0.704  0.7883 -1.6201  1.0038
  112MOL   C12218104   3.079   6.181   0.811 -0.2875 -0.3065 -0.0005
  112MOL   C12318105   3.170   6.169   0.938  0.5619 -0.1296 -0.2400
  112MOL   N12418106   3.136   6.276   1.028 -0.0609 -0.1628  0.2704
  112MOL   H12518107   2.980   6.208   0.846 -1.1390 -1.5584 -1.3919
  112MOL   H12618108   3.062   6.079   0.776  1.7508 -1.2670  1.6199
  112MOL   H12718109   3.272   6.187   0.906  0.6903  0.9789  0.7533
  112MOL   H12818110   3.036   6.282   1.040  0.1549  3.2908  0.7502
  112MOL   H12918111   3.159   6.240   1.119 -2.1549 -0.2969  0.7802
  112MOL   C13018112   3.164   6.035   1.023  0.2543  0.2217  0.6098
  112MOL   C13118113   3.224   5.903   0.972 -0.3153  0.4062  0.0787
  112MOL   N13218114   3.368   5.923   0.939  0.0542 -0.1214  0.3507
  112MOL   H13318115   3.225   6.055   1.111  0.6134  1.7001  0.0404
  112MOL   H13418116   3.063   6.033   1.064 -0.8737 -0.6044 -2.0587
  112MOL   H13518117   3.183   5.882   0.874 -0.0590  0.2267  0.0116
  112MOL   H13618118   3.411   5.973   1.016 -1.2317  1.9634 -0.2457
  112MOL   H13718119   3.381   5.984   0.860  0.3167 -1.2496 -0.4761
  112MOL   C13818120   3.203   5.783   1.061 -0.1961  0.3634 -0.0198
  112MOL   C13918121   3.056   5.729   1.061  0.5318 -0.4453  0.2667
  112MOL   N14018122   3.045   5.597   0.996  0.0732  0.4339  0.7872
  112MOL   H14118123   3.271   5.707   1.023  1.5009  1.5117  0.6646
  112MOL   H14218124   3.242   5.800   1.161  0.2790  0.3952 -0.2109
  112MOL   H14318125   3.000   5.796   0.996  2.2067  1.2311  0.5351
  112MOL   H14418126   3.071   5.593   0.898 -0.3146  1.6345  0.6271
  112MOL   H14518127   3.108   5.529   1.036  0.9190 -0.1506 -1.4575
  112MOL   C14618128   2.991   5.715   1.203 -0.1526 -0.2900  0.2402
  112MOL   C14718129   2.927   5.843   1.268  0.5217 -0.3987 -0.3033
  112MOL   N14818130   2.785   5.800   1.295 -0.2701  0.7733  0.3368
  112MOL   H14918131   2.918   5.634   1.214 -1.8743  1.5146  2.3193
  112MOL   H15018132   3.074   5.671   1.259  0.6788 -0.2416 -0.9387
  112MOL   H15118133   2.915   5.924   1.196 -2.4897 -0.1477  0.4156
  112MOL   H15218134   2.742   5.761   1.212 -3.2666  1.9894  1.2532
  112MOL   H15318135   2.796   5.712   1.344  0.7826  0.1751 -0.9546
  112MOL   C15418136   2.989   5.900   1.397 -0.7447 -0.2362 -0.5615
  112MOL   C15518137   3.108   5.991   1.371 -0.6410 -0.3116  0.1156
  112MOL   N15618138   3.167   6.039   1.491  0.2362 -0.1256 -0.8409
  112MOL   H15718139   2.908   5.951   1.449  0.8433  1.6155  0.1486
  112MOL   H15818140   3.023   5.827   1.471  1.8618  0.9885 -0.4928
  112MOL   H15918141   3.078   6.064   1.296 -2.7936 -2.9575 -1.6961
  112MOL   H16018142   3.112   6.100   1.550  0.2200 -0.8292 -0.1309
  112MOL   H16118143   3.252   6.091   1.477  0.4673 -0.5659 -1.0760
  112MOL   H16218144   3.192   5.944   1.321  0.5101  1.6008  0.1801
  113MOL     C118145   7.182   5.965   6.253  0.6065 -0.3409 -0.1223
  113MOL     C218146   7.243   5.969   6.105  0.0117  0.6482  0.2011
  113MOL     N318147   7.261   5.831   6.063 -0.3014 -0.4585 -0.8744
  113MOL     H418148   7.167   6.065   6.294  1.1201  0.2437 -1.3080
  113MOL     H518149   7.251   5.914   6.320  1.9560  1.5841  0.0080
  113MOL     H618150   0.068   6.011   6.105 -1.2243  3.8780 -2.3030
  113MOL     H718151   0.032   5.789   6.142 -0.3060  0.1128 -0.5666
  113MOL     H818152   0.055   5.829   5.990  1.3959 -0.7076  0.7226
  113MOL     H918153   7.084   5.917   6.251 -0.1832  1.2100  0.7744
  113MOL    C1018154   7.157   6.041   6.002 -0.0323  0.8994 -0.5180
  113MOL    C1118155   7.149   6.194   6.010 -0.0402  0.0635 -0.0122
  113MOL    N1218156   7.262   6.249   5.941 -0.1506  0.1607  0.2600
  113MOL    H1318157   7.204   6.018   5.907  2.1092  0.5221  0.6050
  113MOL    H1418158   7.055   6.003   6.006  1.0142 -2.0941 -1.4559
  113MOL    H1518159   7.153   6.221   6.116  0.7889  0.3903 -0.1217
  113MOL    H1618160   0.068   6.200   5.974  0.1557  0.8849  0.6022
  113MOL    H1718161   7.275   6.342   5.978  2.9126 -0.2326  0.2978
  113MOL    C1818162   7.004   6.246   5.974 -0.2237 -0.1991  0.6632
  113MOL    C1918163   6.987   6.396   5.937  0.4546  0.0111  0.4889
  113MOL    N2018164   6.870   6.417   5.854  0.2490  0.0090  0.4186
  113MOL    H2118165   6.968   6.187   5.889 -1.1997  1.3191 -0.0059
  113MOL    H2218166   6.932   6.209   6.046 -0.2195  0.3055  0.9312
  113MOL    H2318167   7.079   6.432   5.891 -0.1989 -1.8703 -2.3941
  113MOL    H2418168   6.865   6.510   5.817 -0.7730 -0.3589 -0.3711
  113MOL    H2518169   6.876   6.358   5.772  0.0979  2.5802 -1.4947
  113MOL    C2618170   6.982   6.486   6.066  0.2272  0.1183 -0.1155
  113MOL    C2718171   6.979   6.641   6.050 -0.3939  0.0870  1.0306
  113MOL    N2818172   6.952   6.692   6.183  0.0051  0.4344 -0.0012
  113MOL    H2918173   6.891   6.453   6.117  0.4529 -0.9451 -0.3961
  113MOL    H3018174   7.058   6.454   6.137  2.3257  1.5880 -1.6311
  113MOL    H3118175   6.897   6.662   5.980  0.2709 -2.8605 -0.7041
  113MOL    H3218176   7.034   6.663   6.235  0.6490  2.8102  0.3596
  113MOL    H3318177   6.962   6.792   6.182  1.4303  0.3893  3.6510
  113MOL    C3418178   7.117   6.699   5.991 -0.2165  0.1832  0.3652
  113MOL    C3518179   7.084   6.815   5.896 -0.1920  0.4721  0.1395
  113MOL    N3618180   7.214   6.888   5.886 -0.6978  0.6420 -0.0014
  113MOL    H3718181   7.186   6.723   6.072  1.5314 -1.2144 -0.6639
  113MOL    H3818182   7.176   6.623   5.939  0.8350  0.8351  0.5860
  113MOL    H3918183   7.009   6.885   5.933 -0.1114  0.6551 -0.0387
  113MOL    H4018184   7.206   6.959   5.957  0.4483  1.5276 -0.7201
  113MOL    H4118185   0.004   6.819   5.920  0.3859  1.2065 -0.9148
  113MOL    C4218186   7.038   6.766   5.754  0.4529 -0.7023  0.9375
  113MOL    C4318187   7.022   6.876   5.650 -0.0808 -0.1414 -0.2939
  113MOL    N4418188   7.003   6.790   5.535  0.3982 -0.6488 -0.1814
  113MOL    H4518189   7.107   6.689   5.718 -0.6082 -0.7529 -1.0427
  113MOL    H4618190   6.940   6.718   5.759  0.4993 -0.6182  3.0777
  113MOL    H4718191   7.113   6.935   5.637  0.0372  0.3224  2.3834
  113MOL    H4818192   6.950   6.837   5.462  0.3296 -1.2158 -0.5007
  113MOL    H4918193   7.085   6.760   5.485 -0.2386 -1.1896 -0.9226
  113MOL    C5018194   6.898   6.964   5.653  0.0447 -0.1298 -0.3926
  113MOL    C5118195   6.923   7.115   5.604  0.0339  0.6135  0.2603
  113MOL    N5218196   6.803   7.197   5.599  0.1582 -0.6974 -0.3071
  113MOL    H5318197   6.809   6.914   5.614  0.0046 -0.3745  0.0023
  113MOL    H5418198   6.872   6.984   5.758 -1.4090  3.6923 -1.3981
  113MOL    H5518199   6.955   7.116   5.500  1.3901 -4.8784  0.5184
  113MOL    H5618200   6.723   7.140   5.576 -0.8637  0.7312 -0.3662
  113MOL    H5718201   6.807   7.263   5.523 -1.8853 -0.1380  0.0322
  113MOL    C5818202   7.022   7.195   5.690 -0.1865  0.2345 -0.5224
  113MOL    C5918203   7.107   0.031   5.626  0.4112 -0.8157 -0.5286
  113MOL    N6018204   7.156   0.116   5.735 -0.3484 -0.0729 -0.1216
  113MOL    H6118205   6.967   7.236   5.775  1.7213 -0.7320  1.2307
  113MOL    H6218206   7.083   7.118   5.737 -0.6663  0.4506  0.4550
  113MOL    H6318207   7.033   0.089   5.573  1.5009 -0.0316 -1.2163
  113MOL    H6418208   7.204   0.185   5.679  0.0493 -0.0065  0.3020
  113MOL    H6518209   7.071   0.158   5.771 -0.4197 -0.9710  0.7928
  113MOL    C6618210   7.218   7.263   5.525  0.1774  0.3576  0.3444
  113MOL    C6718211   7.197   0.050   5.381  1.1142 -0.0261 -1.0124
  113MOL    N6818212   7.249   0.180   5.366  0.4089 -0.1707 -0.0541
  113MOL    H6918213   0.037   0.020   5.568  1.3264 -1.4075 -0.7627
  113MOL    H7018214   7.227   7.154   5.528  1.5163  0.4910  1.5060
  113MOL    H7118215   7.090   0.063   5.370  1.0528  0.1646 -0.1573
  113MOL    H7218216   0.074   0.178   5.376  0.4789 -0.8132 -0.8217
  113MOL    H7318217   7.237   0.210   5.270  0.5553 -0.1719 -0.0731
  113MOL    C7418218   7.261   7.245   5.275  0.2283  0.3762 -0.0115
  113MOL    C7518219   7.220   7.092   5.271  0.6950 -0.7063 -0.3104
  113MOL    N7618220   7.192   7.066   5.134  0.0441 -0.0630 -0.0957
  113MOL    H7718221   7.239   0.014   5.178 -0.9059 -1.5444 -0.6719
  113MOL    H7818222   0.094   7.238   5.286  0.5640  0.6317 -2.7975
  113MOL    H7918223   7.133   7.074   5.333 -0.3894  1.3044 -1.2086
  113MOL    H8018224   7.182   6.967   5.117 -2.3717  0.5301 -2.3689
  113MOL    H8118225   7.273   7.090   5.078  0.3496 -2.3164 -0.6791
  113MOL    C8218226   0.057   6.995   5.306  0.4535  0.2390  0.0150
  113MOL    C8318227   0.016   6.854   5.356  0.5874  0.3388  0.1899
  113MOL    N8418228   7.222   6.778   5.254  0.4250 -0.1954  0.0662
  113MOL    H8518229   0.134   6.981   5.230 -0.7038  1.1232 -1.3537
  113MOL    H8618230   0.118   7.038   5.386 -0.4642  0.4036  0.6291
  113MOL    H8718231   7.215   6.866   5.433 -1.6273 -0.3946 -1.8522
  113MOL    H8818232   7.176   6.697   5.294  0.9227 -1.2638 -1.4667
  113MOL    H8918233   0.015   6.737   5.192  1.1721  2.0938 -0.6616
  113MOL    C9018234   0.132   6.776   5.425 -0.1669 -0.1348  0.3199
  113MOL    C9118235   0.152   6.819   5.567  0.5279 -0.1613  0.6992
  113MOL    N9218236   0.103   6.720   5.658  0.2431  0.1669 -0.5911
  113MOL    H9318237   0.111   6.670   5.408  0.7383  0.0719 -2.3955
  113MOL    H9418238   0.229   6.791   5.377 -0.1331  0.4847  0.5831
  113MOL    H9518239   0.099   6.912   5.588 -1.5940 -1.4343  1.1248
  113MOL    H9618240   0.022   6.673   5.620 -0.7141  1.4860 -0.2161
  113MOL    H9718241   0.078   6.782   5.734  1.2441  0.5028 -0.5284
  113MOL    C9818242   0.304   6.839   5.598  0.2535  0.5851  0.3828
  113MOL    C9918243   0.373   6.975   5.550  0.5491 -0.4660  0.1376
  113MOL   N10018244   0.496   6.990   5.637 -0.3753  0.5289  0.2157
  113MOL   H10118245   0.309   6.846   5.707 -2.6544 -0.0812  0.5957
  113MOL   H10218246   0.363   6.751   5.572  0.8466  1.5147 -1.5020
  113MOL   H10318247   0.296   7.049   5.571 -1.6296 -1.8673 -2.5949
  113MOL   H10418248   0.524   7.086   5.625  1.7165 -0.1905 -1.0465
  113MOL   H10518249   0.476   6.993   5.736  1.0255 -0.7212  0.5586
  113MOL   C10618250   0.426   6.972   5.411 -0.3478 -0.3775 -0.1239
  113MOL   C10718251   0.501   7.093   5.368  0.4161 -0.5281 -0.1490
  113MOL   N10818252   0.565   7.058   5.239  0.0758  0.0314 -0.1867
  113MOL   H10918253   0.505   6.899   5.397  0.3924  0.7551 -2.1851
  113MOL   H11018254   0.346   6.952   5.339 -2.0114  0.7366  1.3514
  113MOL   H11118255   0.581   7.111   5.440 -0.5369  0.1697  0.7654
  113MOL   H11218256   0.539   7.136   5.180 -0.2670 -0.6970 -1.0154
  113MOL   H11318257   0.664   7.072   5.254 -0.3708  1.3049  1.7764
  113MOL   C11418258   0.412   7.216   5.337  0.2891  0.3055 -0.3430
  113MOL   C11518259   0.480   0.065   5.283 -0.3285 -0.1980 -0.2143
  113MOL   N11618260   0.484   0.055   5.137 -0.5383  0.3902 -0.0397
  113MOL   H11718261   0.327   7.184   5.276 -0.5977  0.8707  0.5780
  113MOL   H11818262   0.362   7.241   5.431 -0.5562  0.2488 -0.7701
  113MOL   H11918263   0.578   0.076   5.329  0.7295  2.6065 -2.9540
  113MOL   H12018264   0.404   0.104   5.099  0.6530  1.3003 -1.4297
  113MOL   H12118265   0.566   0.100   5.101 -1.2247  1.0499 -0.8063
  113MOL   C12218266   0.388   0.191   5.311  0.3288  0.7850  0.4342
  113MOL   C12318267   0.443   0.324   5.249  0.1627  0.5000  0.4656
  113MOL   N12418268   0.334   0.424   5.231  0.3493 -0.2852 -0.4092
  113MOL   H12518269   0.286   0.172   5.279 -0.0679  1.4608  1.2938
  113MOL   H12618270   0.390   0.211   5.418  2.1955  2.6543  0.0732
  113MOL   H12718271   0.465   0.299   5.145  1.5902  1.5794  0.4899
  113MOL   H12818272   0.371   0.489   5.163  1.0081 -2.1709 -1.8960
  113MOL   H12918273   0.349   0.482   5.312  0.4518  2.5979 -2.4087
  113MOL   C13018274   0.563   0.392   5.318  1.0613 -0.3376  0.3683
  113MOL   C13118275   0.628   0.499   5.229  0.1217  0.3798  0.2551
  113MOL   N13218276   0.647   0.614   5.318  0.6915 -0.5886 -0.2342
  113MOL   H13318277   0.546   0.428   5.419  2.6603  0.2460  0.4480
  113MOL   H13418278   0.637   0.315   5.340  0.4792 -1.0855 -0.2684
  113MOL   H13518279   0.565   0.517   5.142  0.2293  1.7824  0.4578
  113MOL   H13618280   0.561   0.617   5.371 -0.7626 -0.0043 -2.5889
  113MOL   H13718281   0.642   0.702   5.269  0.0298  0.0254  0.9203
  113MOL   C13818282   0.764   0.470   5.162  0.5252  0.1263  0.5722
  113MOL   C13918283   0.762   0.332   5.081  1.0143  0.2969 -0.0901
  113MOL   N14018284   0.734   0.354   4.934 -0.4080 -0.2128  0.0766
  113MOL   H14118285   0.798   0.555   5.101  0.3387 -0.2949 -0.1235
  113MOL   H14218286   0.845   0.468   5.234  0.3583  0.5574  0.7724
  113MOL   H14318287   0.688   0.260   5.115 -0.5265  1.5660 -0.7083
  113MOL   H14418288   0.822   0.388   4.897  0.1437 -0.3016  1.2627
  113MOL   H14518289   0.739   0.258   4.903  0.6040 -0.4933  1.0219
  113MOL   C14618290   0.896   0.258   5.107  0.1441  0.0147  0.1824
  113MOL   C14718291   0.919   0.204   5.252 -0.0477 -0.1546  0.0729
  113MOL   N14818292   0.823   0.091   5.279 -0.5627  0.6903  0.1785
  113MOL   H14918293   0.905   0.167   5.048  1.7023  0.8015 -0.8134
  113MOL   H15018294   0.979   0.324   5.084 -0.3842  0.9407  0.9109
  113MOL   H15118295   0.899   0.290   5.316  0.6211 -0.5545  0.8282
  113MOL   H15218296   0.827   0.067   5.377 -0.8632  4.7641  1.2925
  113MOL   H15318297   0.859   0.014   5.226 -1.0301 -1.0977  2.3715
  113MOL   C15418298   1.063   0.160   5.286  0.1568  0.0531 -0.0586
  113MOL   C15518299   1.172   0.267   5.289  0.4216 -0.0192 -0.4810
  113MOL   N15618300   1.289   0.195   5.333  0.3765  1.0262 -0.0658
  113MOL   H15718301   1.060   0.113   5.384  0.2644  2.1125  0.9726
  113MOL   H15818302   1.082   0.076   5.220 -0.2005 -1.4124  1.6752
  113MOL   H15918303   1.140   0.346   5.357  0.2375  0.3271 -0.9662
  113MOL   H16018304   1.376   0.218   5.287  0.7971 -0.9398 -0.2846
  113MOL   H16118305   1.277   0.097   5.311  0.8180  1.0422 -0.3703
  113MOL   H16218306   1.183   0.315   5.191  2.2787 -1.2619 -0.9000
  114MOL     C118307   3.296   4.961   2.434 -0.6716  0.4085 -0.0463
  114MOL     C218308   3.328   4.811   2.487  0.1656  0.6311 -0.4973
  114MOL     N318309   3.419   4.740   2.398 -0.0766 -0.3889 -0.0291
  114MOL     H418310   3.223   5.011   2.497  2.2565 -0.7994  4.6103
  114MOL     H518311   3.250   4.950   2.336 -2.5526 -0.3217  0.8784
  114MOL     H618312   3.236   4.753   2.498 -1.3676  2.9742 -0.4925
  114MOL     H718313   3.460   4.669   2.457 -3.0471  0.1946  2.8911
  114MOL     H818314   3.384   4.692   2.317  0.1510  2.6487 -2.0243
  114MOL     H918315   3.384   5.025   2.435 -1.6068  1.7005 -0.0240
  114MOL    C1018316   3.386   4.813   2.627  0.0353 -0.7234  0.2608
  114MOL    C1118317   3.285   4.858   2.730  0.2371  0.5921  0.1373
  114MOL    N1218318   3.175   4.759   2.740 -0.5367  0.0616  0.1928
  114MOL    H1318319   3.422   4.713   2.652  1.2206 -0.7542 -1.4579
  114MOL    H1418320   3.476   4.875   2.633 -1.7469  1.9081  0.4614
  114MOL    H1518321   3.239   4.952   2.701  1.1424  1.0619  0.2020
  114MOL    H1618322   3.131   4.754   2.649  1.9104 -2.0880 -0.9637
  114MOL    H1718323   3.099   4.801   2.791 -0.5520 -0.8494  0.9319
  114MOL    C1818324   3.342   4.872   2.870  0.3624  0.6875  0.1662
  114MOL    C1918325   3.443   4.981   2.908  0.0003  0.3741 -0.2631
  114MOL    N2018326   3.387   5.111   2.890 -0.3230 -0.1558 -0.2647
  114MOL    H2118327   3.254   4.890   2.932  0.7858  2.0542  0.3959
  114MOL    H2218328   3.370   4.776   2.912  0.3831  0.8687  0.5725
  114MOL    H2318329   3.524   4.962   2.838  0.8673 -2.4760  1.4494
  114MOL    H2418330   3.453   5.186   2.902 -1.4034  0.7754 -0.0734
  114MOL    H2518331   3.375   5.122   2.790  0.1704  2.1865 -0.0967
  114MOL    C2618332   3.487   4.971   3.062 -0.2930  0.4104  0.2301
  114MOL    C2718333   3.549   4.830   3.101  0.1235 -0.0893 -0.0611
  114MOL    N2818334   3.654   4.794   3.013 -0.3823  0.3294 -0.3162
  114MOL    H2918335   3.559   5.047   3.092 -0.0055 -0.0079  0.5864
  114MOL    H3018336   3.395   4.986   3.119 -1.9083  1.2104 -2.4588
  114MOL    H3118337   3.470   4.758   3.081  3.6172 -3.2374 -3.6275
  114MOL    H3218338   3.636   4.809   2.915  1.6356 -0.5591 -0.8483
  114MOL    H3318339   3.658   4.693   3.011 -1.0607  0.2500  1.5352
  114MOL    C3418340   3.618   4.831   3.244  0.4429  0.4992  0.1201
  114MOL    C3518341   3.509   4.845   3.356 -0.5181  0.5866 -0.2099
  114MOL    N3618342   3.453   4.716   3.395  0.4015  0.3637  0.2636
  114MOL    H3718343   3.667   4.736   3.265 -0.0580  0.6316  1.9110
  114MOL    H3818344   3.702   4.899   3.256  1.3381 -0.6351  0.3837
  114MOL    H3918345   3.431   4.912   3.320  1.2181  1.7023 -1.9943
  114MOL    H4018346   3.381   4.728   3.465  2.1272  2.0957  1.7943
  114MOL    H4118347   3.385   4.701   3.322 -0.8202  1.9584  1.0570
  114MOL    C4218348   3.569   4.906   3.483 -0.7084 -0.3142  0.3326
  114MOL    C4318349   3.523   5.057   3.499 -0.1216  0.5047 -0.1525
  114MOL    N4418350   3.562   5.097   3.634  0.4227  0.3428  0.1755
  114MOL    H4518351   3.546   4.852   3.575 -0.4461 -0.9594  0.0281
  114MOL    H4618352   3.678   4.900   3.482 -0.7139 -0.7269  1.9018
  114MOL    H4718353   3.415   5.058   3.484 -0.1568  0.2888  0.0782
  114MOL    H4818354   3.661   5.095   3.653  0.7384  1.2766 -1.2589
  114MOL    H4918355   3.539   5.196   3.639  1.3610  0.6105 -0.6166
  114MOL    C5018356   3.592   5.146   3.392 -0.2708 -0.1636 -0.2467
  114MOL    C5118357   3.513   5.273   3.386  0.5555 -0.5707  0.1616
  114MOL    N5218358   3.591   5.362   3.311 -0.2651  0.6151  0.0056
  114MOL    H5318359   3.698   5.161   3.412 -0.3795  0.7534 -0.3540
  114MOL    H5418360   3.593   5.109   3.289  0.0276  0.5897 -0.5175
  114MOL    H5518361   3.515   5.315   3.486  0.4604  1.6335 -0.7324
  114MOL    H5618362   3.652   5.316   3.245  1.8024 -0.1606  2.3941
  114MOL    H5718363   3.647   5.413   3.377 -2.2192  0.2730  1.9734
  114MOL    C5818364   3.372   5.268   3.324  0.2966 -0.1163 -0.3898
  114MOL    C5918365   3.254   5.283   3.434 -0.2074 -0.5131  0.4490
  114MOL    N6018366   3.269   5.418   3.496 -0.5442 -0.2412  0.0728
  114MOL    H6118367   3.356   5.351   3.255  0.3881 -0.1104 -0.4037
  114MOL    H6218368   3.361   5.177   3.265 -2.1421  0.0413 -0.2032
  114MOL    H6318369   3.261   5.205   3.510 -2.6611  0.7126  1.9961
  114MOL    H6418370   3.344   5.416   3.564  0.7529  4.4379 -1.0660
  114MOL    H6518371   3.296   5.494   3.436  1.3381 -1.0828 -0.1718
  114MOL    C6618372   3.113   5.262   3.371 -0.6226 -0.4857  0.3633
  114MOL    C6718373   3.054   5.129   3.349 -0.5466  0.1300  0.1285
  114MOL    N6818374   2.931   5.138   3.276 -0.1165  0.0581 -0.8338
  114MOL    H6918375   3.037   5.301   3.439 -2.1415 -0.3507 -1.3828
  114MOL    H7018376   3.101   5.318   3.278 -1.5272  0.6226  1.1331
  114MOL    H7118377   3.030   5.087   3.447 -2.7385 -0.8476 -0.8015
  114MOL    H7218378   2.892   5.231   3.286 -3.3285 -1.5455  3.1207
  114MOL    H7318379   2.861   5.085   3.326 -1.2001  1.0483 -1.2507
  114MOL    C7418380   3.146   5.019   3.286 -0.2237  0.0835  0.2533
  114MOL    C7518381   3.085   4.881   3.242 -0.3010  0.1460  1.3997
  114MOL    N7618382   3.193   4.807   3.185  0.3810 -0.8071  0.1251
  114MOL    H7718383   3.202   5.062   3.203  1.5079  1.1788  1.9567
  114MOL    H7818384   3.225   5.005   3.360  0.6554 -0.3130 -0.7460
  114MOL    H7918385   3.012   4.891   3.162 -0.5187  1.7064  1.7689
  114MOL    H8018386   3.172   4.720   3.139  1.3699 -2.3082  2.4108
  114MOL    H8118387   3.228   4.857   3.104 -1.7075 -0.0882 -0.3660
  114MOL    C8218388   3.027   4.813   3.362  0.6282  0.1260 -0.2532
  114MOL    C8318389   2.950   4.690   3.327  1.0187  0.5117  0.4860
  114MOL    N8418390   3.023   4.571   3.353 -0.2632 -0.3142  0.1817
  114MOL    H8518391   3.103   4.804   3.439 -1.8150 -1.8311  2.0140
  114MOL    H8618392   2.964   4.877   3.424  1.4478  0.7453 -0.0525
  114MOL    H8718393   2.945   4.688   3.218  2.3406  3.9523  0.3027
  114MOL    H8818394   3.058   4.570   3.447  1.7919 -2.1175 -0.5638
  114MOL    H8918395   3.100   4.583   3.288  0.1991  0.4417  0.8636
  114MOL    C9018396   2.804   4.677   3.375  0.3239  0.9102 -0.2215
  114MOL    C9118397   2.707   4.761   3.304 -0.3922  0.4203 -0.1401
  114MOL    N9218398   2.636   4.680   3.213 -0.0072 -0.3873  0.0477
  114MOL    H9318399   2.763   4.576   3.379  0.7546  0.7289 -0.2930
  114MOL    H9418400   2.796   4.690   3.483 -1.9008 -0.5831 -0.1811
  114MOL    H9518401   2.761   4.838   3.248 -1.0857 -0.5601 -2.2134
  114MOL    H9618402   2.696   4.615   3.165 -0.6178 -1.9622  1.3805
  114MOL    H9718403   2.577   4.616   3.264  2.1205 -1.9299  0.6540
  114MOL    C9818404   2.604   4.845   3.391 -0.4672 -0.4659 -0.1685
  114MOL    C9918405   2.664   4.946   3.496 -0.8223 -0.2179 -0.3042
  114MOL   N10018406   2.646   5.074   3.432  0.0203 -0.3036  0.2262
  114MOL   H10118407   2.527   4.888   3.327  0.3848  2.6780  0.8584
  114MOL   H10218408   2.548   4.773   3.451 -0.0635 -0.7317 -0.1119
  114MOL   H10318409   2.770   4.929   3.515 -1.1031 -0.7220  0.8204
  114MOL   H10418410   2.689   5.142   3.492 -3.3069  3.4371 -1.3661
  114MOL   H10518411   2.549   5.101   3.441 -0.5483 -1.7929 -1.1693
  114MOL   C10618412   2.592   4.936   3.633 -0.7755 -0.1438  0.2322
  114MOL   C10718413   2.625   4.808   3.711 -0.1564 -1.0615 -0.2503
  114MOL   N10818414   2.756   4.829   3.764  0.9202 -0.2638 -0.4981
  114MOL   H10918415   2.603   5.020   3.701 -1.9366 -0.4488  0.8105
  114MOL   H11018416   2.484   4.937   3.617 -0.7141  0.3373 -0.1312
  114MOL   H11118417   2.648   4.732   3.637  0.2390 -1.6575  0.4756
  114MOL   H11218418   2.779   4.746   3.819 -0.6235 -0.0984  0.4302
  114MOL   H11318419   2.831   4.827   3.697 -0.0203 -3.6573 -1.5792
  114MOL   C11418420   2.534   4.766   3.829 -0.4243  0.1162 -0.9298
  114MOL   C11518421   2.566   4.625   3.888  0.0439  0.6361 -0.5969
  114MOL   N11618422   2.512   4.626   4.027  0.2348  0.3354 -0.0960
  114MOL   H11718423   2.542   4.845   3.904  1.7706  1.4894 -2.5778
  114MOL   H11818424   2.429   4.762   3.798 -0.4915  0.2524 -0.7244
  114MOL   H11918425   2.673   4.611   3.902  0.6202  1.6092 -3.6294
  114MOL   H12018426   2.412   4.637   4.036  0.1602  2.5097 -2.9152
  114MOL   H12118427   2.543   4.715   4.064  0.6909 -0.0189  0.3875
  114MOL   C12218428   2.512   4.496   3.820 -0.0709 -0.1399  0.1224
  114MOL   C12318429   2.609   4.442   3.706  0.3707 -0.0072 -0.4695
  114MOL   N12418430   2.693   4.346   3.773 -0.2996  1.0249 -0.0310
  114MOL   H12518431   2.492   4.426   3.901  1.3664  0.8582  1.3696
  114MOL   H12618432   2.417   4.525   3.776  0.4175 -1.6513 -1.9649
  114MOL   H12718433   2.659   4.524   3.655  0.3612 -0.7604 -1.7085
  114MOL   H12818434   2.740   4.396   3.847  2.5115  1.6551 -2.1583
  114MOL   H12918435   2.765   4.312   3.711 -1.3319 -2.4390  0.5601
  114MOL   C13018436   2.528   4.380   3.591 -0.3840 -1.1742  0.3837
  114MOL   C13118437   2.611   4.282   3.493 -0.2930 -0.4826  0.4516
  114MOL   N13218438   2.630   4.156   3.566 -0.2945  0.0076 -0.2150
  114MOL   H13318439   2.439   4.326   3.624 -0.8909 -1.0152 -0.6937
  114MOL   H13418440   2.490   4.453   3.519 -0.6685  0.0083  1.7272
  114MOL   H13518441   2.707   4.332   3.477 -0.1309 -0.1291  2.3538
  114MOL   H13618442   2.729   4.170   3.583 -0.6426  1.2049  0.9541
  114MOL   H13718443   2.596   4.178   3.659  3.5995 -0.3637  1.4096
  114MOL   C13818444   2.561   4.246   3.353 -0.2784 -0.4559 -0.6679
  114MOL   C13918445   2.674   4.212   3.253  0.2431  0.3025 -0.1184
  114MOL   N14018446   2.597   4.154   3.139 -0.2835 -0.1613 -0.4857
  114MOL   H14118447   2.491   4.162   3.354 -0.4014 -0.3654  1.9981
  114MOL   H14218448   2.507   4.333   3.314 -1.0782 -0.9730 -0.7152
  114MOL   H14318449   2.746   4.142   3.296 -0.5042  0.2332  1.0208
  114MOL   H14418450   2.639   4.171   3.049 -0.5152 -1.0138 -0.7593
  114MOL   H14518451   2.504   4.193   3.130 -0.4130 -0.7376 -1.7264
  114MOL   C14618452   2.756   4.334   3.200  0.9284  0.9059 -0.0577
  114MOL   C14718453   2.842   4.300   3.082  0.0613  0.4244 -0.0350
  114MOL   N14818454   2.893   4.428   3.042 -0.4518  0.0756 -0.1021
  114MOL   H14918455   2.689   4.412   3.162 -0.3749 -0.5735 -0.8575
  114MOL   H15018456   2.819   4.366   3.283 -1.2407  0.2558  1.9015
  114MOL   H15118457   2.807   4.248   2.993 -0.2652  2.1280 -0.9324
  114MOL   H15218458   2.934   4.467   3.125 -0.7286 -0.8069  0.4645
  114MOL   H15318459   2.820   4.484   3.000  1.4470  2.1603 -0.7247
  114MOL   C15418460   2.966   4.216   3.108  0.3554 -0.8541  0.2703
  114MOL   C15518461   2.944   4.070   3.088 -0.0711 -0.0421  0.2810
  114MOL   N15618462   3.040   3.992   3.163 -0.3983 -0.0465 -0.2652
  114MOL   H15718463   3.044   4.236   3.035  0.4213 -1.6914  0.1007
  114MOL   H15818464   2.997   4.236   3.211 -0.5313  0.8294  0.2264
  114MOL   H15918465   2.937   4.047   2.981  0.1799 -3.2693  0.9181
  114MOL   H16018466   3.129   4.036   3.146 -0.2952 -0.9612 -2.3215
  114MOL   H16118467   3.040   3.902   3.117 -0.5848 -1.1854  1.8958
  114MOL   H16218468   2.849   4.042   3.135  0.3233  0.1799  1.2021
  115MOL     C118469   2.452   1.374   0.887  0.3296  0.4182 -0.5426
  115MOL     C218470   2.592   1.310   0.907  0.3426  0.0060  0.0264
  115MOL     N318471   2.633   1.278   0.774 -0.5951  0.0006 -0.3259
  115MOL     H418472   2.393   1.301   0.832  0.6602  0.4545 -0.9468
  115MOL     H518473   2.454   1.458   0.818 -0.9092 -0.1286 -1.2514
  115MOL     H618474   2.594   1.217   0.964 -0.9050 -0.4615 -0.6787
  115MOL     H718475   2.722   1.230   0.780 -0.9737 -0.5241  1.1023
  115MOL     H818476   2.658   1.362   0.724 -1.5888  0.3497 -0.2465
  115MOL     H918477   2.391   1.392   0.976 -1.0494 -4.4871 -0.3352
  115MOL    C1018478   2.690   1.412   0.968  0.4541  0.0766  0.9961
  115MOL    C1118479   2.652   1.413   1.121 -0.1345  0.3843  0.0760
  115MOL    N1218480   2.767   1.374   1.205  0.4351 -0.6378  0.3690
  115MOL    H1318481   2.794   1.387   0.949 -0.0152 -1.0162 -0.2495
  115MOL    H1418482   2.674   1.510   0.923 -0.2912 -0.2570  0.5051
  115MOL    H1518483   2.575   1.340   1.147 -0.9221  1.7390  1.6118
  115MOL    H1618484   2.737   1.362   1.300  0.1684  1.3280  0.5397
  115MOL    H1718485   2.813   1.288   1.178 -0.3645 -1.3175  1.1406
  115MOL    C1818486   2.584   1.548   1.159 -0.6385 -0.4605  0.2964
  115MOL    C1918487   2.495   1.561   1.284  0.3418 -1.1722 -0.0742
  115MOL    N2018488   2.468   1.702   1.296  0.0651  0.1038 -0.1791
  115MOL    H2118489   2.662   1.624   1.157 -0.9427 -0.0785  1.9768
  115MOL    H2218490   2.515   1.582   1.082  0.4802 -0.1846 -0.5888
  115MOL    H2318491   2.562   1.537   1.367  0.6507  0.9896  0.3227
  115MOL    H2418492   2.551   1.757   1.315  1.9769 -2.9282  0.5365
  115MOL    H2518493   2.432   1.727   1.205  0.0209 -0.9483 -0.4545
  115MOL    C2618494   2.357   1.493   1.294  0.4300 -0.4118  0.0929
  115MOL    C2718495   2.359   1.343   1.337 -0.5899 -0.5401  0.0478
  115MOL    N2818496   2.376   1.336   1.478 -0.4456 -0.3401 -0.3986
  115MOL    H2918497   2.299   1.551   1.366  2.0588 -0.0611  1.1513
  115MOL    H3018498   2.309   1.494   1.196  1.7995 -1.1080 -0.6019
  115MOL    H3118499   2.431   1.280   1.285  0.3343  0.0721  0.5420
  115MOL    H3218500   2.404   1.243   1.504  1.2999  0.1787 -0.3531
  115MOL    H3318501   2.288   1.355   1.523  0.2706  1.0538  0.4607
  115MOL    C3418502   2.225   1.271   1.296 -0.2909  0.6525  0.4179
  115MOL    C3518503   2.221   1.204   1.156 -0.8329  0.8742 -1.0695
  115MOL    N3618504   2.294   1.075   1.179 -0.2234  0.0639 -0.2857
  115MOL    H3718505   2.190   1.198   1.369  0.1186 -0.6617 -0.6953
  115MOL    H3818506   2.146   1.347   1.298  0.7959  1.8088  0.0503
  115MOL    H3918507   2.279   1.271   1.092 -1.7693 -0.6536 -3.5565
  115MOL    H4018508   2.344   1.049   1.095 -0.7636 -0.7688 -0.3489
  115MOL    H4118509   2.221   1.005   1.175  2.3326 -2.7752  0.9420
  115MOL    C4218510   2.086   1.176   1.085  0.1691 -0.0902 -0.7213
  115MOL    C4318511   2.036   1.305   1.026 -0.1762 -0.5904  0.3909
  115MOL    N4418512   2.097   1.318   0.889 -0.3803  0.2267  0.1434
  115MOL    H4518513   2.091   1.098   1.010 -1.9685 -1.2674  0.2810
  115MOL    H4618514   2.016   1.149   1.164  0.3574  2.9194  0.5332
  115MOL    H4718515   2.062   1.388   1.091 -0.5124  1.1345 -1.6052
  115MOL    H4818516   2.193   1.288   0.898 -0.7506 -1.7814 -2.1729
  115MOL    H4918517   2.069   1.238   0.834 -0.2242 -0.7426  1.4502
  115MOL    C5018518   1.887   1.317   1.005  0.2464 -0.0322 -0.4580
  115MOL    C5118519   1.830   1.461   1.003  0.5588 -0.3063 -0.2275
  115MOL    N5218520   1.856   1.520   0.875  0.2268  0.5162  0.2872
  115MOL    H5318521   1.851   1.258   0.921 -1.1432 -1.3089  0.9968
  115MOL    H5418522   1.842   1.279   1.097  0.8006  0.5984  0.0831
  115MOL    H5518523   1.874   1.529   1.076  0.4626 -0.1902 -0.2782
  115MOL    H5618524   1.905   1.445   0.829 -0.5030 -0.8123  1.6147
  115MOL    H5718525   1.936   1.580   0.881 -0.5823  1.7169 -0.7621
  115MOL    C5818526   1.683   1.478   1.044 -0.3526 -0.2216 -0.6077
  115MOL    C5918527   1.643   1.457   1.194  0.6972  0.4117  0.0319
  115MOL    N6018528   1.703   1.564   1.261 -0.1173 -0.3902  0.1069
  115MOL    H6118529   1.643   1.573   1.008  1.7202  1.1446  0.5321
  115MOL    H6218530   1.635   1.405   0.979 -0.8277 -0.4959  0.0525
  115MOL    H6318531   1.678   1.357   1.216  0.3959  0.3826  0.3798
  115MOL    H6418532   1.690   1.553   1.360  0.2078 -0.4129  0.1470
  115MOL    H6518533   1.803   1.564   1.249 -0.2052  2.1586 -1.0783
  115MOL    C6618534   1.489   1.475   1.219  0.1914  0.2638  0.5464
  115MOL    C6718535   1.396   1.367   1.157 -0.1011 -0.1344  0.7929
  115MOL    N6818536   1.382   1.243   1.236  0.2535 -0.4467  0.4346
  115MOL    H6918537   1.470   1.478   1.326  0.0389  0.3880  0.5163
  115MOL    H7018538   1.448   1.570   1.185 -1.6702 -1.7224 -3.0702
  115MOL    H7118539   1.448   1.339   1.065  1.7162  5.3388 -0.0113
  115MOL    H7218540   1.476   1.205   1.239 -0.1767 -1.5804 -0.3355
  115MOL    H7318541   1.360   1.271   1.331 -0.1741 -0.0045  0.2015
  115MOL    C7418542   1.253   1.407   1.126  0.5021 -0.4518 -0.4333
  115MOL    C7518543   1.227   1.514   1.016 -0.0047  0.1736 -0.3117
  115MOL    N7618544   1.219   1.446   0.890  0.0553  0.0688 -0.3746
  115MOL    H7718545   1.182   1.328   1.102  0.2493  0.1646 -1.7575
  115MOL    H7818546   1.204   1.441   1.217  0.6942 -0.1623 -0.4371
  115MOL    H7918547   1.307   1.587   1.010  2.4267 -2.2994  0.5415
  115MOL    H8018548   1.312   1.413   0.866 -0.3524 -2.7230  1.6654
  115MOL    H8118549   1.197   1.512   0.817  0.1712  0.9435  0.3705
  115MOL    C8218550   1.094   1.582   1.050 -0.0283 -0.7839 -0.9506
  115MOL    C8318551   1.107   1.682   1.173  0.3336 -0.4177  0.6096
  115MOL    N8418552   1.181   1.799   1.126 -0.1075  0.4061 -0.4229
  115MOL    H8518553   1.037   1.627   0.969  0.0543  1.2543  0.0790
  115MOL    H8618554   1.023   1.505   1.081  0.1006 -0.9495 -1.0627
  115MOL    H8718555   1.172   1.637   1.248  1.6689 -0.5598 -0.5931
  115MOL    H8818556   1.113   1.868   1.098 -0.7399  0.5414  1.3894
  115MOL    H8918557   1.227   1.843   1.205  1.8603 -0.7388 -0.8855
  115MOL    C9018558   0.971   1.715   1.235  0.0297 -1.1171 -0.4352
  115MOL    C9118559   0.990   1.786   1.371 -0.1882  0.1753 -0.0054
  115MOL    N9218560   0.879   1.872   1.391  0.5380 -0.0328  0.1276
  115MOL    H9318561   0.918   1.790   1.176 -0.7554 -0.6446  0.8632
  115MOL    H9418562   0.893   1.640   1.243 -1.4690  0.5597  1.4009
  115MOL    H9518563   1.083   1.843   1.368  0.1019 -0.1319  2.4893
  115MOL    H9618564   0.902   1.937   1.464 -2.3226  2.1815 -0.8435
  115MOL    H9718565   0.884   1.931   1.309 -1.6194 -1.3508 -0.9981
  115MOL    C9818566   1.013   1.675   1.474 -1.0783 -0.6964  0.4725
  115MOL    C9918567   1.070   1.717   1.613 -0.2342 -0.5982 -0.8205
  115MOL   N10018568   0.977   1.670   1.714 -0.3350  0.0519 -0.0747
  115MOL   H10118569   0.914   1.631   1.479 -0.9205 -1.1953 -0.6415
  115MOL   H10218570   1.084   1.605   1.429  0.7461  2.0643 -1.1237
  115MOL   H10318571   1.067   1.825   1.626  1.7222 -0.6009 -0.3371
  115MOL   H10418572   0.891   1.718   1.692  0.4750  0.2556 -3.0519
  115MOL   H10518573   0.995   1.701   1.808 -1.2852 -1.0289  0.4865
  115MOL   C10618574   1.219   1.672   1.646 -0.0083  0.2015 -0.1585
  115MOL   C10718575   1.328   1.775   1.619 -0.7230 -0.5525 -0.5249
  115MOL   N10818576   1.442   1.756   1.710  0.5745 -0.1513 -0.3820
  115MOL   H10918577   1.234   1.640   1.749  0.4605  0.5235 -0.1282
  115MOL   H11018578   1.237   1.578   1.594 -2.2709 -0.4542  0.1891
  115MOL   H11118579   1.279   1.870   1.645  0.7985 -0.2185  1.2485
  115MOL   H11218580   1.404   1.764   1.803  1.2783  1.4443 -0.2182
  115MOL   H11318581   1.506   1.834   1.707  2.1109 -1.2644  1.8979
  115MOL   C11418582   1.379   1.779   1.476  0.2863  0.3441 -0.0071
  115MOL   C11518583   1.417   1.922   1.424 -0.7016  0.0245  0.3679
  115MOL   N11618584   1.480   1.908   1.296  0.5830 -0.2912 -0.3981
  115MOL   H11718585   1.461   1.708   1.472  1.4621  1.5385  2.3770
  115MOL   H11818586   1.301   1.730   1.417 -1.4605  1.8323  1.0157
  115MOL   H11918587   1.493   1.966   1.490  1.9581 -1.7933 -1.3617
  115MOL   H12018588   1.579   1.911   1.314  0.8011  3.1682 -1.7795
  115MOL   H12118589   1.479   1.811   1.268  0.4230  0.4280 -2.9737
  115MOL   C12218590   1.294   2.018   1.401  0.7472  0.4562 -0.2388
  115MOL   C12318591   1.313   2.172   1.404  0.1896 -0.2070 -0.5770
  115MOL   N12418592   1.179   2.225   1.362  0.3095 -0.0870  0.2257
  115MOL   H12518593   1.245   2.001   1.305  0.8391  3.4159 -0.8543
  115MOL   H12618594   1.217   1.983   1.471  1.3024  1.0291  0.6735
  115MOL   H12718595   1.373   2.220   1.327 -0.0985  1.5360  0.2397
  115MOL   H12818596   1.105   2.200   1.427 -0.5382  0.6102 -0.4540
  115MOL   H12918597   1.159   2.168   1.280 -1.4897  1.4870 -0.4522
  115MOL   C13018598   1.356   2.217   1.545  0.4421 -0.2551 -0.1754
  115MOL   C13118599   1.486   2.295   1.565  0.0109  0.5275  0.2573
  115MOL   N13218600   1.502   2.310   1.707 -0.3644 -0.8227  0.2170
  115MOL   H13318601   1.282   2.282   1.592  0.0107 -0.5119 -0.4981
  115MOL   H13418602   1.375   2.133   1.612  2.4418  0.6925  0.4750
  115MOL   H13518603   1.474   2.394   1.522 -0.8054 -0.3443 -1.5671
  115MOL   H13618604   1.434   2.370   1.751 -0.4165 -0.1858 -0.7254
  115MOL   H13718605   1.498   2.223   1.759 -0.6512  0.0733  1.7162
  115MOL   C13818606   1.614   2.222   1.507  0.0379 -0.0412  0.2065
  115MOL   C13918607   1.738   2.309   1.494  0.0890 -0.8131 -0.9845
  115MOL   N14018608   1.854   2.226   1.497  0.2645  0.0942  0.0904
  115MOL   H14118609   1.633   2.129   1.560  4.2928 -1.0816 -2.8949
  115MOL   H14218610   1.590   2.196   1.404  1.3238 -2.0527  0.3942
  115MOL   H14318611   1.743   2.371   1.584  2.1941  0.9656 -2.2642
  115MOL   H14418612   1.929   2.292   1.490  0.2653 -0.0178 -1.1083
  115MOL   H14518613   1.861   2.182   1.588 -1.8857 -0.8126 -0.1618
  115MOL   C14618614   1.762   2.408   1.376 -0.5451  0.3235  0.1148
  115MOL   C14718615   1.642   2.497   1.341 -0.0732 -0.0048  0.0244
  115MOL   N14818616   1.639   2.600   1.441 -0.3046  0.4840  0.2340
  115MOL   H14918617   1.847   2.471   1.402  1.4440 -2.9979  1.9161
  115MOL   H15018618   1.794   2.339   1.297 -1.9219  0.9456 -1.0051
  115MOL   H15118619   1.557   2.428   1.338 -0.5574  0.6507 -2.2652
  115MOL   H15218620   1.572   2.673   1.421  1.8429  2.4902  0.2026
  115MOL   H15318621   1.621   2.556   1.530  0.4978 -1.0412 -0.3227
  115MOL   C15418622   1.654   2.567   1.203  0.4903 -0.1833  0.1728
  115MOL   C15518623   1.585   2.474   1.099 -0.1758  0.1638  0.4377
  115MOL   N15618624   1.593   2.538   0.975  0.4700 -0.1338  0.5718
  115MOL   H15718625   1.588   2.653   1.215  0.2643  0.1221 -2.8989
  115MOL   H15818626   1.755   2.596   1.174  0.0519  0.0033 -1.2198
  115MOL   H15918627   1.481   2.448   1.120 -0.5206 -0.9397 -2.4794
  115MOL   H16018628   1.575   2.636   0.994 -1.4282 -0.4010  0.2172
  115MOL   H16118629   1.526   2.504   0.908  0.3873  1.3460 -0.1231
  115MOL   H16218630   1.635   2.378   1.090 -3.0304 -1.3742  0.5824
  116MOL     C118631   5.918   6.467   6.803  0.5022 -0.2755 -1.0990
  116MOL     C218632   5.831   6.396   6.918  0.5467 -0.6242 -0.0289
  116MOL     N318633   5.696   6.450   6.908 -0.1617  0.4055  0.0380
  116MOL     H418634   6.025   6.447   6.808  0.6661  0.9191  0.5331
  116MOL     H518635   5.910   6.576   6.794 -0.0092 -0.3465 -1.5198
  116MOL     H618636   5.870   6.419   7.017 -1.5875  0.5673  0.5435
  116MOL     H718637   5.642   6.446   6.994 -0.0833  3.2026  0.2874
  116MOL     H818638   5.645   6.398   6.839  0.2260  0.0342  0.0357
  116MOL     H918639   5.888   6.414   6.713  0.1717 -1.7047 -0.1650
  116MOL    C1018640   5.824   6.238   6.903  0.2130  0.9652  0.4466
  116MOL    C1118641   5.928   6.156   6.975  0.0043 -0.6650 -0.3388
  116MOL    N1218642   5.906   6.155   7.124  0.0523 -0.3319  0.2291
  116MOL    H1318643   5.721   6.206   6.919  1.5162 -2.3141  2.6878
  116MOL    H1418644   5.834   6.214   6.797  2.8639 -1.5620  1.2102
  116MOL    H1518645   6.025   6.206   6.966  0.4718 -0.9249  2.7136
  116MOL    H1618646   5.806   6.141   7.128 -0.1753 -0.1493 -3.1615
  116MOL    H1718647   5.906   6.251   7.153 -0.1254 -0.4572  0.6471
  116MOL    C1818648   5.943   6.012   6.932 -0.4269 -1.0368  0.2842
  116MOL    C1918649   6.087   5.996   6.869 -0.4731  0.5846  0.3074
  116MOL    N2018650   6.120   5.863   6.832  0.3013 -0.4173  0.1123
  116MOL    H2118651   5.935   5.945   7.017  0.4832 -0.1253  1.1084
  116MOL    H2218652   5.865   5.990   6.859  0.1291  0.4886 -0.7986
  116MOL    H2318653   6.156   6.025   6.948 -0.1987  0.1697  0.2251
  116MOL    H2418654   6.220   5.874   6.824  0.0841  2.2205  0.7031
  116MOL    H2518655   6.097   5.815   6.918  1.1507  0.4490  0.8268
  116MOL    C2618656   6.114   6.078   6.740  0.1297 -0.3320 -0.5906
  116MOL    C2718657   6.266   6.104   6.712  0.0658 -0.3936 -0.3024
  116MOL    N2818658   6.277   6.166   6.578 -0.5908  0.2117  0.4644
  116MOL    H2918659   6.064   6.028   6.657  0.2987  0.6195 -1.2770
  116MOL    H3018660   6.074   6.180   6.743 -0.0871 -0.4117 -0.7834
  116MOL    H3118661   6.319   6.009   6.715 -0.8683 -0.8939  1.0517
  116MOL    H3218662   6.251   6.091   6.515 -0.7483 -0.5849  1.4663
  116MOL    H3318663   6.376   6.178   6.562 -0.4438  0.3249  1.4213
  116MOL    C3418664   6.320   6.207   6.808  0.8101 -0.0639 -0.1117
  116MOL    C3518665   6.474   6.230   6.817  0.2616  0.3762 -0.8216
  116MOL    N3618666   6.491   6.358   6.891 -0.0745  0.2919 -0.0682
  116MOL    H3718667   6.271   6.302   6.786  0.7073 -0.4457 -1.5587
  116MOL    H3818668   6.286   6.167   6.905 -0.0321 -1.5707 -0.9975
  116MOL    H3918669   6.525   6.240   6.722  0.4118 -1.6534 -0.9771
  116MOL    H4018670   6.465   6.426   6.822  0.9362 -0.4177 -1.1542
  116MOL    H4118671   6.591   6.368   6.900  0.0641 -0.5806 -0.5692
  116MOL    C4218672   6.549   6.127   6.916  0.0784  0.6026  0.4669
  116MOL    C4318673   6.599   5.995   6.839 -0.5710 -0.3789 -0.1836
  116MOL    N4418674   6.729   5.960   6.883  0.5174  0.6622  0.3590
  116MOL    H4518675   6.625   6.177   6.976 -0.0675 -0.2576  1.3858
  116MOL    H4618676   6.478   6.107   6.996 -1.9976 -0.4011 -1.5741
  116MOL    H4718677   6.615   6.020   6.735  5.1604 -1.1940  0.3480
  116MOL    H4818678   6.811   6.006   6.844 -0.3685  0.5597 -1.6974
  116MOL    H4918679   6.752   5.867   6.851  0.0353  0.1374  1.5251
  116MOL    C5018680   6.515   5.864   6.854 -0.5146 -0.7791  0.1675
  116MOL    C5118681   6.557   5.739   6.764  0.2751  0.4588 -0.2554
  116MOL    N5218682   6.678   5.681   6.812  0.5423  0.5154  0.5563
  116MOL    H5318683   6.517   5.827   6.956  4.0169 -0.6474  0.2046
  116MOL    H5418684   6.407   5.879   6.846 -0.2072  1.4770 -0.2387
  116MOL    H5518685   6.587   5.776   6.666 -0.8478  0.9533 -0.4214
  116MOL    H5618686   6.663   5.650   6.907 -0.7104  1.3579  0.6490
  116MOL    H5718687   6.695   5.595   6.761 -0.6389  1.9905 -2.3908
  116MOL    C5818688   6.443   5.631   6.752 -0.0009  0.1646 -0.2485
  116MOL    C5918689   6.350   5.659   6.629  0.1154 -0.5932  0.3911
  116MOL    N6018690   6.409   5.624   6.498 -0.0192  0.2670 -0.6929
  116MOL    H6118691   6.465   5.525   6.744 -1.2276 -0.1338  0.2859
  116MOL    H6218692   6.382   5.635   6.842 -2.2262  1.9883 -1.7669
  116MOL    H6318693   6.330   5.766   6.618 -0.1242 -0.8393 -1.7126
  116MOL    H6418694   6.420   5.524   6.488  2.5345  0.5397 -1.0691
  116MOL    H6518695   6.510   5.635   6.495  0.3450 -2.4247  0.5448
  116MOL    C6618696   6.213   5.585   6.629 -0.3271 -0.4484  0.2717
  116MOL    C6718697   6.102   5.659   6.550  0.8063 -0.4113  0.4844
  116MOL    N6818698   6.139   5.658   6.409  0.7254 -0.5361  0.0234
  116MOL    H6918699   6.229   5.479   6.610 -1.8114 -0.6904  0.3643
  116MOL    H7018700   6.179   5.584   6.733  0.8930 -1.8220  0.6753
  116MOL    H7118701   6.108   5.765   6.576 -2.0183 -0.3334  0.9084
  116MOL    H7218702   6.239   5.670   6.414  0.5334  0.6209  1.4807
  116MOL    H7318703   6.121   5.562   6.384 -0.1169 -0.3812  0.0101
  116MOL    C7418704   5.956   5.612   6.567  0.2078 -0.0502  0.1458
  116MOL    C7518705   5.904   5.632   6.714 -0.1121  0.2166 -0.1717
  116MOL    N7618706   5.843   5.766   6.729 -0.3595 -0.2780  0.2071
  116MOL    H7718707   5.901   5.660   6.486  1.1284 -0.7624 -0.9372
  116MOL    H7818708   5.949   5.507   6.539  1.5863  0.1210 -0.9543
  116MOL    H7918709   5.989   5.625   6.783 -0.4167 -2.7647 -0.0244
  116MOL    H8018710   5.918   5.834   6.731 -1.3863  1.0740 -2.8051
  116MOL    H8118711   5.791   5.769   6.815 -1.6651  0.4655 -0.5918
  116MOL    C8218712   5.796   5.525   6.752 -0.7324  0.3122 -0.1045
  116MOL    C8318713   5.774   5.502   6.898  0.4128  0.7684  0.0530
  116MOL    N8418714   5.647   5.442   6.927  0.2252  0.1670  0.4422
  116MOL    H8518715   5.703   5.539   6.697 -0.7379 -0.8823 -0.4192
  116MOL    H8618716   5.815   5.428   6.706  1.0386  0.9377 -0.7458
  116MOL    H8718717   5.765   5.601   6.943 -1.3097  1.3921 -1.5950
  116MOL    H8818718   5.620   5.465   7.021 -3.2240  2.5564 -1.0481
  116MOL    H8918719   5.571   5.495   6.886 -2.7663 -1.9366  3.1095
  116MOL    C9018720   5.893   5.419   6.962 -0.1148 -0.4235  0.2918
  116MOL    C9118721   5.958   5.482   7.085  0.1647  0.1606 -0.0795
  116MOL    N9218722   6.036   5.389   7.162  0.5803 -0.0965 -0.1388
  116MOL    H9318723   5.850   5.323   6.990 -3.6579  0.7158 -1.0646
  116MOL    H9418724   5.960   5.396   6.880 -0.3382 -1.6275  0.4391
  116MOL    H9518725   5.876   5.523   7.145  0.4626  1.9043 -0.8230
  116MOL    H9618726   5.980   5.304   7.162  3.8696 -2.4002 -1.8832
  116MOL    H9718727   6.054   5.413   7.258  0.8729 -2.5016  0.4560
  116MOL    C9818728   6.049   5.598   7.046 -0.4370  0.0870 -0.3813
  116MOL    C9918729   6.111   5.681   7.164 -0.5914 -0.0440 -0.3086
  116MOL   N10018730   6.218   5.762   7.107 -0.0572 -0.5222 -0.1990
  116MOL   H10118731   6.126   5.570   6.974 -0.8070  1.9178 -1.5288
  116MOL   H10218732   5.984   5.662   6.986 -0.2296  0.0633 -0.6279
  116MOL   H10318733   6.163   5.614   7.233 -2.0044 -0.0844  0.7441
  116MOL   H10418734   6.300   5.718   7.144 -0.5128 -0.0422  1.4364
  116MOL   H10518735   6.210   5.850   7.157  0.0388 -1.0905  0.8253
  116MOL   C10618736   6.003   5.765   7.244 -0.0250  0.1325 -0.1547
  116MOL   C10718737   5.994   5.729   0.120 -0.6464  0.6055  0.0624
  116MOL   N10818738   6.117   5.770   0.187  0.5899  0.0294 -0.2330
  116MOL   H10918739   6.009   5.874   7.240  2.1857  0.0016 -1.1296
  116MOL   H11018740   5.906   5.748   7.199  0.3598 -0.1349 -0.8888
  116MOL   H11118741   5.987   5.620   0.120  0.9752  0.4620 -2.2202
  116MOL   H11218742   6.196   5.729   0.140  0.4363 -0.3411 -0.1678
  116MOL   H11318743   6.123   5.728   0.278  0.3572  0.7219  0.1043
  116MOL   C11418744   5.869   5.795   0.201 -0.6497  0.6509 -0.7181
  116MOL   C11518745   5.732   5.809   0.135  0.3669  0.2729 -0.5417
  116MOL   N11618746   5.626   5.815   0.238 -0.4941 -0.2208  0.1884
  116MOL   H11718747   5.859   5.745   0.297  1.1877 -2.7229 -2.1671
  116MOL   H11818748   5.895   5.896   0.233 -0.4163  0.6252 -0.8204
  116MOL   H11918749   5.713   5.720   0.076  1.5700  0.3048 -0.9868
  116MOL   H12018750   5.559   5.847   0.169 -2.5488 -0.4628  2.0049
  116MOL   H12118751   5.590   5.727   0.272 -0.4324 -0.0597  0.6758
  116MOL   C12218752   5.714   5.937   0.052  0.0148  0.2676 -0.5204
  116MOL   C12318753   5.612   5.940   7.218  0.6461  0.1238 -0.5045
  116MOL   N12418754   5.626   6.066   7.147  0.0443  0.4087  0.4885
  116MOL   H12518755   5.694   6.020   0.120  0.2506  0.6709 -0.9387
  116MOL   H12618756   5.812   5.950   0.008  1.0369  0.4600  1.7477
  116MOL   H12718757   5.513   5.947   7.263  1.5693  0.4065  1.5486
  116MOL   H12818758   5.608   6.143   7.210  0.9329 -0.0781  1.3632
  116MOL   H12918759   5.549   6.069   7.082  2.0053  1.6513 -1.8522
  116MOL   C13018760   5.623   5.830   7.115  0.5117  0.1675 -0.0668
  116MOL   C13118761   5.497   5.803   7.033 -0.4860  0.2984 -0.2501
  116MOL   N13218762   5.549   5.748   6.904 -0.8525  0.1007  0.5088
  116MOL   H13318763   5.701   5.860   7.045  1.0788 -0.6799  0.1954
  116MOL   H13418764   5.652   5.728   7.143  0.9794  0.0017 -1.1416
  116MOL   H13518765   5.454   5.899   7.002  1.9363  0.7699 -2.3629
  116MOL   H13618766   5.585   5.821   6.844  0.3356 -0.8740  0.0076
  116MOL   H13718767   5.475   5.714   6.845 -1.3174 -0.7756  1.5921
  116MOL   C13818768   5.393   5.705   7.091 -0.1984 -0.7569 -0.3740
  116MOL   C13918769   5.308   5.755   7.212 -0.0962  0.3558 -0.6592
  116MOL   N14018770   5.378   5.741   0.061 -0.5306 -0.1444  0.1717
  116MOL   H14118771   5.313   5.701   7.017 -1.7243  2.5396  0.9786
  116MOL   H14218772   5.429   5.603   7.105 -0.3695 -0.8747 -0.7924
  116MOL   H14318773   5.228   5.682   7.203 -0.7933  1.3616 -2.9310
  116MOL   H14418774   5.301   5.751   0.125 -0.2030 -0.0186  0.5438
  116MOL   H14518775   5.408   5.645   0.063  0.1657 -0.0631 -2.8958
  116MOL   C14618776   5.236   5.890   7.218 -0.3246  0.3044  0.1172
  116MOL   C14718777   5.122   5.906   0.045 -0.6657  0.0580 -0.4272
  116MOL   N14818778   5.148   6.030   0.124 -0.1609  0.0137  0.2852
  116MOL   H14918779   5.311   5.969   7.224  0.7361 -0.3579 -3.4198
  116MOL   H15018780   5.186   5.899   7.122 -1.3230 -0.8817  0.5199
  116MOL   H15118781   5.135   5.820   0.112  0.6944 -0.8402 -1.8131
  116MOL   H15218782   5.112   6.015   0.217  1.0256  0.9889  0.9123
  116MOL   H15318783   5.247   6.047   0.130 -0.1995  1.0629 -1.4852
  116MOL   C15418784   4.973   5.925   7.270  0.1374 -0.3057  0.2111
  116MOL   C15518785   4.897   5.797   7.249 -0.0539  0.3391 -0.0361
  116MOL   N15618786   4.768   5.819   7.183 -0.0578  0.3300 -0.2232
  116MOL   H15718787   4.923   5.981   0.073  1.9275 -1.9965  2.6429
  116MOL   H15818788   4.982   5.983   7.179  2.9030 -2.0378 -0.6902
  116MOL   H15918789   4.867   5.757   0.070  2.2759  1.2327  1.0715
  116MOL   H16018790   4.779   5.818   7.083  0.3282  0.3635 -0.1812
  116MOL   H16118791   4.709   5.738   7.198  0.3854 -0.0239 -0.3725
  116MOL   H16218792   4.967   5.728   7.203  0.5951  0.6013  0.5479
  117MOL     C118793   5.882   3.247   3.749 -0.4404 -0.0476  1.0258
  117MOL     C218794   5.766   3.157   3.773 -0.9984  0.3376  0.0837
  117MOL     N318795   5.806   3.022   3.770 -0.2086  0.3020  0.8593
  117MOL     H418796   5.961   3.199   3.692  1.0110  3.4440 -0.0576
  117MOL     H518797   5.946   3.266   3.836 -0.7790  2.5292  0.7554
  117MOL     H618798   5.700   3.172   3.687  2.5086  0.5045 -2.7110
  117MOL     H718799   5.730   2.961   3.794 -1.3244  0.7262 -1.4379
  117MOL     H818800   5.879   3.006   3.837 -0.8121  0.2524  1.5039
  117MOL     H918801   5.847   3.339   3.704 -0.2633 -0.5672 -0.1864
  117MOL    C1018802   5.690   3.208   3.901 -0.9135  0.1135 -0.4423
  117MOL    C1118803   5.535   3.215   3.910 -0.0523  0.6333 -0.1897
  117MOL    N1218804   5.474   3.317   3.824  0.0240 -0.6506  0.3411
  117MOL    H1318805   5.740   3.178   3.993  0.2057  1.2143 -0.6774
  117MOL    H1418806   5.711   3.314   3.911  0.6259 -0.0432 -1.7328
  117MOL    H1518807   5.523   3.254   4.011 -0.1928 -0.1685  0.1029
  117MOL    H1618808   5.375   3.294   3.832  0.1901 -1.6851 -0.4162
  117MOL    H1718809   5.510   3.306   3.730 -0.2204 -1.6631  0.3597
  117MOL    C1818810   5.463   3.078   3.887 -0.4824  0.7823 -1.1251
  117MOL    C1918811   5.492   2.967   3.981  0.9995 -0.3449 -0.2373
  117MOL    N2018812   5.426   2.982   4.109  0.3360 -0.6338 -0.2386
  117MOL    H2118813   5.355   3.089   3.877 -0.9233 -0.1892  1.9709
  117MOL    H2218814   5.495   3.058   3.785 -0.0051 -1.2646 -0.5982
  117MOL    H2318815   5.600   2.955   3.988  0.9223  0.1578  2.2840
  117MOL    H2418816   5.477   2.933   4.180  1.3308  0.5694 -0.1031
  117MOL    H2518817   5.429   3.073   4.153 -0.3180 -0.5850 -0.2782
  117MOL    C2618818   5.434   2.831   3.932 -0.1527 -0.0733  0.1993
  117MOL    C2718819   5.527   2.760   3.827 -0.2187 -0.2576 -0.8820
  117MOL    N2818820   5.645   2.718   3.899 -0.2485  0.4538  0.0133
  117MOL    H2918821   5.417   2.763   4.016  1.1676  1.2717  1.5929
  117MOL    H3018822   5.337   2.839   3.885  0.0046  1.1995  0.0646
  117MOL    H3118823   5.567   2.827   3.752 -0.6188 -0.7197 -1.5160
  117MOL    H3218824   5.630   2.635   3.954  2.0065  1.2215  1.8598
  117MOL    H3318825   5.716   2.687   3.834 -0.3584 -2.4607  1.2304
  117MOL    C3418826   5.460   2.633   3.773  0.8122 -0.3960  0.2066
  117MOL    C3518827   5.361   2.669   3.656  0.4801  0.1224 -0.2608
  117MOL    N3618828   5.411   2.616   3.525 -1.1433  0.0841 -0.4716
  117MOL    H3718829   5.533   2.563   3.732 -0.8288 -2.0554  0.0678
  117MOL    H3818830   5.409   2.576   3.851  0.6319  1.4151  1.4485
  117MOL    H3918831   5.362   2.777   3.648  1.9798  0.2598  1.4258
  117MOL    H4018832   5.415   2.515   3.532 -1.6711  0.1158  0.2753
  117MOL    H4118833   5.339   2.642   3.459 -1.2211  0.1253 -0.3696
  117MOL    C4218834   5.219   2.599   3.662 -0.1761 -0.2993  0.1557
  117MOL    C4318835   5.132   2.630   3.785  0.7029  0.9345  0.3289
  117MOL    N4418836   5.117   2.772   3.797  0.2502 -0.4870 -0.4539
  117MOL    H4518837   5.162   2.621   3.572  0.1884 -0.2814 -0.0703
  117MOL    H4618838   5.243   2.493   3.671 -0.8753 -0.4726 -0.0243
  117MOL    H4718839   5.188   2.604   3.875  0.6119 -0.1441  0.0797
  117MOL    H4818840   5.115   2.808   3.892  0.4260 -0.4271 -0.4739
  117MOL    H4918841   5.193   2.815   3.746  0.6503  1.5260  1.7431
  117MOL    C5018842   4.997   2.562   3.790  0.5519  0.1333  0.1446
  117MOL    C5118843   5.010   2.411   3.827  0.7196 -0.1185  0.1298
  117MOL    N5218844   4.985   2.399   3.969 -0.4508 -0.1667 -0.0620
  117MOL    H5318845   4.928   2.623   3.848  2.8047  0.4148  2.6653
  117MOL    H5418846   4.959   2.570   3.688  2.2252 -0.1259 -0.5230
  117MOL    H5518847   5.107   2.371   3.796  0.8825 -0.0063  0.4992
  117MOL    H5618848   4.924   2.320   3.989 -1.6445  0.5472 -0.7992
  117MOL    H5718849   5.063   2.358   4.019  0.2808 -1.7502 -2.4029
  117MOL    C5818850   4.914   2.317   3.750 -0.0032  0.1760 -0.4337
  117MOL    C5918851   4.963   2.294   3.606  0.0975 -0.2251  0.5871
  117MOL    N6018852   5.075   2.200   3.601 -0.3099  0.3735 -0.2248
  117MOL    H6118853   4.890   2.220   3.793 -1.6686  1.1661  0.9526
  117MOL    H6218854   4.814   2.359   3.753 -0.3759 -0.7974  0.9764
  117MOL    H6318855   5.004   2.380   3.553  3.7847 -2.3672 -0.2240
  117MOL    H6418856   5.071   2.159   3.508 -2.0618 -1.9134  0.8268
  117MOL    H6518857   5.070   2.117   3.658  1.8188  0.2940 -0.1009
  117MOL    C6618858   4.843   2.235   3.525  0.8098  0.0868  0.3687
  117MOL    C6718859   4.734   2.333   3.471 -0.1272 -0.7754  0.6282
  117MOL    N6818860   4.799   2.432   3.384  0.3355 -0.4152 -0.4346
  117MOL    H6918861   4.874   2.184   3.434  0.8324 -0.9398  0.9401
  117MOL    H7018862   4.791   2.157   3.581  0.1131 -0.6110 -1.2248
  117MOL    H7118863   4.699   2.381   3.562  0.6821  0.0257  0.5279
  117MOL    H7218864   4.878   2.475   3.431 -1.2034  1.3552  0.5843
  117MOL    H7318865   4.740   2.511   3.363  0.2619 -0.3814 -0.1092
  117MOL    C7418866   4.621   2.271   3.381  0.5907  0.3748  0.0806
  117MOL    C7518867   4.550   2.162   3.454 -0.0074 -0.2340  0.7794
  117MOL    N7618868   4.411   2.203   3.451 -0.1744 -0.2733  0.4237
  117MOL    H7718869   4.550   2.347   3.348 -0.3493 -0.7661 -0.5996
  117MOL    H7818870   4.663   2.239   3.286 -0.6216  3.2793 -1.4763
  117MOL    H7918871   4.582   2.155   3.558  0.1992  0.9796  0.8095
  117MOL    H8018872   4.384   2.236   3.359 -1.2034 -0.8165  0.5164
  117MOL    H8118873   4.395   2.285   3.509 -3.3122 -0.2028 -0.4180
  117MOL    C8218874   4.563   2.022   3.385  0.7244  0.8460  0.2166
  117MOL    C8318875   4.530   1.901   3.480 -0.1170  0.1319  0.0072
  117MOL    N8418876   4.383   1.890   3.490 -0.2473  0.2100 -0.1381
  117MOL    H8518877   4.506   2.028   3.292 -0.2490 -1.7054  0.6124
  117MOL    H8618878   4.666   2.024   3.351  0.5687  4.1116 -0.2196
  117MOL    H8718879   4.583   1.914   3.574  0.6521  1.5465 -0.5972
  117MOL    H8818880   4.355   1.987   3.495  0.9928  0.6031 -0.6020
  117MOL    H8918881   4.351   1.856   3.400 -2.6823 -1.2123  1.2004
  117MOL    C9018882   4.580   1.766   3.420  0.1321 -0.4063  0.4461
  117MOL    C9118883   4.733   1.760   3.407 -1.0522 -0.1439 -0.6363
  117MOL    N9218884   4.787   1.749   3.544  0.3425 -0.0479  0.5423
  117MOL    H9318885   4.556   1.679   3.481 -1.7275 -2.4595 -3.0525
  117MOL    H9418886   4.531   1.742   3.325  1.5248  2.8155 -1.1639
  117MOL    H9518887   4.775   1.859   3.388 -1.3041 -0.1472 -1.2128
  117MOL    H9618888   4.719   1.774   3.614 -0.2608 -0.0290 -0.0482
  117MOL    H9718889   4.798   1.649   3.556 -3.6395 -0.8053 -1.1903
  117MOL    C9818890   4.787   1.643   3.316 -0.8617 -0.6546  0.2416
  117MOL    C9918891   4.943   1.623   3.308  0.2262 -0.1350 -0.1038
  117MOL   N10018892   4.971   1.479   3.310  0.1584 -0.1475 -0.0629
  117MOL   H10118893   4.741   1.554   3.360 -0.9284  1.0989  3.9695
  117MOL   H10218894   4.750   1.642   3.214  1.8343  0.0636 -0.7811
  117MOL   H10318895   4.994   1.650   3.400 -0.9054 -0.8881  0.7605
  117MOL   H10418896   4.943   1.438   3.222  1.8478  0.8019 -1.0564
  117MOL   H10518897   5.071   1.469   3.298  0.1788 -2.9628  1.8817
  117MOL   C10618898   4.999   1.678   3.185  0.1302 -0.9167  0.2569
  117MOL   C10718899   4.977   1.828   3.166  0.1112 -0.2357 -0.3191
  117MOL   N10818900   5.049   1.898   3.273  0.5281 -0.2599  0.2184
  117MOL   H10918901   5.107   1.665   3.182  0.1990 -0.5606  0.9720
  117MOL   H11018902   4.963   1.634   3.093 -1.1017 -0.5541  0.5609
  117MOL   H11118903   4.872   1.850   3.182 -0.3689 -1.4905 -1.6532
  117MOL   H11218904   5.022   1.996   3.272 -2.9623 -1.1632  0.5567
  117MOL   H11318905   5.030   1.866   3.367  2.0003  2.2643  1.4576
  117MOL   C11418906   5.044   1.878   3.027 -0.2002 -0.1645  0.1537
  117MOL   C11518907   4.955   1.970   2.942  1.1057 -0.2622 -0.1719
  117MOL   N11618908   5.047   2.067   2.888 -0.6288  0.4812  0.3730
  117MOL   H11718909   5.145   1.918   3.038 -0.1714 -0.5664  1.4210
  117MOL   H11818910   5.061   1.784   2.975 -2.2056  0.2765 -1.3512
  117MOL   H11918911   4.891   2.026   3.010  2.1654 -0.1678  0.7528
  117MOL   H12018912   5.010   2.160   2.870 -0.2951  0.6197  0.4013
  117MOL   H12118913   5.107   2.032   2.815 -0.0244 -0.6820  1.4367
  117MOL   C12218914   4.862   1.908   2.844  0.0355  1.0417  0.3126
  117MOL   C12318915   4.739   1.855   2.915 -0.1278  0.0268 -0.8216
  117MOL   N12418916   4.657   1.967   2.964  0.4462  0.5434 -0.0987
  117MOL   H12518917   4.822   1.986   2.780  0.1745  0.7670 -0.1093
  117MOL   H12618918   4.930   1.839   2.793 -0.3276  0.5229  0.5210
  117MOL   H12718919   4.766   1.791   2.999  3.0014 -1.3006 -2.7227
  117MOL   H12818920   4.622   2.009   2.879 -1.1962  0.5037  0.5454
  117MOL   H12918921   4.571   1.937   3.006  0.6237 -0.5182 -0.4660
  117MOL   C13018922   4.656   1.768   2.815  0.4399  0.3471  0.5039
  117MOL   C13118923   4.682   1.617   2.810  0.2529 -0.3445  0.4706
  117MOL   N13218924   4.567   1.559   2.739  0.0424  0.0401 -0.0495
  117MOL   H13318925   4.559   1.766   2.863  0.6190  1.4021  0.9186
  117MOL   H13418926   4.647   1.804   2.713 -1.0063 -2.5352 -0.4370
  117MOL   H13518927   4.659   1.583   2.911 -1.7008  0.6328  0.3584
  117MOL   H13618928   4.560   1.572   2.639  0.8258  1.1194  0.0289
  117MOL   H13718929   4.567   1.458   2.734 -0.3508  0.1020 -1.6715
  117MOL   C13818930   4.809   1.564   2.753  0.3411  0.8906 -0.4512
  117MOL   C13918931   4.836   1.414   2.781 -0.1530 -0.5441  0.5238
  117MOL   N14018932   4.948   1.380   2.689  0.0303 -0.1573 -0.2097
  117MOL   H14118933   4.823   1.602   2.652 -0.6041  2.3791 -0.0367
  117MOL   H14218934   4.885   1.621   2.806  1.1226 -1.2555  0.7888
  117MOL   H14318935   4.745   1.360   2.755 -0.7136  0.5666  0.1760
  117MOL   H14418936   4.977   1.283   2.695 -1.6284 -0.8428 -2.2901
  117MOL   H14518937   4.917   1.392   2.593 -0.6175  2.3273  0.2920
  117MOL   C14618938   4.886   1.389   2.928 -0.6326  0.8317 -0.0504
  117MOL   C14718939   4.920   1.244   2.961 -0.6571  0.6387 -0.0421
  117MOL   N14818940   5.002   1.240   3.068 -0.0297  0.2088 -1.1665
  117MOL   H14918941   4.970   1.458   2.940  0.4987 -0.7478  1.2863
  117MOL   H15018942   4.815   1.428   3.001 -0.5369  0.8194  0.0491
  117MOL   H15118943   4.975   1.201   2.877  2.3190  2.6466  0.8362
  117MOL   H15218944   5.096   1.259   3.036 -0.1488 -1.0188 -2.2585
  117MOL   H15318945   5.016   1.144   3.095  0.2308  0.8878  1.2246
  117MOL   C15418946   4.797   1.149   2.990 -0.0977  0.2443  0.6422
  117MOL   C15518947   4.716   1.109   2.864 -0.6179 -0.9869  0.0754
  117MOL   N15618948   4.629   0.995   2.896 -0.3799 -0.2428 -0.2184
  117MOL   H15718949   4.839   1.059   3.035  1.5562  0.5187 -0.2848
  117MOL   H15818950   4.741   1.195   3.072 -1.1127  0.3324 -0.0952
  117MOL   H15918951   4.776   1.092   2.775  0.2043 -1.1526  0.6617
  117MOL   H16018952   4.680   0.908   2.897  0.9960  0.5455 -1.3035
  117MOL   H16118953   4.578   0.980   2.811 -1.4729 -0.0784  0.3919
  117MOL   H16218954   4.643   1.186   2.840  0.1501 -0.2386  0.1319
  118MOL     C118955   5.181   4.853   1.867 -0.1398 -0.0521 -0.2242
  118MOL     C218956   5.058   4.938   1.902  0.2439 -0.8919 -0.2125
  118MOL     N318957   4.998   4.980   1.778  0.0840 -0.7792 -0.4848
  118MOL     H418958   5.235   4.817   1.954  1.3396 -0.3894 -1.2558
  118MOL     H518959   5.247   4.900   1.795 -1.7881 -0.8155 -2.2916
  118MOL     H618960   5.104   5.017   1.962  1.7252 -2.2540  0.4695
  118MOL     H718961   4.934   5.057   1.790  0.4476 -0.2087 -2.0231
  118MOL     H818962   4.936   4.909   1.742 -0.5202 -0.9354  0.8502
  118MOL     H918963   5.161   4.756   1.820 -0.4413  0.4731 -1.1932
  118MOL    C1018964   4.961   4.859   1.990  0.4399  0.1367 -0.4994
  118MOL    C1118965   4.871   4.952   2.065  0.0631 -0.9936  0.1124
  118MOL    N1218966   4.754   4.884   2.114  0.1080 -0.2222  0.0729
  118MOL    H1318967   4.905   4.798   1.919  2.5442 -1.4772 -0.8304
  118MOL    H1418968   5.014   4.785   2.050  1.6883  0.0797 -1.6543
  118MOL    H1518969   4.837   5.033   2.001 -1.3615 -1.6726 -0.0161
  118MOL    H1618970   4.677   4.890   2.049  0.9397 -3.0148 -1.2816
  118MOL    H1718971   4.721   4.923   2.201  0.4351 -0.8765  0.4980
  118MOL    C1818972   4.939   5.028   2.190 -0.6567 -0.1420 -0.2949
  118MOL    C1918973   4.916   5.182   2.201  0.1853 -0.5207 -0.1365
  118MOL    N2018974   4.993   5.204   2.324 -0.0486  0.6050  0.7208
  118MOL    H2118975   4.912   4.985   2.286 -3.5690  1.1517 -0.4713
  118MOL    H2218976   5.048   5.023   2.190 -0.5803  1.1682 -0.9151
  118MOL    H2318977   4.813   5.211   2.223 -1.7175 -4.9043 -2.5766
  118MOL    H2418978   4.984   5.130   2.391 -0.3642  1.1292  1.2560
  118MOL    H2518979   4.941   5.278   2.370 -0.6759  0.5738  0.0733
  118MOL    C2618980   4.975   5.268   2.082 -0.9061  0.1017  0.6360
  118MOL    C2718981   4.876   5.356   2.017  0.1366 -0.6548  0.5347
  118MOL    N2818982   4.934   5.436   1.909 -0.4089  0.2896  0.6301
  118MOL    H2918983   5.061   5.323   2.120  1.7279 -2.4611 -1.3755
  118MOL    H3018984   5.011   5.193   2.012  1.4600  0.0949  1.8029
  118MOL    H3118985   4.831   5.421   2.092 -2.4942  0.6645 -2.0795
  118MOL    H3218986   5.028   5.464   1.933 -0.0219  0.8221 -1.3908
  118MOL    H3318987   4.878   5.506   1.862 -0.6342  0.4195  1.0946
  118MOL    C3418988   4.750   5.283   1.951 -0.5699  0.2324 -0.1764
  118MOL    C3518989   4.624   5.367   1.929 -0.6246  0.1252  0.8297
  118MOL    N3618990   4.535   5.280   1.855 -0.0833 -0.0785 -0.0039
  118MOL    H3718991   4.791   5.221   1.872  1.5079  0.6432  0.5646
  118MOL    H3818992   4.722   5.212   2.028  0.6064  0.6685  0.6744
  118MOL    H3918993   4.657   5.453   1.872  0.5472  0.0623  1.4037
  118MOL    H4018994   4.580   5.278   1.765 -3.5705  0.0339 -1.8246
  118MOL    H4118995   4.448   5.324   1.828 -0.5751 -0.5877  0.7182
  118MOL    C4218996   4.561   5.404   2.069  0.2008 -0.1897  0.4376
  118MOL    C4318997   4.457   5.515   2.068  0.1104 -0.4274  0.0572
  118MOL    N4418998   4.366   5.492   2.179  0.3555 -0.6357 -0.0491
  118MOL    H4518999   4.528   5.315   2.123 -0.3992  0.3679  1.0000
  118MOL    H4619000   4.632   5.434   2.145  0.0144  2.1230 -0.2542
  118MOL    H4719001   4.404   5.500   1.974 -4.7198 -0.9431  2.7038
  118MOL    H4819002   4.325   5.400   2.190  0.9236 -0.7798  0.8584
  118MOL    H4919003   4.283   5.544   2.154  1.4486  1.6208  0.8747
  118MOL    C5019004   4.530   5.658   2.067 -0.1210  0.6636  0.5623
  118MOL    C5119005   4.503   5.747   1.943  0.4697 -0.3992  0.5572
  118MOL    N5219006   4.370   5.805   1.948 -0.0728 -0.2100  0.1148
  118MOL    H5319007   4.510   5.708   2.162  0.6462 -1.3075  1.8086
  118MOL    H5419008   4.636   5.633   2.059 -0.9596 -3.6151  1.3076
  118MOL    H5519009   4.510   5.680   1.858  0.6798 -0.4741  0.6335
  118MOL    H5619010   4.349   5.846   1.858 -0.2941 -0.4651  0.0506
  118MOL    H5719011   4.304   5.729   1.960  0.6732 -0.8610  0.1571
  118MOL    C5819012   4.605   5.860   1.907 -0.7477 -0.5078  0.0654
  118MOL    C5919013   4.733   5.808   1.838  0.2610  0.0310  0.3389
  118MOL    N6019014   4.707   5.815   1.696 -0.0859 -0.1156 -0.1677
  118MOL    H6119015   4.552   5.934   1.847 -1.9397 -1.3533  0.0679
  118MOL    H6219016   4.620   5.908   2.004  0.0029  2.4166 -1.4471
  118MOL    H6319017   4.756   5.703   1.856  0.4517  0.1370  0.7229
  118MOL    H6419018   4.636   5.755   1.658  0.3022 -0.8911  0.3156
  118MOL    H6519019   4.690   5.908   1.660 -0.2801 -0.5432 -1.1940
  118MOL    C6619020   4.864   5.890   1.890 -0.1972  0.3528  0.3127
  118MOL    C6719021   4.947   5.832   2.008 -0.1313 -0.3835  0.2973
  118MOL    N6819022   5.068   5.906   2.015 -0.3668 -0.0015 -0.4027
  118MOL    H6919023   4.933   5.885   1.806  2.0374 -1.2315  2.2017
  118MOL    H7019024   4.834   5.995   1.899 -0.9170  0.0612  1.4281
  118MOL    H7119025   4.970   5.729   1.982 -0.6269 -0.7579  1.3044
  118MOL    H7219026   5.105   5.926   1.923  1.9066 -2.2552 -0.0401
  118MOL    H7319027   5.034   5.996   2.045 -1.3485 -0.1101 -1.1871
  118MOL    C7419028   4.877   5.827   2.152  0.1637 -0.0492 -0.1161
  118MOL    C7519029   4.957   5.785   2.276  0.2412 -0.1197  0.0034
  118MOL    N7619030   5.043   5.896   2.325 -0.1901 -0.5505 -0.3389
  118MOL    H7719031   4.835   5.925   2.175 -0.7719 -0.4540 -0.0952
  118MOL    H7819032   4.789   5.763   2.139  1.2373 -1.1225 -2.5090
  118MOL    H7919033   5.002   5.691   2.243  0.2660  0.3850 -1.4217
  118MOL    H8019034   5.121   5.870   2.383 -1.3097  0.1756  1.5310
  118MOL    H8119035   5.085   5.945   2.247  0.7154  0.2008  0.6025
  118MOL    C8219036   4.858   5.732   2.389 -0.0592 -0.6337  0.5092
  118MOL    C8319037   4.804   5.586   2.364 -0.4478  0.3903  0.1266
  118MOL    N8419038   4.909   5.488   2.368  0.5136  0.1671  0.0123
  118MOL    H8519039   4.908   5.735   2.485 -2.3796  0.5666  1.7300
  118MOL    H8619040   4.780   5.806   2.407 -1.4451 -1.8592 -0.2686
  118MOL    H8719041   4.768   5.595   2.262 -1.7492 -1.8253  0.3551
  118MOL    H8819042   4.988   5.541   2.402  1.6409 -1.5797  0.1757
  118MOL    H8919043   4.933   5.452   2.276 -1.6387 -0.3562 -0.3818
  118MOL    C9019044   4.685   5.528   2.446  0.2028  0.1226 -0.4028
  118MOL    C9119045   4.568   5.623   2.471  0.3521 -0.4411 -0.2619
  118MOL    N9219046   4.444   5.554   2.483  0.2032 -0.0265 -0.1313
  118MOL    H9319047   4.648   5.441   2.392 -0.1283 -0.3381  0.5456
  118MOL    H9419048   4.712   5.481   2.541  2.5784 -0.8491 -1.5148
  118MOL    H9519049   4.575   5.685   2.381  0.2711  0.2363  0.1959
  118MOL    H9619050   4.405   5.542   2.390  2.6399  1.4290 -1.3834
  118MOL    H9719051   4.451   5.462   2.526  1.3194  0.3080  0.4160
  118MOL    C9819052   4.590   5.706   2.602 -0.1617  0.2638  0.3567
  118MOL    C9919053   4.496   5.826   2.625 -0.0098  0.4333  0.7273
  118MOL   N10019054   4.502   5.858   2.764 -0.3908 -0.4139 -0.6812
  118MOL   H10119055   4.582   5.639   2.688 -0.4312 -2.8085 -1.9599
  118MOL   H10219056   4.693   5.735   2.582 -0.0579  0.9008  1.7544
  118MOL   H10319057   4.393   5.798   2.604 -0.2896  1.2531  1.0193
  118MOL   H10419058   4.414   5.846   2.812  0.4172  0.5993  1.0898
  118MOL   H10519059   4.507   5.959   2.770 -0.7482 -0.2987 -2.0689
  118MOL   C10619060   4.526   5.945   2.545 -0.5628  0.1738 -0.0819
  118MOL   C10719061   4.408   6.012   2.483  0.3058  0.9198  0.7968
  118MOL   N10819062   4.332   6.076   2.584 -0.1880  0.8986 -0.4040
  118MOL   H10919063   4.590   6.019   2.593  0.3959  0.8257 -2.2987
  118MOL   H11019064   4.586   5.915   2.459 -0.5478 -2.7233  0.9029
  118MOL   H11119065   4.343   5.934   2.445  1.4024  1.3482 -2.1500
  118MOL   H11219066   4.329   6.006   2.657  0.6069  1.9230  0.6227
  118MOL   H11319067   4.387   6.145   2.632  2.2808 -0.9217 -0.5527
  118MOL   C11419068   4.433   6.123   2.377 -0.5509 -0.4315  0.1018
  118MOL   C11519069   4.500   6.067   2.247  0.1136  0.1752  0.0982
  118MOL   N11619070   4.384   6.004   2.185 -0.5395 -0.8897  0.0430
  118MOL   H11719071   4.345   6.178   2.344 -0.0153  1.2068  1.3261
  118MOL   H11819072   4.493   6.203   2.420 -0.2894  1.3159 -3.3201
  118MOL   H11919073   4.568   5.984   2.267  0.2442  0.3914  0.5628
  118MOL   H12019074   4.324   5.948   2.244 -0.8549 -0.3728  0.2153
  118MOL   H12119075   4.403   5.948   2.103  1.5215  0.7377 -0.6153
  118MOL   C12219076   4.558   6.178   2.156 -0.1693 -0.4114  0.2082
  118MOL   C12319077   4.671   6.268   2.210 -1.0121  0.3449 -1.0096
  118MOL   N12419078   4.797   6.199   2.179 -0.8673 -0.0990  0.0833
  118MOL   H12519079   4.580   6.138   2.057  2.6225 -0.8464  0.9672
  118MOL   H12619080   4.470   6.238   2.132  0.4723  1.0800  1.4886
  118MOL   H12719081   4.660   6.290   2.316  0.7683 -1.3932 -0.4323
  118MOL   H12819082   4.794   6.135   2.100  1.5032 -0.4888  0.2900
  118MOL   H12919083   4.810   6.141   2.261  0.3617  0.1544  0.0728
  118MOL   C13019084   4.670   6.403   2.130 -0.6227  0.0469  0.2335
  118MOL   C13119085   4.598   6.520   2.209 -0.4739  0.0223 -0.0558
  118MOL   N13219086   4.628   6.649   2.153 -0.0940  0.1343 -0.4672
  118MOL   H13319087   4.771   6.434   2.105 -0.3556 -1.9539 -1.3067
  118MOL   H13419088   4.619   6.389   2.035 -1.6294  0.6867  0.6792
  118MOL   H13519089   4.646   6.516   2.307  0.5494 -1.5615 -0.6009
  118MOL   H13619090   4.547   6.705   2.174  0.9552  1.2195  0.7953
  118MOL   H13719091   4.705   6.689   2.205 -0.3444 -0.7909  0.6496
  118MOL   C13819092   4.446   6.500   2.216  0.2385 -0.8048  0.0366
  118MOL   C13919093   4.384   6.586   2.333 -0.2633  0.0258  0.7167
  118MOL   N14019094   4.253   6.621   2.291 -0.1202  0.3586 -0.2754
  118MOL   H14119095   4.385   6.513   2.127  0.3584  0.9841  0.2044
  118MOL   H14219096   4.413   6.401   2.246  0.6044 -0.9020  0.1282
  118MOL   H14319097   4.448   6.673   2.349  2.7437 -1.1410 -3.9655
  118MOL   H14419098   4.209   6.534   2.263  0.0101  0.9399 -2.4033
  118MOL   H14519099   4.206   6.662   2.371  1.4924 -0.0666  0.8943
  118MOL   C14619100   4.391   6.507   2.470  0.3862 -0.4125 -0.2705
  118MOL   C14719101   4.358   6.597   2.592 -0.2743 -0.4433  0.4132
  118MOL   N14819102   4.312   6.510   2.699 -0.3651  0.5593  0.0205
  118MOL   H14919103   4.330   6.417   2.467 -0.2535  0.0053  0.2063
  118MOL   H15019104   4.492   6.473   2.491 -0.2674 -1.1455  1.7241
  118MOL   H15119105   4.274   6.661   2.562 -1.2701 -2.3112 -0.8841
  118MOL   H15219106   4.215   6.490   2.678 -0.4455 -1.2682  2.0299
  118MOL   H15319107   4.302   6.566   2.783 -0.2093 -2.0051  1.7959
  118MOL   C15419108   4.470   6.679   2.649  0.0464 -0.6046  1.1753
  118MOL   C15519109   4.425   6.814   2.689  0.0252  0.3924  0.1143
  118MOL   N15619110   4.535   6.917   2.686  0.0383  0.2161  0.0740
  118MOL   H15719111   4.516   6.625   2.732 -2.1663 -3.3037  0.7196
  118MOL   H15819112   4.551   6.682   2.577 -0.4976 -2.0621  0.5006
  118MOL   H15919113   4.383   6.823   2.789 -2.7535 -2.0514 -0.7508
  118MOL   H16019114   4.602   6.903   2.760 -0.0031  1.0503  0.2770
  118MOL   H16119115   4.490   7.005   2.711  0.9430 -0.2302  3.6101
  118MOL   H16219116   4.347   6.851   2.622 -0.0119 -1.2580 -0.7690
  119MOL     C119117   4.461   0.076   2.738  0.4021  0.2423 -0.2828
  119MOL     C219118   4.508   7.259   2.621 -0.8110  0.0384 -0.5594
  119MOL     N319119   4.395   7.167   2.596  0.3590  0.0673 -0.7067
  119MOL     H419120   4.465   0.008   2.823  0.5370 -0.6486 -0.9999
  119MOL     H519121   4.369   0.131   2.717 -0.2786 -0.3390  1.1146
  119MOL     H619122   4.582   7.186   2.653 -2.1932 -0.9580  0.4315
  119MOL     H719123   4.434   7.085   2.551 -0.1753  0.1394 -1.2988
  119MOL     H819124   4.340   7.222   2.532  1.6775  2.4500  0.1060
  119MOL     H919125   4.530   0.156   2.767  3.1201 -1.8291 -0.8353
  119MOL    C1019126   4.547   0.060   2.493  0.0738  0.1958 -0.2245
  119MOL    C1119127   4.677   0.138   2.508 -0.4652 -0.5393  0.0742
  119MOL    N1219128   4.754   0.118   2.383  0.9338 -0.5588  0.4484
  119MOL    H1319129   4.556   7.260   2.415  0.7403 -1.8093  1.7360
  119MOL    H1419130   4.469   0.125   2.453  2.5633  2.7486 -1.0632
  119MOL    H1519131   4.741   0.078   2.572 -1.4631 -0.3412  1.2815
  119MOL    H1619132   4.757   0.191   2.313  2.0978 -1.2501 -0.2423
  119MOL    H1719133   4.852   0.099   2.395  1.1928  1.3374  1.4537
  119MOL    C1819134   4.648   0.284   2.539  0.1109 -0.2998 -0.0220
  119MOL    C1919135   4.769   0.359   2.599  0.1865  0.1791 -0.8053
  119MOL    N2019136   4.730   0.499   2.600 -0.7863 -0.2553 -0.6699
  119MOL    H2119137   4.618   0.329   2.444  2.7216  2.5046  0.3794
  119MOL    H2219138   4.560   0.294   2.602 -0.6008  0.2093 -1.0900
  119MOL    H2319139   4.855   0.338   2.536  0.4915  0.9062 -0.6305
  119MOL    H2419140   4.806   0.561   2.620  0.3389 -1.7803 -0.0904
  119MOL    H2519141   4.676   0.533   2.521 -2.0024 -0.0083  0.2588
  119MOL    C2619142   4.806   0.314   2.745 -0.4354  0.2024  0.4836
  119MOL    C2719143   4.951   0.350   2.782  0.3340 -0.4151  0.0039
  119MOL    N2819144   4.961   0.339   2.927 -0.6223  0.0561 -0.4622
  119MOL    H2919145   4.728   0.350   2.811 -3.1838  0.7844 -2.9347
  119MOL    H3019146   4.775   0.210   2.753  0.2876 -0.3065 -2.6258
  119MOL    H3119147   4.981   0.448   2.744 -2.2356  0.5412  0.3461
  119MOL    H3219148   4.892   0.268   2.946  1.4447 -1.3139  2.2892
  119MOL    H3319149   5.046   0.288   2.944 -0.7366 -0.3751 -1.1785
  119MOL    C3419150   5.047   0.249   2.710 -0.2213  0.0050 -0.6377
  119MOL    C3519151   5.026   0.093   2.694  0.2619 -0.1781  0.3059
  119MOL    N3619152   5.139   0.046   2.612 -0.1712  0.2885  0.2684
  119MOL    H3719153   5.050   0.282   2.606  2.5692  0.3554 -0.4935
  119MOL    H3819154   5.151   0.261   2.742  0.0985 -2.8674 -0.5189
  119MOL    H3919155   4.931   0.084   2.641 -0.1192  1.7179  0.6371
  119MOL    H4019156   5.212   7.273   2.662  1.7084  1.4716 -1.2389
  119MOL    H4119157   5.180   0.127   2.569  1.2099  0.1188  1.2414
  119MOL    C4219158   5.028   7.275   2.809 -0.1209  0.7475 -0.1376
  119MOL    C4319159   4.959   7.139   2.783 -0.6982 -0.3007 -0.2354
  119MOL    N4419160   5.031   7.065   2.681 -0.3004 -0.3417 -0.2738
  119MOL    H4519161   5.124   7.260   2.859 -1.1213 -0.8669  1.3501
  119MOL    H4619162   4.968   0.051   2.884 -1.6298  0.4757 -1.1530
  119MOL    H4719163   4.865   7.165   2.733  1.0836  0.0664 -3.5312
  119MOL    H4819164   4.963   7.025   2.618  0.7478 -0.9910 -1.0153
  119MOL    H4919165   5.070   7.141   2.627 -1.1876  0.4415  0.1765
  119MOL    C5019166   4.940   7.047   2.910  0.3473 -0.3754  0.0526
  119MOL    C5119167   4.811   7.086   2.996 -0.0841  0.3838 -0.2320
  119MOL    N5219168   4.697   6.999   2.954 -0.2293 -0.6900 -0.2465
  119MOL    H5319169   4.926   6.942   2.883  0.1734 -0.8926  2.0748
  119MOL    H5419170   5.033   7.039   2.966  1.0930 -0.3660 -1.1594
  119MOL    H5519171   4.790   7.187   2.960 -2.0541 -0.2711 -0.9571
  119MOL    H5619172   4.617   7.006   3.015 -0.6388 -3.1004 -0.4643
  119MOL    H5719173   4.725   6.902   2.954 -1.0186 -0.9127 -0.7174
  119MOL    C5819174   4.819   7.075   3.154  0.0574 -0.3656  0.0859
  119MOL    C5919175   4.915   7.165   3.227 -0.1689 -0.8322  0.3530
  119MOL    N6019176   4.861   0.027   3.239  0.6354 -0.6029  0.8428
  119MOL    H6119177   4.719   7.103   3.187  0.1060 -0.1377  0.0364
  119MOL    H6219178   4.830   6.970   3.184  3.5475 -0.6662 -1.9592
  119MOL    H6319179   5.000   7.178   3.161 -0.3923  0.8909  0.3963
  119MOL    H6419180   4.933   0.093   3.215  1.0641 -2.2241 -2.6159
  119MOL    H6519181   4.836   0.036   3.337 -0.9849  3.3216  0.1587
  119MOL    C6619182   4.970   7.104   3.358 -0.0254  0.4102  0.3125
  119MOL    C6719183   5.072   6.992   3.325 -0.6864 -0.0238  0.0307
  119MOL    N6819184   5.196   7.051   3.289 -0.0389 -0.1179 -0.0833
  119MOL    H6919185   5.009   7.177   3.429  1.3614 -0.1222  0.1154
  119MOL    H7019186   4.882   7.058   3.405  0.7969 -0.9335  0.5668
  119MOL    H7119187   5.042   6.937   3.235  2.1853  0.8430 -1.5035
  119MOL    H7219188   5.262   6.979   3.316 -0.7031 -1.1334 -1.0898
  119MOL    H7319189   5.208   7.130   3.351 -0.5364  0.0798 -0.2381
  119MOL    C7419190   5.100   6.898   3.447  0.2527  0.0956  0.2497
  119MOL    C7519191   5.198   6.782   3.414 -0.2252 -0.5167 -0.3140
  119MOL    N7619192   5.332   6.831   3.385 -0.5106 -0.0266 -0.0090
  119MOL    H7719193   5.131   6.958   3.532  0.2771 -0.0473  0.3422
  119MOL    H7819194   5.012   6.841   3.477 -0.9847  1.9919  0.2899
  119MOL    H7919195   5.162   6.732   3.324  0.9266  1.0770 -1.6854
  119MOL    H8019196   5.384   6.831   3.472 -0.1156  0.6768 -0.2357
  119MOL    H8119197   5.366   6.746   3.344  1.1700 -0.3442  1.9551
  119MOL    C8219198   5.212   6.682   3.534 -0.7526 -0.2993  0.4151
  119MOL    C8319199   5.104   6.575   3.554  0.5231 -0.2912  0.0705
  119MOL    N8419200   5.118   6.464   3.462 -0.1570  0.7940  0.1083
  119MOL    H8519201   5.312   6.638   3.531  0.2351  1.8412  1.1392
  119MOL    H8619202   5.218   6.744   3.624 -2.9473  1.0020 -0.2981
  119MOL    H8719203   5.004   6.615   3.534 -0.4718 -3.0279 -0.6313
  119MOL    H8819204   5.205   6.418   3.482 -0.4658 -0.2501 -0.9305
  119MOL    H8919205   5.126   6.514   3.375 -1.2557  3.5052  1.4704
  119MOL    C9019206   5.101   6.509   3.696 -0.4189  0.3646  0.5856
  119MOL    C9119207   4.953   6.482   3.744  0.2071 -0.0454  0.1508
  119MOL    N9219208   4.953   6.350   3.804  0.4165  0.0579 -0.4346
  119MOL    H9319209   5.145   6.412   3.677  1.3718  1.1094  0.8005
  119MOL    H9419210   5.163   6.566   3.766  0.6382  1.5854 -1.2905
  119MOL    H9519211   4.905   6.471   3.647 -1.0862 -1.5115  0.9301
  119MOL    H9619212   4.860   6.309   3.810  1.0688 -1.0564  3.5577
  119MOL    H9719213   5.012   6.300   3.740 -0.4658  0.4625 -1.5837
  119MOL    C9819214   4.898   6.595   3.835  0.6445  0.2715 -0.2697
  119MOL    C9919215   4.861   6.722   3.757 -0.4297 -0.4235 -0.6503
  119MOL   N10019216   4.771   6.696   3.644  0.2323  0.6115  0.3082
  119MOL   H10119217   4.801   6.566   3.876  0.3506  0.1198 -1.0762
  119MOL   H10219218   4.954   6.613   3.927  1.0760 -1.4374 -0.1713
  119MOL   H10319219   4.955   6.762   3.720 -0.3456 -1.1123 -1.1865
  119MOL   H10419220   4.797   6.623   3.579 -0.4919  1.9681 -1.5224
  119MOL   H10519221   4.693   6.651   3.690  0.2084 -0.8191 -1.0749
  119MOL   C10619222   4.783   6.824   3.843  0.7825 -0.9409 -0.6600
  119MOL   C10719223   4.878   6.906   3.938 -0.0006 -0.0586 -0.1938
  119MOL   N10819224   4.926   7.021   3.868 -0.1896 -0.0813 -0.4557
  119MOL   H10919225   4.715   6.885   3.783 -1.4276 -1.8327  0.8353
  119MOL   H11019226   4.715   6.763   3.903  0.1549  0.5489  0.1691
  119MOL   H11119227   4.964   6.846   3.970  0.1825 -0.3139 -1.1422
  119MOL   H11219228   4.859   7.097   3.865 -0.7364 -0.4901  1.0819
  119MOL   H11319229   4.948   7.004   3.771  3.2114  1.9688 -0.1559
  119MOL   C11419230   4.801   6.944   4.061 -0.3127 -0.1790  0.3177
  119MOL   C11519231   4.873   7.033   4.167 -0.3102 -0.2130  0.8480
  119MOL   N11619232   4.817   7.166   4.163  0.1252 -0.7247 -0.0461
  119MOL   H11719233   4.708   6.993   4.033  0.1874  1.0398  0.7759
  119MOL   H11819234   4.781   6.845   4.103  1.2948 -0.4381  0.5018
  119MOL   H11919235   4.981   7.033   4.154 -0.2342 -0.3315  1.4448
  119MOL   H12019236   4.861   7.226   4.232 -1.5842 -0.4974  0.8664
  119MOL   H12119237   4.836   7.206   4.072  0.7084 -3.2193 -1.0791
  119MOL   C12219238   4.850   6.987   4.313  0.1809  0.4584 -0.3340
  119MOL   C12319239   4.935   6.872   4.374 -0.2764 -0.0099 -0.1953
  119MOL   N12419240   5.067   6.919   4.418  0.3725  0.3339 -0.7233
  119MOL   H12519241   4.844   7.064   4.389  0.2163  0.1646 -0.0345
  119MOL   H12619242   4.754   6.935   4.317  1.2290 -1.3547  2.0486
  119MOL   H12719243   4.940   6.798   4.294  1.8777 -2.0136  1.7361
  119MOL   H12819244   5.140   6.853   4.396  0.7107  0.4640 -0.0144
  119MOL   H12919245   5.084   7.002   4.363  2.5029  0.0689 -0.5104
  119MOL   C13019246   4.865   6.795   4.488  0.5140 -0.0087  0.1393
  119MOL   C13119247   4.744   6.708   4.443  0.3296  0.1964 -0.0998
  119MOL   N13219248   4.781   6.563   4.442  0.0734 -1.0306 -0.3630
  119MOL   H13319249   4.944   6.730   4.525 -0.5178  0.0171  2.5102
  119MOL   H13419250   4.833   6.860   4.570  0.4513 -0.9458  0.8759
  119MOL   H13519251   4.709   6.732   4.342 -0.8736  0.6849  0.4232
  119MOL   H13619252   4.843   6.559   4.363  0.0469 -2.1817 -0.3274
  119MOL   H13719253   4.698   6.514   4.412 -0.0352 -1.0388 -0.0520
  119MOL   C13819254   4.621   6.715   4.533  0.1617 -0.2744 -0.2901
  119MOL   C13919255   4.543   6.841   4.525 -0.4263  0.6976  0.1702
  119MOL   N14019256   4.466   6.848   4.408  0.2927 -0.2754 -0.2214
  119MOL   H14119257   4.553   6.636   4.504 -1.8345  0.6644  1.7346
  119MOL   H14219258   4.652   6.692   4.635  0.9126 -3.2089 -1.1522
  119MOL   H14319259   4.609   6.928   4.525 -1.4300  1.4729 -0.5567
  119MOL   H14419260   4.458   6.945   4.382 -3.5617 -0.7652 -1.2640
  119MOL   H14519261   4.371   6.838   4.441  0.3070  1.0967  0.2513
  119MOL   C14619262   4.443   6.863   4.639  0.6076 -0.3852 -0.1928
  119MOL   C14719263   4.403   7.018   4.665 -0.2113  0.2768  0.3654
  119MOL   N14819264   4.279   7.027   4.734 -0.3256  0.7970  0.7495
  119MOL   H14919265   4.359   6.795   4.628 -0.7088  1.2423 -0.3249
  119MOL   H15019266   4.502   6.829   4.724 -1.3727 -1.5542  0.7471
  119MOL   H15119267   4.387   7.058   4.565  0.4701 -0.0149  0.1352
  119MOL   H15219268   4.289   7.119   4.775 -1.0913  1.1959  0.0434
  119MOL   H15319269   4.284   6.961   4.811  2.0298 -0.7405 -0.6329
  119MOL   C15419270   4.510   7.110   4.738  0.2081 -0.5859  0.0058
  119MOL   C15519271   4.641   7.114   4.665 -0.3760  0.2643 -0.1343
  119MOL   N15619272   4.731   7.219   4.723  0.3312  0.0570  0.3940
  119MOL   H15719273   4.474   7.213   4.748 -2.9715 -1.3393 -2.6823
  119MOL   H15819274   4.518   7.067   4.837 -0.1969  0.4326  0.4985
  119MOL   H15919275   4.630   7.129   4.558  1.4512 -1.8308 -0.6544
  119MOL   H16019276   4.827   7.212   4.692  0.5165  0.0971  0.9517
  119MOL   H16119277   4.731   7.209   4.824 -0.1584  0.2237  0.4108
  119MOL   H16219278   4.682   7.014   4.680  0.9848  0.8189 -0.0616
  120MOL     C119279   2.681   6.234   3.920 -0.4967  0.1899  0.0288
  120MOL     C219280   2.564   6.143   3.961 -0.0495 -0.5910  0.1153
  120MOL     N319281   2.454   6.221   4.007 -0.0327 -0.0468 -0.3845
  120MOL     H419282   2.691   6.248   3.813  1.5311  0.6159  0.2410
  120MOL     H519283   2.766   6.176   3.958  0.6078  2.9614  1.9460
  120MOL     H619284   2.593   6.086   4.049  1.4193 -1.1996 -0.7337
  120MOL     H719285   2.484   6.279   4.084  1.8155  0.5850 -1.5518
  120MOL     H819286   2.395   6.157   4.057 -0.8940  2.2122  1.6084
  120MOL     H919287   2.674   6.323   3.983  1.4339 -0.4537  1.2106
  120MOL    C1019288   2.528   6.047   3.847  0.1227 -0.2702  0.1611
  120MOL    C1119289   2.627   5.929   3.847 -0.5314 -0.8471  0.1464
  120MOL    N1219290   2.604   5.825   3.947 -0.2319 -0.1981 -0.1272
  120MOL    H1319291   2.430   6.014   3.879  0.7265 -1.4772  0.7809
  120MOL    H1419292   2.526   6.101   3.752  0.7724 -0.7007 -0.1079
  120MOL    H1519293   2.726   5.963   3.874  0.1697 -0.3515 -2.8084
  120MOL    H1619294   2.514   5.832   3.993 -0.7589  0.6474 -1.2929
  120MOL    H1719295   2.674   5.837   4.019 -1.2749 -1.1869  1.0952
  120MOL    C1819296   2.639   5.860   3.710  0.2354  1.0876 -0.6389
  120MOL    C1919297   2.693   5.956   3.596  0.2284  0.5279  1.3946
  120MOL    N2019298   2.827   5.996   3.621 -0.2266 -0.1104 -0.2505
  120MOL    H2119299   2.708   5.777   3.726 -1.7390 -0.4844 -0.0317
  120MOL    H2219300   2.540   5.824   3.680 -0.0209  1.0971  0.1909
  120MOL    H2319301   2.633   6.047   3.587  0.5680  0.8192  2.0160
  120MOL    H2419302   2.861   6.001   3.526 -0.4434  2.6662 -0.2442
  120MOL    H2519303   2.886   5.924   3.658  0.0094 -0.5728 -1.5116
  120MOL    C2619304   2.712   5.883   3.461  0.6810 -0.5213  0.4689
  120MOL    C2719305   2.728   5.981   3.339  0.2179  0.1850 -0.2726
  120MOL    N2819306   2.870   5.998   3.321 -0.0940 -0.4118  0.1678
  120MOL    H2919307   2.789   5.806   3.465  0.7171 -0.5314 -0.3578
  120MOL    H3019308   2.613   5.837   3.455 -0.0125  0.9169  0.4922
  120MOL    H3119309   2.688   6.081   3.353  0.7300  0.4365 -0.6025
  120MOL    H3219310   2.909   5.907   3.298 -0.2830  0.0929 -2.3606
  120MOL    H3319311   2.906   6.062   3.251  0.9260 -0.7189  0.4044
  120MOL    C3419312   2.671   5.931   3.206 -0.0224 -0.7726  0.5692
  120MOL    C3519313   2.515   5.947   3.204  0.0750 -0.2948 -0.1610
  120MOL    N3619314   2.463   6.079   3.185 -0.1668 -0.3045 -0.0904
  120MOL    H3719315   2.718   5.990   3.127  0.0554 -0.6559  0.7042
  120MOL    H3819316   2.699   5.828   3.182 -0.2735 -0.7009 -0.0562
  120MOL    H3919317   2.473   5.913   3.299  0.4595  2.3344  0.9995
  120MOL    H4019318   2.508   6.125   3.262 -1.1609  2.3040 -0.9922
  120MOL    H4119319   2.367   6.076   3.217  0.5382 -1.7803  1.9922
  120MOL    C4219320   2.450   5.859   3.090 -0.1531 -0.7633 -0.1395
  120MOL    C4319321   2.379   5.742   3.152  0.0595  0.2100 -0.3456
  120MOL    N4419322   2.289   5.673   3.056 -0.1309  0.4964 -0.7287
  120MOL    H4519323   2.379   5.913   3.027  2.5183  0.9588 -1.7397
  120MOL    H4619324   2.529   5.811   3.032  0.7723  1.8321 -1.0812
  120MOL    H4719325   2.307   5.785   3.222  0.8126 -0.9638  1.1762
  120MOL    H4819326   2.248   5.592   3.102  1.8972  0.7884  1.6623
  120MOL    H4919327   2.210   5.733   3.036 -1.7349 -1.0123  0.7639
  120MOL    C5019328   2.462   5.632   3.226  0.6682  0.0947  0.0970
  120MOL    C5119329   2.401   5.558   3.351 -0.7709 -0.2846 -0.1556
  120MOL    N5219330   2.494   5.448   3.379 -0.1271  0.4491  0.4447
  120MOL    H5319331   2.495   5.561   3.150 -0.0101 -0.6894  0.5198
  120MOL    H5419332   2.564   5.665   3.242 -0.0871  1.8291  1.4648
  120MOL    H5519333   2.306   5.510   3.329 -0.2104 -1.5274  0.1189
  120MOL    H5619334   2.460   5.401   3.462  0.1005  0.3492  0.4803
  120MOL    H5719335   2.577   5.499   3.406  1.8677 -2.1175 -0.6564
  120MOL    C5819336   2.384   5.649   3.476  0.6071  0.3733 -0.9473
  120MOL    C5919337   2.256   5.631   3.552 -0.8217  0.2252  0.7444
  120MOL    N6019338   2.256   5.502   3.618  0.3646 -0.0722  0.0710
  120MOL    H6119339   2.460   5.636   3.553 -1.3130  0.0739  0.9221
  120MOL    H6219340   2.376   5.751   3.438 -2.8706  1.8766  3.4367
  120MOL    H6319341   2.183   5.627   3.472 -1.0528 -1.3456  1.0069
  120MOL    H6419342   2.157   5.487   3.630  0.5297  0.7951  3.0210
  120MOL    H6519343   2.285   5.521   3.713  1.5639 -1.0709 -0.0805
  120MOL    C6619344   2.225   5.752   3.648  0.6873 -0.5818 -0.4897
  120MOL    C6719345   2.208   5.892   3.587  0.1180  0.2498  0.2204
  120MOL    N6819346   2.327   5.968   3.588 -0.1954  0.3444 -0.2082
  120MOL    H6919347   2.129   5.737   3.697  1.4390  0.2788  1.2857
  120MOL    H7019348   2.288   5.749   3.736  1.3823 -2.3304 -1.0053
  120MOL    H7119349   2.148   5.936   3.667 -0.2888 -1.9003  1.1276
  120MOL    H7219350   2.341   6.019   3.674  1.3652  2.0046 -1.3975
  120MOL    H7319351   2.324   6.048   3.526  0.6097 -0.0368 -0.7527
  120MOL    C7419352   2.132   5.890   3.452 -0.4178 -0.1257  0.0100
  120MOL    C7519353   2.076   6.024   3.398  0.1420 -0.0623 -0.5581
  120MOL    N7619354   2.047   6.013   3.258  0.5482  0.5346 -0.0802
  120MOL    H7719355   2.209   5.859   3.381 -0.2521 -0.0427  0.1547
  120MOL    H7819356   2.048   5.820   3.449 -0.9152  0.4611  0.0740
  120MOL    H7919357   2.157   6.094   3.414  0.8464 -0.8835 -0.4922
  120MOL    H8019358   2.063   6.096   3.203 -2.4056  0.7932 -0.6473
  120MOL    H8119359   1.947   5.997   3.260  0.7609 -0.8227  0.0147
  120MOL    C8219360   1.949   6.061   3.468  0.2829  0.0446 -0.5775
  120MOL    C8319361   1.887   6.199   3.441  0.5771 -0.1992 -0.6498
  120MOL    N8419362   1.744   6.191   3.467  0.4593 -0.6312  0.4271
  120MOL    H8519363   1.870   5.991   3.441  0.8623 -0.9957  0.4215
  120MOL    H8619364   1.966   6.045   3.574  1.4178 -0.3850 -0.8214
  120MOL    H8719365   1.903   6.220   3.335  1.4048  1.2557 -0.2408
  120MOL    H8819366   1.726   6.166   3.563  2.3195 -1.4868  0.5764
  120MOL    H8919367   1.702   6.282   3.480 -0.8206 -1.1930  0.2471
  120MOL    C9019368   1.946   6.316   3.530 -0.1199  0.2598 -0.0126
  120MOL    C9119369   2.087   6.359   3.509 -0.1523  1.0122  0.3820
  120MOL    N9219370   2.107   6.435   3.390 -0.5255 -0.1843 -1.0965
  120MOL    H9319371   1.869   6.393   3.525  1.6464  1.9744 -1.3904
  120MOL    H9419372   1.941   6.274   3.630 -1.7183  0.4056 -0.0164
  120MOL    H9519373   2.143   6.267   3.492  0.5430  0.9415  2.8590
  120MOL    H9619374   2.069   6.383   3.312 -0.7188 -0.7022 -0.6580
  120MOL    H9719375   2.055   6.521   3.394 -1.6440 -0.9400  1.3235
  120MOL    C9819376   2.169   6.416   3.628  0.4041  0.4929  0.0836
  120MOL    C9919377   2.210   6.301   3.725  0.0897 -0.2476 -0.4605
  120MOL   N10019378   2.355   6.288   3.724  0.5971 -0.1597 -0.0056
  120MOL   H10119379   2.258   6.466   3.591  0.6341 -0.2890 -0.4218
  120MOL   H10219380   2.100   6.489   3.672 -1.3266 -1.4898  0.7804
  120MOL   H10319381   2.158   6.209   3.699  1.2199 -0.4606 -2.0802
  120MOL   H10419382   2.404   6.376   3.717  0.6179  0.0470  2.3416
  120MOL   H10519383   2.391   6.241   3.806 -0.7454 -2.6123 -0.7706
  120MOL   C10619384   2.176   6.341   3.864  0.1298  0.4995 -0.1970
  120MOL   C10719385   2.023   6.342   3.900  0.3664  0.1606 -0.2213
  120MOL   N10819386   1.983   6.218   3.947 -1.0621  0.2064 -0.1321
  120MOL   H10919387   2.227   6.287   3.943 -2.2387 -0.0684  0.9729
  120MOL   H11019388   2.220   6.438   3.887 -1.4174  0.9486  0.9498
  120MOL   H11119389   1.959   6.352   3.813  0.2446  0.3875 -0.1050
  120MOL   H11219390   2.008   6.219   4.044 -0.6442  1.3657 -0.2397
  120MOL   H11319391   2.046   6.152   3.903  0.7442  1.6068  0.3225
  120MOL   C11419392   1.988   6.435   4.017  0.7390  0.1193 -0.3330
  120MOL   C11519393   2.012   6.587   3.985 -0.5299 -0.2038  0.6139
  120MOL   N11619394   1.923   6.629   3.875 -0.4595  0.0240  0.7739
  120MOL   H11719395   1.892   6.406   4.059 -0.7334  2.6584 -1.7808
  120MOL   H11819396   2.059   6.396   4.089 -0.8861 -1.7265  0.3278
  120MOL   H11919397   2.113   6.616   3.958  0.0145 -0.7177  2.0277
  120MOL   H12019398   1.928   6.559   3.803  0.4773 -1.8881  2.6720
  120MOL   H12119399   1.945   6.720   3.835 -0.0581 -0.9525 -1.2906
  120MOL   C12219400   1.966   6.682   4.107  0.0598  0.7675  0.5383
  120MOL   C12319401   2.086   6.715   4.194  0.8224 -0.1995 -0.3571
  120MOL   N12419402   2.065   6.845   4.253 -0.3438 -0.2161 -0.2756
  120MOL   H12519403   1.925   6.776   4.069  0.7438  0.9774  0.3087
  120MOL   H12619404   1.898   6.628   4.173  2.6628 -1.3889  1.5563
  120MOL   H12719405   2.170   6.727   4.124  0.3970  2.0995 -0.5371
  120MOL   H12819406   2.140   6.856   4.319 -0.7850 -0.9903  0.3729
  120MOL   H12919407   2.087   6.922   4.192  1.3439  0.3833  1.0606
  120MOL   C13019408   2.103   6.614   4.301 -0.1704 -0.0512  0.2381
  120MOL   C13119409   2.246   6.571   4.324  0.7647 -0.0104  0.0473
  120MOL   N13219410   2.247   6.499   4.452 -0.1111 -0.7590 -0.4389
  120MOL   H13319411   2.058   6.642   4.396 -3.8889 -0.2179 -1.3900
  120MOL   H13419412   2.039   6.527   4.283  0.5600 -0.6544  0.5193
  120MOL   H13519413   2.303   6.663   4.330  0.0595  0.6931 -3.0219
  120MOL   H13619414   2.194   6.554   4.518  1.0818 -0.6961  0.4743
  120MOL   H13719415   2.340   6.520   4.485 -0.6074 -0.5983  0.9152
  120MOL   C13819416   2.308   6.489   4.213 -0.4750  0.1034 -0.1428
  120MOL   C13919417   2.465   6.488   4.207  0.3771 -0.2699  0.1752
  120MOL   N14019418   2.510   6.354   4.246  0.4554  0.3389  0.0886
  120MOL   H14119419   2.274   6.386   4.207 -1.1721  0.2205  1.5210
  120MOL   H14219420   2.282   6.526   4.114 -1.3343 -1.7542 -0.6237
  120MOL   H14319421   2.503   6.562   4.278  0.2050  0.8600 -0.8891
  120MOL   H14419422   2.600   6.374   4.287  3.3032  1.1275 -5.9038
  120MOL   H14519423   2.447   6.334   4.321  2.1124 -0.0223  1.4239
  120MOL   C14619424   2.516   6.535   4.067 -0.2086  0.0595  0.0206
  120MOL   C14719425   2.494   6.682   4.033 -0.1876  0.2118  0.1981
  120MOL   N14819426   2.602   6.760   4.093 -0.4293 -0.2707 -0.3531
  120MOL   H14919427   2.623   6.512   4.067 -0.1212  0.4813 -0.7620
  120MOL   H15019428   2.484   6.460   3.995 -0.4827 -0.3421  0.5490
  120MOL   H15119429   2.396   6.711   4.069 -0.1406 -1.3854  1.6844
  120MOL   H15219430   2.581   6.774   4.191  1.8489 -1.4013  0.3400
  120MOL   H15319431   2.692   6.713   4.096 -0.2624 -0.0089 -1.1759
  120MOL   C15419432   2.496   6.712   3.882  0.2546 -0.1598  0.1915
  120MOL   C15519433   2.386   6.641   3.803  0.4019 -0.6169  0.0091
  120MOL   N15619434   2.391   6.679   3.665  0.0132 -0.6872 -0.0994
  120MOL   H15719435   2.481   6.820   3.881  1.3694 -0.0046 -0.7661
  120MOL   H15819436   2.595   6.691   3.840  0.5588  0.2402  0.6939
  120MOL   H15919437   2.286   6.662   3.843  0.9586  0.5367  0.8263
  120MOL   H16019438   2.350   6.769   3.645 -2.1893 -1.4745  0.6492
  120MOL   H16119439   2.486   6.692   3.635 -0.2895 -0.3007 -0.9027
  120MOL   H16219440   2.399   6.533   3.802  0.7688 -0.6174 -3.9221
  121MOL     C119441   0.336   2.618   6.545  0.1644  0.5210 -0.3756
  121MOL     C219442   0.322   2.658   6.394  0.0484  0.0678 -0.3186
  121MOL     N319443   0.324   2.803   6.385 -0.1672 -0.1514 -0.0906
  121MOL     H419444   0.429   2.652   6.590 -0.6921  1.6489  0.5565
  121MOL     H519445   0.334   2.511   6.564  0.8533  0.5618 -0.0664
  121MOL     H619446   0.222   2.619   6.374 -0.8084  0.6341  2.6627
  121MOL     H719447   0.411   2.832   6.428  0.9808 -1.0815 -1.7606
  121MOL     H819448   0.327   2.835   6.289 -1.9067  0.8004  0.1515
  121MOL     H919449   0.259   2.673   6.598 -1.3961 -3.4073  1.5655
  121MOL    C1019450   0.438   2.610   6.305 -0.2810 -0.3807 -0.1803
  121MOL    C1119451   0.456   2.459   6.295  0.1197  0.2640 -0.0209
  121MOL    N1219452   0.502   2.435   6.155 -0.8385 -0.0086 -0.3384
  121MOL    H1319453   0.414   2.647   6.206  0.6988  2.2107  0.5102
  121MOL    H1419454   0.533   2.657   6.330 -1.5156  2.4458 -0.5675
  121MOL    H1519455   0.357   2.413   6.299  0.3474 -0.1491  1.2249
  121MOL    H1619456   0.598   2.403   6.159 -0.4261  1.3225  0.6835
  121MOL    H1719457   0.489   2.510   6.089 -1.5992  0.4607  0.3337
  121MOL    C1819458   0.550   2.398   6.394 -0.2505 -0.4064  0.2163
  121MOL    C1919459   0.555   2.246   6.385 -0.0213  0.0743 -0.1407
  121MOL    N2019460   0.647   2.187   6.476 -0.5580  0.6412  0.2655
  121MOL    H2119461   0.649   2.440   6.377  0.1790 -2.7801 -4.0060
  121MOL    H2219462   0.507   2.433   6.488 -2.2210  1.1543 -1.2205
  121MOL    H2319463   0.588   2.216   6.285 -1.2508  0.2083 -0.5977
  121MOL    H2419464   0.613   2.093   6.490 -2.3426  1.2986  0.4953
  121MOL    H2519465   0.632   2.228   6.566  1.9981 -0.5795  1.2895
  121MOL    C2619466   0.418   2.181   6.416  0.3847  0.3022  0.0469
  121MOL    C2719467   0.388   2.030   6.382 -0.0074 -0.1339 -0.1407
  121MOL    N2819468   0.254   1.997   6.430 -0.6081 -0.2547 -0.2227
  121MOL    H2919469   0.390   2.205   6.518  0.5644  0.0741  0.1469
  121MOL    H3019470   0.334   2.234   6.369  1.5477  1.4932 -0.7187
  121MOL    H3119471   0.454   1.968   6.443  0.8504 -0.6833 -1.6124
  121MOL    H3219472   0.184   2.030   6.364  0.7396 -1.8102 -2.4940
  121MOL    H3319473   0.247   1.897   6.414 -0.9454 -0.1210 -0.9528
  121MOL    C3419474   0.395   1.991   6.230 -0.3497  0.1319  0.6990
  121MOL    C3519475   0.538   1.969   6.174  0.4151 -0.2250  0.3475
  121MOL    N3619476   0.588   1.836   6.210  0.2926 -0.0227 -0.4807
  121MOL    H3719477   0.346   1.895   6.216  0.0598  0.0461 -0.2026
  121MOL    H3819478   0.344   2.070   6.173  2.5912  2.1820  0.7804
  121MOL    H3919479   0.605   2.040   6.224  1.1051  1.2147 -2.4711
  121MOL    H4019480   0.561   1.816   6.305 -0.2129  2.3967 -0.0612
  121MOL    H4119481   0.688   1.848   6.217  0.3342 -1.0352  0.8388
  121MOL    C4219482   0.545   1.994   6.014  0.1784 -0.6813 -0.2419
  121MOL    C4319483   0.683   1.978   5.954  0.0227  0.6187 -0.2616
  121MOL    N4419484   0.664   1.952   5.813  0.4336  0.3078  0.0757
  121MOL    H4519485   0.470   1.932   5.965 -0.0183 -1.3526  0.8828
  121MOL    H4619486   0.513   2.093   5.984 -2.3276 -1.0857  0.9845
  121MOL    H4719487   0.727   1.885   5.992  0.7490  0.9783 -0.2182
  121MOL    H4819488   0.759   1.943   5.781  0.0881 -2.3642 -0.3416
  121MOL    H4919489   0.619   1.863   5.794  2.3654 -0.8554  0.8028
  121MOL    C5019490   0.768   2.105   5.971 -0.9681  0.2789 -0.0810
  121MOL    C5119491   0.922   2.091   5.979 -0.4435  0.5761  0.1747
  121MOL    N5219492   0.988   2.216   5.943  0.2018 -0.1876 -0.3562
  121MOL    H5319493   0.739   2.175   5.892  1.2783  1.8407  0.4439
  121MOL    H5419494   0.740   2.165   6.057 -1.1780 -2.9818  2.2245
  121MOL    H5519495   0.960   2.024   5.901  1.1339  1.8995 -0.2303
  121MOL    H5619496   1.057   2.243   6.011 -0.7374 -0.5674  0.7640
  121MOL    H5719497   1.047   2.199   5.862  4.4663  1.6133  2.2136
  121MOL    C5819498   0.971   2.034   6.116  0.0573 -0.4072 -0.2098
  121MOL    C5919499   1.116   1.968   6.129 -0.9532 -0.5296 -0.6903
  121MOL    N6019500   1.224   2.057   6.087 -0.0056 -0.4940  0.1604
  121MOL    H6119501   0.962   2.110   6.194  1.0089 -2.0926  1.5810
  121MOL    H6219502   0.893   1.962   6.143  0.6666 -0.8530  0.3767
  121MOL    H6319503   1.137   1.893   6.053  1.8291 -0.4840 -0.0168
  121MOL    H6419504   1.222   2.063   5.987 -0.8358  1.0528  0.2471
  121MOL    H6519505   1.319   2.027   6.102  0.1699 -0.3538 -0.6770
  121MOL    C6619506   1.162   1.901   6.260  0.4104  0.3027  0.5596
  121MOL    C6719507   1.096   1.770   6.304 -0.6637  0.1784  0.1063
  121MOL    N6819508   1.214   1.682   6.315  0.1678 -0.4861 -0.3088
  121MOL    H6919509   1.271   1.903   6.262  0.3627  1.3090  2.9845
  121MOL    H7019510   1.139   1.964   6.345  0.8138  1.2457 -0.0222
  121MOL    H7119511   1.027   1.747   6.223  0.5647  0.7438 -1.1208
  121MOL    H7219512   1.189   1.593   6.355 -2.0947  1.1244  2.0007
  121MOL    H7319513   1.238   1.668   6.218  0.1373 -0.2887 -0.3439
  121MOL    C7419514   1.017   1.790   6.440 -0.2154 -0.7845 -0.6186
  121MOL    C7519515   0.944   1.662   6.485 -0.3212 -0.2762  0.3321
  121MOL    N7619516   0.877   1.682   6.608  0.1000  0.3363 -0.4265
  121MOL    H7719517   1.083   1.816   6.523 -0.0416  0.4186 -1.1271
  121MOL    H7819518   0.948   1.875   6.435  0.0832 -0.6287 -2.1619
  121MOL    H7919519   1.022   1.586   6.487 -1.6683 -1.6680  1.1661
  121MOL    H8019520   0.949   1.673   6.678 -0.8574  1.5796  0.7489
  121MOL    H8119521   0.823   1.599   6.630 -0.5853  1.2682  1.5298
  121MOL    C8219522   0.834   1.608   6.392 -0.1802  0.0120 -0.1975
  121MOL    C8319523   0.796   1.457   6.412 -0.0558  0.3295  0.7841
  121MOL    N8419524   0.688   1.422   6.325 -0.1719 -0.1706 -0.1523
  121MOL    H8519525   0.745   1.670   6.399  1.5384  2.4223  1.0466
  121MOL    H8619526   0.866   1.619   6.288  0.9378 -1.2319  0.0016
  121MOL    H8719527   0.763   1.454   6.516 -0.6106 -0.8783  0.5839
  121MOL    H8819528   0.693   1.461   6.232 -0.5639  2.9238  1.0640
  121MOL    H8919529   0.678   1.322   6.311  0.4000 -0.6407  2.4652
  121MOL    C9019530   0.908   1.357   6.381 -0.1189 -0.4000 -0.0237
  121MOL    C9119531   0.863   1.215   6.435  0.1851 -0.8870  0.3184
  121MOL    N9219532   0.858   1.129   6.317  0.3336 -0.1083 -0.1971
  121MOL    H9319533   0.927   1.342   6.274 -2.7680  0.2189 -0.6258
  121MOL    H9419534   1.003   1.387   6.423  0.3320 -0.6929 -0.8277
  121MOL    H9519535   0.768   1.214   6.487  0.5146 -2.2919  0.9219
  121MOL    H9619536   0.809   1.041   6.332  1.2926 -0.8340 -1.1943
  121MOL    H9719537   0.949   1.091   6.295  0.3051  0.8148 -1.9718
  121MOL    C9819538   0.971   1.152   6.525  0.1170  1.1057  0.4559
  121MOL    C9919539   0.999   1.196   6.672 -0.1203  0.0714  0.0441
  121MOL   N10019540   1.119   1.128   6.724  0.1425 -0.5645  0.1655
  121MOL   H10119541   0.956   1.045   6.541  1.4301  1.2625  2.9839
  121MOL   H10219542   1.068   1.141   6.477  0.5529  1.1504  1.3157
  121MOL   H10319543   0.909   1.166   6.727  0.0315 -0.0187  0.2480
  121MOL   H10419544   1.111   1.030   6.700 -0.2796  0.1603 -2.7973
  121MOL   H10519545   1.104   1.125   6.824  0.0635  1.7315  0.2371
  121MOL   C10619546   1.025   1.349   6.703 -0.0568  0.1795 -0.2700
  121MOL   C10719547   0.993   1.396   6.848 -0.2797 -0.2587  0.1319
  121MOL   N10819548   1.059   1.528   6.873  0.0297 -0.0549 -0.0214
  121MOL   H10919549   1.129   1.369   6.679  0.4522 -1.3385  0.5397
  121MOL   H11019550   0.951   1.403   6.645 -1.4333 -2.1734 -0.7656
  121MOL   H11119551   1.040   1.328   6.919  1.8071  0.5605 -0.4473
  121MOL   H11219552   1.101   1.521   6.965  0.0821 -0.2944 -0.0606
  121MOL   H11319553   1.134   1.518   6.807  0.3470  1.9828  0.0052
  121MOL   C11419554   0.839   1.415   6.881  0.4919 -0.3789  0.4706
  121MOL   C11519555   0.803   1.420   7.035 -0.3367  0.2502 -0.1805
  121MOL   N11619556   0.781   1.554   7.076 -1.0168 -0.2726 -0.4697
  121MOL   H11719557   0.792   1.503   6.836  2.0428  1.3331  2.1064
  121MOL   H11819558   0.777   1.334   6.843  1.1334 -0.8771  0.4801
  121MOL   H11919559   0.890   1.379   7.087 -0.2297 -0.3056 -0.7867
  121MOL   H12019560   0.760   1.562   7.174  1.0729  2.1796 -0.1872
  121MOL   H12119561   0.871   1.600   7.071 -0.4794 -1.1863  0.4769
  121MOL   C12219562   0.675   1.339   7.070  0.2368  0.3540 -0.0967
  121MOL   C12319563   0.701   1.186   7.063 -0.7160  0.3730  0.3437
  121MOL   N12419564   0.763   1.156   7.186 -0.0820 -0.0648 -0.7237
  121MOL   H12519565   0.649   1.367   7.173  0.4752  4.3421 -1.0435
  121MOL   H12619566   0.591   1.385   7.019 -1.4142 -0.0534  2.1705
  121MOL   H12719567   0.776   1.178   6.985  0.4977  2.4385  1.2447
  121MOL   H12819568   0.703   1.112   7.255  0.8000 -3.3071 -1.9358
  121MOL   H12919569   0.854   1.112   7.184  0.2724  0.6706 -1.0095
  121MOL   C13019570   0.569   1.116   7.034 -0.0400 -0.0815  0.4431
  121MOL   C13119571   0.575   0.968   6.995  0.4794  0.0920 -0.6021
  121MOL   N13219572   0.436   0.913   6.983 -0.2105 -0.2316  0.5223
  121MOL   H13319573   0.488   1.138   7.103  2.2766 -0.7040  3.4865
  121MOL   H13419574   0.537   1.155   6.938 -0.9767 -1.1045  0.3332
  121MOL   H13519575   0.624   0.922   7.081 -1.4459 -2.4750 -0.8359
  121MOL   H13619576   0.401   0.892   7.075  2.1620  1.2258  1.7975
  121MOL   H13719577   0.440   0.829   6.927 -4.3538  0.4054 -0.9358
  121MOL   C13819578   0.658   0.938   6.862 -0.6237  0.1714 -0.3639
  121MOL   C13919579   0.776   0.846   6.877  0.0748 -0.1645  0.3986
  121MOL   N14019580   0.815   0.823   6.736 -0.7440  0.3673  0.7159
  121MOL   H14119581   0.593   0.887   6.791  0.6506 -1.5807 -0.3266
  121MOL   H14219582   0.692   1.034   6.824  2.7996 -0.6095  0.5149
  121MOL   H14319583   0.748   0.753   6.927  3.2826 -1.2528  0.2887
  121MOL   H14419584   0.753   0.747   6.715 -1.1637 -0.1860  3.6969
  121MOL   H14519585   0.908   0.785   6.728 -1.1514 -1.2096  3.1223
  121MOL   C14619586   0.887   0.923   6.961  0.1731  0.5288 -0.5623
  121MOL   C14719587   1.026   0.849   6.972  0.6088 -0.7171  0.3217
  121MOL   N14819588   1.123   0.949   7.008  0.5793 -0.0310  0.0961
  121MOL   H14919589   0.913   1.018   6.914 -0.8814  0.9701 -0.2757
  121MOL   H15019590   0.858   0.951   7.062  1.0885  1.5500 -0.5720
  121MOL   H15119591   1.056   0.818   6.872  0.1596  0.7444 -0.2786
  121MOL   H15219592   1.217   0.911   7.001  0.4054 -1.2373  3.5230
  121MOL   H15319593   1.100   0.978   7.102 -0.8786 -1.8673  0.3309
  121MOL   C15419594   1.037   0.727   7.069  0.3902  0.4538  0.8015
  121MOL   C15519595   0.952   0.605   7.025 -0.3136  0.1971 -0.3255
  121MOL   N15619596   0.992   0.482   7.103 -0.4158  0.0016  0.4252
  121MOL   H15719597   1.140   0.693   7.079  0.6221  0.1790 -2.1492
  121MOL   H15819598   1.010   0.757   7.170  1.4728  3.9649  0.1166
  121MOL   H15919599   0.945   0.595   6.917  1.1983 -2.5552 -0.2151
  121MOL   H16019600   0.969   0.491   7.201 -2.0742  0.1378  0.0415
  121MOL   H16119601   0.952   0.397   7.065 -0.2992  0.0991  0.0801
  121MOL   H16219602   0.851   0.627   7.058  0.3511  0.9596  1.3077
  122MOL     C119603   2.855   7.267   3.603  0.3321 -0.6837  0.3169
  122MOL     C219604   2.820   7.208   3.470  0.7222 -0.3705  0.4678
  122MOL     N319605   2.715   7.106   3.498  0.3678 -0.6675  0.5561
  122MOL     H419606   2.770   0.031   3.658 -0.9442 -1.7658 -0.8287
  122MOL     H519607   2.923   0.077   3.602 -0.2476 -0.2147  1.0484
  122MOL     H619608   2.909   7.156   3.435  0.0745 -0.0221 -1.8353
  122MOL     H719609   2.711   7.036   3.424 -0.2727  0.4357 -0.4660
  122MOL     H819610   2.728   7.053   3.583  0.5934 -1.3272  0.1157
  122MOL     H919611   2.903   7.192   3.665 -0.3428 -1.8396 -0.5488
  122MOL    C1019612   2.768   0.040   3.371 -0.6361  0.2308 -0.1112
  122MOL    C1119613   2.883   0.141   3.328 -0.4434 -0.6244  0.3437
  122MOL    N1219614   3.000   0.075   3.276 -0.1474  0.2566  0.1608
  122MOL    H1319615   2.739   0.000   3.274 -0.1405 -1.3732  0.3872
  122MOL    H1419616   2.684   0.093   3.416 -1.5366 -1.3587  0.0947
  122MOL    H1519617   2.915   0.196   3.416  1.1364 -0.9896  0.0054
  122MOL    H1619618   3.057   0.042   3.353  0.2434 -0.3702 -0.3847
  122MOL    H1719619   3.055   0.140   3.222  0.0199  0.8484  1.0377
  122MOL    C1819620   2.832   0.240   3.223  0.6066  0.4916 -0.0182
  122MOL    C1919621   2.736   0.338   3.290 -0.6100  0.2736  0.4138
  122MOL    N2019622   2.798   0.411   3.399 -0.3222  0.1927 -0.0861
  122MOL    H2119623   2.913   0.304   3.187  1.5469 -0.8919 -0.3798
  122MOL    H2219624   2.797   0.192   3.132  1.7743 -0.3033 -0.0568
  122MOL    H2319625   2.656   0.282   3.338 -0.1595 -0.0295  0.8245
  122MOL    H2419626   2.861   0.355   3.454  0.3279  2.7043  1.7523
  122MOL    H2519627   2.723   0.427   3.465 -0.7029  2.3210 -1.0022
  122MOL    C2619628   2.663   0.432   3.203  0.2284 -0.1571 -0.3693
  122MOL    C2719629   2.584   0.375   3.084  0.6175 -0.6835 -0.3365
  122MOL    N2819630   2.469   0.462   3.061 -0.2173  0.3556 -0.3617
  122MOL    H2919631   2.600   0.494   3.267 -0.4788 -2.2917  1.0495
  122MOL    H3019632   2.727   0.503   3.151  0.4794  0.3866  0.6680
  122MOL    H3119633   2.552   0.277   3.118 -1.1171  0.5800  1.7527
  122MOL    H3219634   2.387   0.436   3.114  1.8163 -2.5622  1.5442
  122MOL    H3319635   2.485   0.562   3.070 -0.5053  0.4262 -0.6262
  122MOL    C3419636   2.666   0.366   2.952 -0.4997 -0.3730 -1.1208
  122MOL    C3519637   2.594   0.302   2.831 -0.2755 -0.4527 -0.5419
  122MOL    N3619638   2.671   0.318   2.707 -0.1712 -0.6962 -0.4970
  122MOL    H3719639   2.696   0.465   2.918 -0.9735 -0.0627 -0.6419
  122MOL    H3819640   2.759   0.312   2.972  0.5309  1.3302 -1.2192
  122MOL    H3919641   2.504   0.361   2.817 -2.8205 -3.6108  1.9087
  122MOL    H4019642   2.620   0.391   2.660  0.9553 -0.3969 -1.2520
  122MOL    H4119643   2.662   0.237   2.648  1.9726  0.2382 -2.1595
  122MOL    C4219644   2.557   0.151   2.827 -0.1337  0.4956  0.0947
  122MOL    C4319645   2.484   0.077   2.943  0.1724 -0.1879 -0.1176
  122MOL    N4419646   2.356   0.147   2.972 -0.0163 -0.4026 -0.2040
  122MOL    H4519647   2.482   0.144   2.748 -1.3958 -2.0569  1.4317
  122MOL    H4619648   2.644   0.093   2.795  0.1411  0.0543  1.5846
  122MOL    H4719649   2.538   0.080   3.038 -0.5529  1.2739  0.2605
  122MOL    H4819650   2.386   0.235   3.010  3.4037 -2.7657  2.9614
  122MOL    H4919651   2.313   0.102   3.051  0.1426 -2.1665 -1.0785
  122MOL    C5019652   2.451   7.206   2.888  0.0508  0.5351 -0.0064
  122MOL    C5119653   2.534   7.079   2.939  0.4208 -0.2148  0.1492
  122MOL    N5219654   2.524   6.966   2.850  0.3557 -0.0784 -0.3437
  122MOL    H5319655   2.345   7.180   2.899  0.8837 -1.9365  2.6351
  122MOL    H5419656   2.463   7.199   2.780  0.6834 -0.9911  0.1583
  122MOL    H5519657   2.484   7.055   3.033 -0.7046  0.6695 -0.2097
  122MOL    H5619658   2.432   6.924   2.855  0.5328 -0.3972  0.4663
  122MOL    H5719659   2.580   6.886   2.876 -0.1881  0.1753  1.7039
  122MOL    C5819660   2.681   7.108   2.968  0.0970  0.5760  0.5712
  122MOL    C5919661   2.754   6.983   3.030  0.1402  0.0117  0.5138
  122MOL    N6019662   2.891   6.987   2.985  0.1157  0.0644 -0.4249
  122MOL    H6119663   2.719   7.121   2.867 -0.9453  3.5131  0.5160
  122MOL    H6219664   2.687   7.201   3.024 -2.4002 -0.5873  2.9300
  122MOL    H6319665   2.714   6.887   2.996  0.4491 -0.2565  0.8934
  122MOL    H6419666   2.944   7.066   3.020 -0.0939  1.5349 -3.2421
  122MOL    H6519667   2.892   6.998   2.884 -1.1220  2.3338 -0.2383
  122MOL    C6619668   2.757   6.986   3.188  0.3365  0.1180  0.0093
  122MOL    C6719669   2.719   6.849   3.239  0.1144 -0.2047 -0.7287
  122MOL    N6819670   2.756   6.837   3.379  0.9574 -0.0447  0.1169
  122MOL    H6919671   2.858   7.016   3.214  0.0385  1.0283  0.1512
  122MOL    H7019672   2.692   7.067   3.223  0.3576 -0.4041  1.3002
  122MOL    H7119673   2.765   6.768   3.182  1.9955 -0.9420  1.7382
  122MOL    H7219674   2.850   6.801   3.385  0.9507 -0.4642 -1.8054
  122MOL    H7319675   2.703   6.759   3.415 -0.0253  0.7841  0.4777
  122MOL    C7419676   2.565   6.831   3.229  0.3068 -0.5766 -0.7277
  122MOL    C7519677   2.511   6.695   3.262 -0.0724 -0.4539  0.0788
  122MOL    N7619678   2.374   6.715   3.289 -0.7046  0.2776  0.5478
  122MOL    H7719679   2.529   6.909   3.297  1.7155  0.7565 -1.4757
  122MOL    H7819680   2.532   6.866   3.131  0.4211 -0.3107 -0.6727
  122MOL    H7919681   2.551   6.661   3.358 -1.8169  1.6740  1.6043
  122MOL    H8019682   2.366   6.764   3.377 -1.7207  1.1419 -0.0159
  122MOL    H8119683   2.337   6.624   3.310  1.6907 -1.0524 -0.7697
  122MOL    C8219684   2.541   6.594   3.140 -0.4780  0.0075  0.2925
  122MOL    C8319685   2.504   6.448   3.172  0.4970  0.6480 -0.2722
  122MOL    N8419686   2.523   6.367   3.049  1.0654  0.0287 -0.5776
  122MOL    H8519687   2.490   6.639   3.055  0.9534  2.9018  0.9128
  122MOL    H8619688   2.649   6.592   3.124 -0.3866 -0.0285  0.8957
  122MOL    H8719689   2.402   6.436   3.210  0.5430 -0.3717 -0.4604
  122MOL    H8819690   2.514   6.270   3.076 -1.0066  0.8875  1.9893
  122MOL    H8919691   2.619   6.385   3.023  0.2903  1.9462 -2.2706
  122MOL    C9019692   2.601   6.386   3.282  0.1170 -0.2409  0.4375
  122MOL    C9119693   2.534   6.394   3.420  1.0780  0.0753  0.3093
  122MOL    N9219694   2.439   6.279   3.435  0.0811 -0.2970  0.0081
  122MOL    H9319695   2.616   6.280   3.260  1.1795 -0.8341  3.7177
  122MOL    H9419696   2.700   6.431   3.272 -1.0441  2.4907  0.6958
  122MOL    H9519697   2.482   6.489   3.434  1.9370  0.4729  0.8211
  122MOL    H9619698   2.417   6.264   3.533 -0.8255  1.7882  0.1449
  122MOL    H9719699   2.348   6.307   3.401 -1.3562  0.8068  4.3302
  122MOL    C9819700   2.643   6.394   3.526 -0.2454 -0.5357  0.7254
  122MOL    C9919701   2.755   6.502   3.528  0.4525  0.9956  0.1188
  122MOL   N10019702   2.701   6.602   3.613  0.6091 -0.3429  0.7951
  122MOL   H10119703   2.609   6.386   3.629 -0.0607  0.6511  0.8909
  122MOL   H10219704   2.694   6.298   3.520  2.3098  0.6999  2.4054
  122MOL   H10319705   2.771   6.549   3.431 -0.5321 -0.2915 -0.6823
  122MOL   H10419706   2.708   6.569   3.708  2.1570 -0.2713  0.7159
  122MOL   H10519707   2.769   6.675   3.608  0.7543 -0.5615 -0.8183
  122MOL   C10619708   2.885   6.445   3.584  0.0309  0.1749  0.2574
  122MOL   C10719709   2.948   6.322   3.522 -0.2160 -1.1365 -0.2874
  122MOL   N10819710   2.960   6.338   3.377  0.0788  0.7269  0.3930
  122MOL   H10919711   2.954   6.528   3.577 -2.2114  2.0742  0.0625
  122MOL   H11019712   2.880   6.427   3.692 -1.2250  1.3582  0.4041
  122MOL   H11119713   2.879   6.240   3.541 -1.1551 -0.0137  1.2831
  122MOL   H11219714   3.041   6.283   3.355  0.0057  0.7483  0.0670
  122MOL   H11319715   2.887   6.288   3.329  0.4577  0.4904  0.0637
  122MOL   C11419716   3.088   6.291   3.573  0.3086 -0.1396 -0.2006
  122MOL   C11519717   3.107   6.253   3.726 -0.2774 -0.5740  0.0529
  122MOL   N11619718   3.052   6.117   3.742  0.3682 -0.2844 -0.5856
  122MOL   H11719719   3.128   6.203   3.523 -1.0450 -1.1071  0.3845
  122MOL   H11819720   3.152   6.374   3.544  1.0672 -1.0841 -1.2797
  122MOL   H11919721   3.056   6.324   3.791 -0.2405  0.3642 -0.9128
  122MOL   H12019722   2.957   6.100   3.711  0.1106 -0.9763  0.5349
  122MOL   H12119723   3.105   6.048   3.692 -0.0449 -0.1863 -1.1621
  122MOL   C12219724   3.258   6.251   3.765  0.6015  0.4755 -0.7303
  122MOL   C12319725   3.332   6.380   3.741  0.2247 -0.1986  0.2138
  122MOL   N12419726   3.306   6.475   3.851 -0.5119  0.5310 -0.3942
  122MOL   H12519727   3.271   6.217   3.868 -0.2177 -1.4623 -1.2369
  122MOL   H12619728   3.297   6.162   3.715  0.3764  0.7729 -1.4455
  122MOL   H12719729   3.307   6.417   3.642 -2.6411 -0.5394  0.7664
  122MOL   H12819730   3.374   6.550   3.849 -0.4835  0.4891 -2.3314
  122MOL   H12919731   3.222   6.523   3.820  0.9140  1.4786 -2.9332
  122MOL   C13019732   3.489   6.343   3.739  0.1190  0.3738 -0.2694
  122MOL   C13119733   3.570   6.448   3.667  0.0546 -0.0059 -0.1944
  122MOL   N13219734   3.707   6.429   3.712 -0.7563  0.4644  0.1896
  122MOL   H13319735   3.539   6.334   3.836 -0.3191 -0.6376 -0.1298
  122MOL   H13419736   3.513   6.249   3.690  1.5560  1.5387 -1.8643
  122MOL   H13519737   3.539   6.549   3.694  2.7208  0.9627 -0.5855
  122MOL   H13619738   3.713   6.429   3.812  0.5887  0.7458  0.1184
  122MOL   H13719739   3.742   6.338   3.682 -2.4138 -0.3787  0.7603
  122MOL   C13819740   3.557   6.436   3.512  0.5118 -0.5939  0.5347
  122MOL   C13919741   3.597   6.558   3.427  0.9596 -0.1976 -0.7978
  122MOL   N14019742   3.671   6.513   3.316 -0.5714  0.2453  0.4141
  122MOL   H14119743   3.619   6.349   3.490  1.4128  0.4631 -1.2685
  122MOL   H14219744   3.454   6.408   3.492  0.4867 -1.6075  1.9800
  122MOL   H14319745   3.668   6.615   3.487 -1.1597 -0.1879  1.7616
  122MOL   H14419746   3.747   6.452   3.342  0.7050  1.5232 -0.2426
  122MOL   H14519747   3.605   6.447   3.279 -0.4569 -0.7411  1.9394
  122MOL   C14619748   3.478   6.651   3.382 -0.1957  1.1323  0.0029
  122MOL   C14719749   3.409   6.726   3.492  0.3121  0.3632 -0.5723
  122MOL   N14819750   3.489   6.841   3.531  0.5597  0.3460 -0.3312
  122MOL   H14919751   3.518   6.718   3.305 -0.6090  0.4434 -0.8216
  122MOL   H15019752   3.410   6.598   3.315  2.7616 -2.1558 -0.5329
  122MOL   H15119753   3.404   6.658   3.577 -0.9102  0.8936 -0.2199
  122MOL   H15219754   3.574   6.799   3.566  0.7192  0.8503 -0.0945
  122MOL   H15319755   3.445   6.866   3.619 -0.2994 -0.6827 -0.4660
  122MOL   C15419756   3.270   6.771   3.455 -0.0063  0.1555  0.7267
  122MOL   C15519757   3.175   6.647   3.451  0.2974  0.3400  0.0098
  122MOL   N15619758   3.046   6.692   3.401 -0.1034 -0.0489  0.1356
  122MOL   H15719759   3.225   6.841   3.525 -1.9532  1.7295 -2.0134
  122MOL   H15819760   3.270   6.826   3.361 -0.0312 -2.1407 -0.6413
  122MOL   H15919761   3.173   6.608   3.553  1.0449 -0.0267 -0.1114
  122MOL   H16019762   3.058   6.707   3.302 -1.8053 -1.5209 -0.3059
  122MOL   H16119763   2.995   6.605   3.401 -2.4623  1.2768 -0.8353
  122MOL   H16219764   3.218   6.569   3.388  1.0351 -0.1662  1.1294
  123MOL     C119765   0.542   0.726   3.697  0.2734  0.5581 -0.1073
  123MOL     C219766   0.435   0.834   3.661 -0.0247  0.0352  0.7551
  123MOL     N319767   0.399   0.820   3.524  0.1856 -0.1553 -0.3339
  123MOL     H419768   0.508   0.622   3.700  1.3001  0.1942 -0.5400
  123MOL     H519769   0.578   0.749   3.797  0.5436  0.5736 -0.2080
  123MOL     H619770   0.488   0.929   3.668  2.3660 -1.0553 -1.7262
  123MOL     H719771   0.309   0.864   3.512  1.4559  2.0026 -2.2587
  123MOL     H819772   0.461   0.852   3.451 -1.5073 -0.5137 -1.9788
  123MOL     H919773   0.624   0.738   3.625  2.1434 -2.7796  1.3111
  123MOL    C1019774   0.314   0.834   3.755 -1.0837  0.6819 -0.7600
  123MOL    C1119775   0.243   0.969   3.791  0.5033  0.4429  0.1199
  123MOL    N1219776   0.107   0.931   3.834 -0.1859 -0.3044 -0.0391
  123MOL    H1319777   0.253   0.750   3.722  1.0430 -0.5332 -1.6882
  123MOL    H1419778   0.352   0.794   3.849  0.7661  1.2777 -1.2269
  123MOL    H1519779   0.224   1.022   3.697 -1.7448  0.1058  0.3478
  123MOL    H1619780   0.067   0.880   3.756  0.4563 -1.9125  0.6660
  123MOL    H1719781   0.124   0.856   3.899  1.2127  0.2166  0.2000
  123MOL    C1819782   0.331   1.044   3.885  0.2113  0.1353 -0.5314
  123MOL    C1919783   0.328   1.200   3.860  0.1457 -0.4829 -0.5949
  123MOL    N2019784   0.387   1.267   3.980 -0.1572 -0.3837 -0.0454
  123MOL    H2119785   0.321   1.020   3.991  2.5494  0.5876 -0.1722
  123MOL    H2219786   0.434   1.013   3.863 -0.5487 -0.9816 -2.5953
  123MOL    H2319787   0.221   1.222   3.868  0.1898 -0.2726 -0.5875
  123MOL    H2419788   0.316   1.247   4.049 -1.3368  0.0385 -1.1238
  123MOL    H2519789   0.374   1.367   3.989  1.2284 -0.1426 -0.6588
  123MOL    C2619790   0.384   1.246   3.723 -0.1774  0.0768 -0.3595
  123MOL    C2719791   0.345   1.391   3.686  0.5101  0.5256 -0.0917
  123MOL    N2819792   0.446   1.462   3.620 -0.3446  0.2640  0.1196
  123MOL    H2919793   0.490   1.222   3.717 -0.2862 -0.8956  1.3868
  123MOL    H3019794   0.355   1.184   3.638  0.1381  0.3676 -0.6822
  123MOL    H3119795   0.328   1.454   3.773  0.0515  0.6145 -0.2448
  123MOL    H3219796   0.415   1.553   3.588 -0.5176  0.0956 -0.1917
  123MOL    H3319797   0.508   1.486   3.696 -0.8813 -1.6233  1.1731
  123MOL    C3419798   0.216   1.395   3.599 -0.6156 -0.6866  0.6621
  123MOL    C3519799   0.082   1.389   3.670 -0.0960 -0.0025 -0.0337
  123MOL    N3619800   0.067   1.485   3.780  0.6410  0.2054  0.1225
  123MOL    H3719801   0.219   1.487   3.541 -2.4957 -0.8588  0.2827
  123MOL    H3819802   0.226   1.323   3.518  2.5802 -2.2100  2.3114
  123MOL    H3919803   0.070   1.287   3.708 -1.2926  0.5170  0.9952
  123MOL    H4019804   0.022   1.440   3.859 -1.7569  1.1775 -0.6427
  123MOL    H4119805   0.150   1.532   3.812  0.0815  0.1134  1.7184
  123MOL    C4219806   7.243   1.414   3.566  0.1689 -0.4405  0.2195
  123MOL    C4319807   7.101   1.367   3.622  1.0440 -0.4999 -0.0690
  123MOL    N4419808   7.000   1.394   3.519 -0.0409 -0.1854  0.5876
  123MOL    H4519809   7.242   1.522   3.550 -0.0628 -0.1512  2.1004
  123MOL    H4619810   0.003   1.376   3.470 -1.3586  1.4625 -1.1459
  123MOL    H4719811   7.071   1.406   3.720 -2.7884 -1.3067 -0.8436
  123MOL    H4819812   6.905   1.361   3.530  0.2067 -0.2257  2.8018
  123MOL    H4919813   7.027   1.346   3.435 -2.1330 -0.8918  0.2960
  123MOL    C5019814   7.109   1.209   3.657 -0.3056  0.2223  0.1514
  123MOL    C5119815   6.970   1.149   3.690  0.3824 -0.6930 -0.6054
  123MOL    N5219816   6.992   1.012   3.734  0.4918 -0.3442  0.3989
  123MOL    H5319817   7.146   1.152   3.572  2.8703  1.5054  0.6416
  123MOL    H5419818   7.179   1.185   3.737 -0.4115 -0.6911 -0.0227
  123MOL    H5519819   6.911   1.147   3.599  0.3836  0.0893 -0.6315
  123MOL    H5619820   7.010   1.021   3.833 -2.1921 -0.6334  0.9645
  123MOL    H5719821   6.900   0.970   3.734 -0.9805  2.6805 -1.4467
  123MOL    C5819822   6.889   1.234   3.792 -0.4963  1.0576 -0.0149
  123MOL    C5919823   6.748   1.193   3.785  0.1132 -0.1584 -0.3076
  123MOL    N6019824   6.678   1.232   3.909 -0.5516 -0.1635 -0.1648
  123MOL    H6119825   6.937   1.221   3.889  1.7862  0.5212 -1.1973
  123MOL    H6219826   6.892   1.338   3.760 -0.7591  0.7929 -0.9117
  123MOL    H6319827   6.747   1.084   3.779 -0.4138 -0.1971  0.4390
  123MOL    H6419828   6.580   1.209   3.898 -0.1380 -2.4276  0.7265
  123MOL    H6519829   6.678   1.333   3.900  1.7604 -0.3214 -2.3867
  123MOL    C6619830   6.672   1.253   3.662 -0.4629  0.0951  0.6908
  123MOL    C6719831   6.554   1.170   3.620  0.0657 -0.3418  0.3805
  123MOL    N6819832   6.486   1.254   3.523 -0.5277  0.2429 -0.1795
  123MOL    H6919833   6.631   1.352   3.680  0.1006  0.4025  0.3127
  123MOL    H7019834   6.730   1.255   3.569 -0.6962 -2.1094  0.4704
  123MOL    H7119835   6.492   1.152   3.708 -0.0303  0.8612  0.5710
  123MOL    H7219836   6.556   1.271   3.452  0.0854 -1.9995 -0.1395
  123MOL    H7319837   6.421   1.195   3.474 -0.0758  0.2495 -0.7976
  123MOL    C7419838   6.586   1.044   3.551 -0.2908  0.1571  0.2451
  123MOL    C7519839   6.563   0.907   3.623  0.3457 -0.1323  0.8151
  123MOL    N7619840   6.421   0.897   3.662 -0.3723 -0.2382 -0.5443
  123MOL    H7719841   6.523   1.031   3.464  3.1276 -1.3298 -2.1497
  123MOL    H7819842   6.688   1.047   3.512  0.3209  0.1558  1.7966
  123MOL    H7919843   6.625   0.903   3.713 -0.6828 -3.7224  1.4365
  123MOL    H8019844   6.418   0.889   3.763  1.9863  1.2014 -0.3270
  123MOL    H8119845   6.367   0.816   3.633 -0.6321 -0.9668  1.8429
  123MOL    C8219846   6.597   0.783   3.543 -0.8626  0.6973 -0.3120
  123MOL    C8319847   6.747   0.761   3.531 -0.1285  0.0812  0.1393
  123MOL    N8419848   6.784   0.665   3.636 -0.0135  0.3233 -0.0373
  123MOL    H8519849   6.550   0.695   3.585  0.6479  0.0007 -0.0684
  123MOL    H8619850   6.551   0.787   3.444 -0.1497 -2.0749 -0.7738
  123MOL    H8719851   6.805   0.850   3.555  0.1039 -0.2131  0.6644
  123MOL    H8819852   6.871   0.624   3.605  0.9279  1.8364  0.5559
  123MOL    H8919853   6.802   0.720   3.719  0.3861 -1.0017  0.7691
  123MOL    C9019854   6.773   0.695   3.390 -0.1665 -0.0277  0.0288
  123MOL    C9119855   6.773   0.787   3.260 -0.3120  0.2349  0.7039
  123MOL    N9219856   6.906   0.860   3.253 -0.0551 -0.1730  0.0235
  123MOL    H9319857   6.865   0.636   3.385  0.5063  0.9947  0.3555
  123MOL    H9419858   6.689   0.626   3.376  1.9980 -2.2925 -2.5812
  123MOL    H9519859   6.692   0.860   3.264  0.4831  1.1625  0.2907
  123MOL    H9619860   6.904   0.911   3.166  3.1278 -1.2833 -0.7611
  123MOL    H9719861   6.910   0.937   3.318  0.2311 -0.3008  0.1599
  123MOL    C9819862   6.747   0.710   3.132  0.0039  0.0403  0.0170
  123MOL    C9919863   6.609   0.641   3.125  0.7305 -0.4365 -0.1853
  123MOL   N10019864   6.574   0.661   2.985 -0.0565  0.7263 -0.4495
  123MOL   H10119865   6.758   0.779   3.049 -1.7448 -1.7819 -1.7848
  123MOL   H10219866   6.817   0.627   3.116  0.8123  0.1821  2.5936
  123MOL   H10319867   6.526   0.702   3.159  1.8781  2.1691 -1.8828
  123MOL   H10419868   6.473   0.660   2.980 -0.1055  1.5422  0.4485
  123MOL   H10519869   6.609   0.746   2.943 -0.2666  1.7683  1.4490
  123MOL   C10619870   6.615   0.485   3.161  0.4438 -0.5303 -0.2997
  123MOL   C10719871   6.485   0.421   3.207  0.4050  0.3819 -0.0504
  123MOL   N10819872   6.486   0.278   3.184 -0.1755  0.6337 -0.1007
  123MOL   H10919873   6.629   0.435   3.065  1.1784 -0.5894 -0.1646
  123MOL   H11019874   6.686   0.453   3.237  0.1676 -0.1999  0.0976
  123MOL   H11119875   6.414   0.455   3.132  1.4715 -0.2528 -1.3624
  123MOL   H11219876   6.522   0.267   3.091 -0.0457  0.2867 -0.0133
  123MOL   H11319877   6.405   0.218   3.198  1.4513 -1.1698  2.0447
  123MOL   C11419878   6.432   0.459   3.347 -0.1153  0.1207  0.2740
  123MOL   C11519879   6.318   0.360   3.403  0.6180 -0.0751 -0.8165
  123MOL   N11619880   6.294   0.401   3.541  0.1720 -0.2702  0.2933
  123MOL   H11719881   6.507   0.446   3.424 -1.2670 -2.4113  0.9944
  123MOL   H11819882   6.402   0.564   3.356 -1.1866 -0.2166  0.7077
  123MOL   H11919883   6.339   0.253   3.394 -2.6721 -0.7378 -0.9918
  123MOL   H12019884   6.376   0.401   3.600  0.0854 -0.9782  0.4145
  123MOL   H12119885   6.228   0.336   3.581  0.4243 -1.1291 -0.6718
  123MOL   C12219886   6.183   0.367   3.336 -0.4009 -0.4701  0.2483
  123MOL   C12319887   6.146   0.259   3.224  0.1571  0.2424 -0.3669
  123MOL   N12419888   6.136   0.126   3.286  0.3557 -0.2610  0.4532
  123MOL   H12519889   6.110   0.345   3.414 -1.2179 -0.5685 -0.5331
  123MOL   H12619890   6.162   0.469   3.304 -0.5584 -0.1896  1.2085
  123MOL   H12719891   6.226   0.254   3.150  0.1051  0.9263 -0.4686
  123MOL   H12819892   6.044   0.085   3.295 -0.6946  1.7211 -0.9186
  123MOL   H12919893   6.187   0.062   3.228  0.3697  0.3797 -0.2466
  123MOL   C13019894   6.021   0.300   3.144  0.3047  0.2159 -0.0612
  123MOL   C13119895   6.028   0.239   3.006 -0.7674 -0.0948  0.4296
  123MOL   N13219896   5.890   0.180   2.976 -0.1059  0.1661 -0.3683
  123MOL   H13319897   5.932   0.268   3.198 -1.4227  0.3788 -2.7213
  123MOL   H13419898   6.021   0.408   3.131 -2.4215  0.1014 -1.2168
  123MOL   H13519899   6.095   0.153   3.000 -1.6425 -0.7979  0.5983
  123MOL   H13619900   5.873   0.096   3.029 -1.5930  1.4110  1.1875
  123MOL   H13719901   5.883   0.149   2.881 -0.2732 -1.1999  0.0777
  123MOL   C13819902   6.061   0.345   2.902  0.2445 -0.1200  0.6908
  123MOL   C13919903   6.201   0.400   2.914 -0.4369  0.3063  0.0082
  123MOL   N14019904   6.294   0.301   2.855  0.0707  0.3722 -0.0291
  123MOL   H14119905   6.046   0.304   2.802  2.4237 -1.9356  1.0479
  123MOL   H14219906   5.982   0.420   2.906  0.5388  0.1826  0.8416
  123MOL   H14319907   6.234   0.413   3.017  0.3884  1.9156 -0.4405
  123MOL   H14419908   6.287   0.211   2.900 -0.3705  1.5851  2.4197
  123MOL   H14519909   6.387   0.329   2.884  0.2676  0.3300 -0.6239
  123MOL   C14619910   6.233   0.529   2.842 -0.3850 -0.1846 -0.3490
  123MOL   C14719911   6.158   0.656   2.900  0.0042  0.1115  0.2023
  123MOL   N14819912   6.244   0.747   2.968 -0.7287 -0.1916  0.5340
  123MOL   H14919913   6.339   0.550   2.844 -0.1130 -1.6066  1.2633
  123MOL   H15019914   6.212   0.515   2.736 -0.3768  0.9731 -0.5066
  123MOL   H15119915   6.087   0.618   2.974  0.9113  1.2749  1.6941
  123MOL   H15219916   6.265   0.726   3.064 -1.6849  0.6812  0.9409
  123MOL   H15319917   6.192   0.834   2.973  0.1088  0.3173  0.4686
  123MOL   C15419918   6.090   0.742   2.797 -0.1430 -0.0654 -0.3457
  123MOL   C15519919   5.954   0.685   2.756 -0.3682 -0.6465  0.1207
  123MOL   N15619920   5.894   0.757   2.639 -0.2153  0.4793 -0.1643
  123MOL   H15719921   6.077   0.841   2.842  1.1064 -0.8390  1.7593
  123MOL   H15819922   6.162   0.746   2.715 -1.2444 -4.6322 -1.6611
  123MOL   H15919923   5.896   0.688   2.848  0.7310  0.9304  0.7791
  123MOL   H16019924   5.964   0.783   2.571  2.5429 -1.9463  1.6099
  123MOL   H16119925   5.858   0.846   2.670 -0.8807 -0.4314  1.7699
  123MOL   H16219926   5.965   0.579   2.731  2.3500 -0.2990 -0.3016
  124MOL     C119927   6.372   6.375   5.874  0.2893  0.2000 -0.3057
  124MOL     C219928   6.505   6.359   5.949  0.5409 -0.5915  0.2305
  124MOL     N319929   6.582   6.484   5.953 -0.4416 -0.6093 -0.1929
  124MOL     H419930   6.383   6.380   5.765  0.8293  1.0665 -0.2173
  124MOL     H519931   6.324   6.467   5.908  0.4077  0.0903  0.1523
  124MOL     H619932   6.564   6.295   5.884 -0.5874  0.4425 -1.8579
  124MOL     H719933   6.564   6.535   5.867  1.2823  1.8500  0.8308
  124MOL     H819934   6.680   6.463   5.959 -0.4078 -0.9968 -1.9196
  124MOL     H919935   6.298   6.300   5.901 -0.8588  2.2579  2.5969
  124MOL    C1019936   6.487   6.295   6.090  0.3282  0.1962 -0.0217
  124MOL    C1119937   6.434   6.149   6.098  0.7211 -0.1957  0.3574
  124MOL    N1219938   6.547   6.053   6.087 -1.1582 -0.0134  0.0112
  124MOL    H1319939   6.584   6.305   6.138  0.8586  0.5800 -1.1630
  124MOL    H1419940   6.420   6.365   6.141  0.3429  2.2287 -2.6928
  124MOL    H1519941   6.356   6.135   6.024 -0.2520  2.1571  0.9087
  124MOL    H1619942   6.597   6.063   6.174 -1.1153  0.3809 -0.0602
  124MOL    H1719943   6.606   6.103   6.023 -2.5685  1.0683 -0.4738
  124MOL    C1819944   6.366   6.127   6.238  0.1226 -0.0625 -1.2461
  124MOL    C1919945   6.275   5.995   6.239 -0.0566 -0.0753  0.3272
  124MOL    N2019946   6.290   5.935   6.371  0.1384 -0.6577 -0.2924
  124MOL    H2119947   6.436   6.130   6.322 -0.9337 -1.2838 -0.3187
  124MOL    H2219948   6.300   6.213   6.247  0.9691  0.5486 -0.7040
  124MOL    H2319949   6.318   5.923   6.170 -2.5465  0.4758 -1.9019
  124MOL    H2419950   6.233   5.853   6.385  3.5219 -3.1848 -0.8453
  124MOL    H2519951   6.385   5.904   6.388 -0.3061 -2.1136 -0.4681
  124MOL    C2619952   6.127   6.034   6.210  0.0630  0.2144 -0.0170
  124MOL    C2719953   6.093   6.101   6.077  0.6220 -0.0076  0.0813
  124MOL    N2819954   6.118   6.005   5.965 -0.4822  0.9591  0.8007
  124MOL    H2919955   6.056   5.951   6.221 -3.0965  2.8187 -0.1061
  124MOL    H3019956   6.094   6.107   6.284 -1.5562 -0.2481 -0.2593
  124MOL    H3119957   6.156   6.190   6.066  1.9679 -0.5844  2.5456
  124MOL    H3219958   6.097   6.049   5.876  0.5200  3.6133  1.8140
  124MOL    H3319959   6.209   5.966   5.950 -1.0275  1.5668 -5.2415
  124MOL    C3419960   5.945   6.145   6.058 -0.1227 -0.4793  0.2046
  124MOL    C3519961   5.916   6.292   6.061 -0.0077  0.9244  0.1938
  124MOL    N3619962   5.777   6.317   6.014  0.4979 -0.3796 -0.5498
  124MOL    H3719963   5.905   6.089   5.973 -0.3958 -0.0916  0.0776
  124MOL    H3819964   5.894   6.093   6.140 -0.3679  1.4366  1.2885
  124MOL    H3919965   5.984   6.336   5.988  0.1493  0.7132  0.2138
  124MOL    H4019966   5.753   6.250   5.943  0.8941 -0.4177 -0.6508
  124MOL    H4119967   5.772   6.410   5.973  0.0124 -0.0833  0.1811
  124MOL    C4219968   5.939   6.360   6.193 -0.3141  0.5598  0.3825
  124MOL    C4319969   5.970   6.513   6.198  0.9109  0.2474 -0.3915
  124MOL    N4419970   5.937   6.549   6.338  0.3540 -0.4743 -0.1532
  124MOL    H4519971   5.865   6.333   6.269  0.8680 -0.8604  1.0485
  124MOL    H4619972   6.030   6.310   6.227 -0.5617  2.1521  3.6087
  124MOL    H4719973   5.898   6.574   6.145 -0.1661 -0.9136 -0.2917
  124MOL    H4819974   5.876   6.478   6.378  1.0422 -0.5445  0.7907
  124MOL    H4919975   6.022   6.533   6.389 -0.0609 -0.7554  0.4543
  124MOL    C5019976   6.114   6.561   6.157 -0.6954 -0.2430  0.0937
  124MOL    C5119977   6.137   6.716   6.144  0.0594 -0.2679 -0.1282
  124MOL    N5219978   6.277   6.751   6.125  0.0962 -0.1214 -0.2634
  124MOL    H5319979   6.164   6.516   6.243 -1.8308 -0.8826  0.4303
  124MOL    H5419980   6.154   6.509   6.070  1.6638 -0.3583  1.2077
  124MOL    H5519981   6.091   6.773   6.225 -1.9746 -0.1600 -1.3419
  124MOL    H5619982   6.315   6.734   6.216 -2.7780  2.7179  1.5826
  124MOL    H5719983   6.323   6.684   6.064 -0.0411 -0.2471 -0.2268
  124MOL    C5819984   6.071   6.783   6.020 -0.4567 -0.3967  0.7525
  124MOL    C5919985   6.028   6.932   6.047 -0.1891  0.2390  1.0433
  124MOL    N6019986   6.145   7.012   6.054  0.0879 -0.6675 -0.0682
  124MOL    H6119987   6.132   6.780   5.929  0.3555  0.6753  1.2560
  124MOL    H6219988   5.994   6.709   6.001 -0.6794  0.2911 -1.1274
  124MOL    H6319989   5.967   6.929   6.138 -4.1170 -0.7937 -1.4810
  124MOL    H6419990   6.182   7.047   5.966 -0.8171 -1.3898 -0.7405
  124MOL    H6519991   6.216   6.948   6.086  0.6113 -0.1212 -0.1071
  124MOL    C6619992   5.939   6.985   5.933  0.3826 -0.4884  0.5445
  124MOL    C6719993   5.800   6.923   5.924 -0.5685  0.4134 -0.4136
  124MOL    N6819994   5.730   6.984   6.036  0.0918 -0.0089  0.5300
  124MOL    H6919995   5.937   7.094   5.937 -1.4547 -0.4709 -0.6771
  124MOL    H7019996   5.993   6.965   5.841 -0.2550 -1.5168  0.3925
  124MOL    H7119997   5.807   6.821   5.960  0.4433  0.9158  0.8583
  124MOL    H7219998   5.785   6.994   6.120  2.0497 -1.1088 -0.5830
  124MOL    H7319999   5.647   6.934   6.065 -0.9977  1.1523 -0.5087
  124MOL    C7420000   5.710   6.938   5.799 -0.8712  0.6968  0.6881
  124MOL    C7520001   5.754   6.848   5.681 -0.6963 -0.3894  0.0881
  124MOL    N7620002   5.734   6.715   5.732  0.6316 -0.5143  0.3860
  124MOL    H7720003   5.608   6.918   5.832 -0.5100  0.0142  1.4121
  124MOL    H7820004   5.702   7.041   5.767 -0.8883  0.3046 -0.5798
  124MOL    H7920005   5.853   6.861   5.638 -1.3138  1.4809 -0.7936
  124MOL    H8020006   5.716   6.656   5.652  0.9344  2.4309 -1.9536
  124MOL    H8120007   5.650   6.715   5.788 -0.4288 -1.1257 -1.1600
  124MOL    C8220008   5.661   6.855   5.556  0.5660  0.3135 -0.2936
  124MOL    C8320009   5.625   6.995   5.516  0.2696  0.9044  1.0087
  124MOL    N8420010   5.598   6.991   5.372 -0.0518  0.5801 -0.0621
  124MOL    H8520011   5.729   6.823   5.478  0.7190  1.9156 -0.8419
  124MOL    H8620012   5.572   6.798   5.584 -0.4998  0.5157 -3.1057
  124MOL    H8720013   5.705   7.070   5.523  1.5198 -0.3489  0.5317
  124MOL    H8820014   5.522   6.931   5.344  1.9736 -2.5651  0.9508
  124MOL    H8920015   5.562   7.082   5.346  0.9242  0.5349 -1.6667
  124MOL    C9020016   5.499   7.046   5.592 -0.0755 -0.3916  0.0809
  124MOL    C9120017   5.484   7.196   5.581 -0.6931 -0.0907 -0.0745
  124MOL    N9220018   5.458   7.248   5.445  0.1079  0.3963  0.5187
  124MOL    H9320019   5.407   7.009   5.547 -0.6626  1.5664 -0.3835
  124MOL    H9420020   5.495   7.007   5.694 -0.3752  3.3228  1.5536
  124MOL    H9520021   5.583   7.232   5.607 -0.8546 -0.3292  0.8923
  124MOL    H9620022   5.552   7.273   5.416  0.6021 -0.9685  0.8856
  124MOL    H9720023   5.406   0.056   5.467  0.6661  1.0854 -0.7426
  124MOL    C9820024   5.374   7.245   5.687 -0.6833  0.2630 -0.0143
  124MOL    C9920025   5.374   0.121   5.712  0.1537 -0.3491 -0.7520
  124MOL   N10020026   5.272   0.181   5.634  0.0573 -0.0972  0.5961
  124MOL   H10120027   5.269   7.225   5.663 -0.3167  0.5028 -1.9666
  124MOL   H10220028   5.389   7.192   5.781 -0.6063 -0.3019 -0.3405
  124MOL   H10320029   5.466   0.161   5.669  1.2335 -2.7855 -0.8042
  124MOL   H10420030   5.281   0.281   5.621 -1.3699 -0.1659 -1.0087
  124MOL   H10520031   5.197   0.183   5.702  2.6885  1.6749  3.6321
  124MOL   C10620032   5.373   0.166   5.859  0.7503 -0.3630 -0.6009
  124MOL   C10720033   5.505   0.139   5.936 -0.1618  0.0593 -0.5310
  124MOL   N10820034   5.513   0.241   6.036 -0.0684  0.4996 -0.5845
  124MOL   H10920035   5.338   0.269   5.864  1.8723 -0.0121  0.2629
  124MOL   H11020036   5.289   0.112   5.902 -1.2200  1.6794 -1.7554
  124MOL   H11120037   5.585   0.166   5.866 -0.1886 -0.0418 -0.6002
  124MOL   H11220038   5.604   0.275   6.062 -0.3038 -0.5070  1.7381
  124MOL   H11320039   5.484   0.320   5.981  0.1972  1.3002  0.4244
  124MOL   C11420040   5.545   7.269   5.973  0.1035  0.2190  0.0718
  124MOL   C11520041   5.444   7.186   6.060 -0.4792 -0.0064  0.2645
  124MOL   N11620042   5.435   7.054   6.006 -0.7171  0.0700  0.0047
  124MOL   H11720043   5.573   7.211   5.886 -0.8554  0.6564 -0.5418
  124MOL   H11820044   5.643   0.007   6.018  0.4634 -1.5012 -0.1947
  124MOL   H11920045   5.349   7.235   6.077 -0.9849 -0.3360 -1.4842
  124MOL   H12020046   5.401   7.006   6.087 -3.3134  1.3645 -0.2698
  124MOL   H12120047   5.527   7.020   5.981 -0.1932  0.5911  1.2462
  124MOL   C12220048   5.496   7.184   6.210 -0.2037  0.3438 -0.1181
  124MOL   C12320049   5.539   0.035   6.284  0.5645  0.2073  0.8504
  124MOL   N12420050   5.433   0.124   6.277  0.3163  0.1771  0.6460
  124MOL   H12520051   5.419   7.135   6.269 -1.7326  1.2884 -1.2900
  124MOL   H12620052   5.579   7.113   6.211 -1.6001 -1.3212  2.0879
  124MOL   H12720053   5.612   0.070   6.211 -0.8196  0.0977 -0.6108
  124MOL   H12820054   5.425   0.154   6.181 -2.3144  1.2887  1.1484
  124MOL   H12920055   5.474   0.206   6.318  3.1420 -1.5907  1.4915
  124MOL   C13020056   5.608   0.015   6.419  0.3577 -0.4591  0.0708
  124MOL   C13120057   5.743   7.210   6.410 -0.5008  0.1414  1.0469
  124MOL   N13220058   5.846   0.016   6.349 -0.3817 -0.1417 -0.2342
  124MOL   H13320059   5.635   0.095   6.487 -0.1574  0.5742 -0.9320
  124MOL   H13420060   5.537   7.235   6.480 -0.2012  0.6569  0.4497
  124MOL   H13520061   5.729   7.122   6.347 -1.0353  1.2621 -0.4304
  124MOL   H13620062   5.937   7.260   6.381  0.5203  0.7744 -1.8020
  124MOL   H13720063   5.848   0.021   6.248 -1.4818  1.3849 -0.2052
  124MOL   C13820064   5.788   7.169   6.551  0.2324  0.4634 -0.2059
  124MOL   C13920065   5.902   7.063   6.572  0.6005  0.0664 -0.1121
  124MOL   N14020066   5.995   7.089   6.684  0.1086  0.1548  0.2528
  124MOL   H14120067   5.820   7.263   6.596  2.5897  0.1522 -1.1575
  124MOL   H14220068   5.702   7.138   6.611 -0.9422  2.2357 -0.9273
  124MOL   H14320069   5.969   7.066   6.486  1.7589  2.5993  0.8267
  124MOL   H14420070   6.003   7.188   6.707  0.4353 -0.3243  2.3289
  124MOL   H14520071   5.950   7.057   6.769  2.3181 -0.0535  1.3957
  124MOL   C14620072   5.848   6.919   6.573 -0.0911  0.3221 -0.0475
  124MOL   C14720073   5.776   6.857   6.448  0.0792  0.2904 -0.1463
  124MOL   N14820074   5.857   6.820   6.339  0.0620 -0.0617 -0.9754
  124MOL   H14920075   5.931   6.851   6.592 -0.6240 -0.2981  0.0737
  124MOL   H15020076   5.782   6.931   6.659 -0.4896  2.2768 -0.5875
  124MOL   H15120077   5.695   6.923   6.417 -0.5248 -0.1198  0.5561
  124MOL   H15220078   5.948   6.864   6.343  0.5333 -1.0046 -1.3272
  124MOL   H15320079   5.886   6.724   6.343  2.1492  0.6054  0.9830
  124MOL   C15420080   5.697   6.732   6.496 -0.7169  0.2119 -0.3631
  124MOL   C15520081   5.560   6.764   6.569 -0.1683  0.1042 -0.6055
  124MOL   N15620082   5.496   6.649   6.637 -0.4424  0.3051  0.4652
  124MOL   H15720083   5.683   6.661   6.415  0.3770 -0.4710  0.0367
  124MOL   H15820084   5.759   6.678   6.567  0.6619  2.6616  0.3749
  124MOL   H15920085   5.491   6.809   6.497 -3.1652 -0.9091  1.5401
  124MOL   H16020086   5.502   6.568   6.577  2.5474 -1.4268  2.9814
  124MOL   H16120087   5.556   6.638   6.718  2.5105  1.0869 -1.5030
  124MOL   H16220088   5.573   6.838   6.649  2.1115  1.9170 -2.5758
  125MOL     C120089   6.798   3.680   7.100 -0.0052  0.1554  0.2740
  125MOL     C220090   6.726   3.806   7.061  0.1533  0.1471 -0.1983
  125MOL     N320091   6.692   3.881   7.181 -0.2839 -0.4068  0.1301
  125MOL     H420092   6.891   3.722   7.138  1.2186 -1.8532 -0.4372
  125MOL     H520093   6.814   3.620   7.011  1.1543  0.7096  0.0972
  125MOL     H620094   6.631   3.780   7.013  0.3069  0.4617 -0.6784
  125MOL     H720095   6.652   3.826   7.256 -1.7883  0.2461 -0.1719
  125MOL     H820096   6.632   3.960   7.161 -0.2878 -0.3351  0.4195
  125MOL     H920097   6.741   3.620   7.171  0.6163 -0.7127  0.0380
  125MOL    C1020098   6.807   3.898   6.970  0.1914  0.0034  0.0111
  125MOL    C1120099   6.855   3.831   6.848 -0.9502  0.3556 -0.2112
  125MOL    N1220100   6.738   3.796   6.773 -0.3380  0.6956  0.3072
  125MOL    H1320101   6.743   3.982   6.943 -2.4898 -1.9128  0.1885
  125MOL    H1420102   6.891   3.938   7.027  0.5412 -0.1897 -0.3723
  125MOL    H1520103   6.925   3.749   6.866  0.7535  1.3503 -2.1024
  125MOL    H1620104   6.774   3.774   6.681 -1.4709  2.4696 -0.6054
  125MOL    H1720105   6.700   3.710   6.808  0.6502 -0.6496 -1.8245
  125MOL    C1820106   6.947   3.922   6.763  0.4130 -0.5409 -0.0914
  125MOL    C1920107   7.100   3.914   6.772 -0.4017 -0.1068 -0.2012
  125MOL    N2020108   7.179   3.991   6.675  0.3577  0.2820 -0.3922
  125MOL    H2120109   6.940   3.926   6.655 -0.0668 -0.5324 -0.0614
  125MOL    H2220110   6.915   4.021   6.795 -0.8226 -0.6232 -1.0101
  125MOL    H2320111   7.122   3.808   6.756  0.7763  0.1340 -0.2427
  125MOL    H2420112   7.157   3.967   6.580 -0.6186  0.8125 -0.3118
  125MOL    H2520113   0.000   3.965   6.687  0.3374  0.4793  0.2216
  125MOL    C2620114   7.150   3.955   6.914 -0.1858  0.3735 -0.6105
  125MOL    C2720115   7.160   3.832   7.019 -0.2783  0.5863 -0.2272
  125MOL    N2820116   0.007   3.759   6.986  0.3175 -0.0929  0.8079
  125MOL    H2920117   7.247   4.003   6.909  0.5243 -0.8367  0.9413
  125MOL    H3020118   7.077   4.029   6.948  1.1013  0.7886  1.3638
  125MOL    H3120119   7.067   3.778   7.001 -0.6233  1.3907 -0.9094
  125MOL    H3220120   0.025   3.699   7.064  0.9028 -1.4747 -0.3697
  125MOL    H3320121   7.253   3.698   6.910  2.1467 -0.7466  0.6009
  125MOL    C3420122   7.176   3.904   7.161  0.0100 -0.7805  0.6400
  125MOL    C3520123   7.135   3.828   0.012  0.3921  0.2721 -0.7523
  125MOL    N3620124   7.246   3.755   0.065  0.3147 -0.1920  0.0027
  125MOL    H3720125   7.275   3.948   7.177  0.5999 -1.8068 -0.1160
  125MOL    H3820126   7.111   3.991   7.162  1.1971  0.1199  0.6683
  125MOL    H3920127   7.067   3.744   7.272 -1.5441  1.4862  0.8164
  125MOL    H4020128   7.238   3.661   0.031 -1.3952 -1.2701  3.1556
  125MOL    H4120129   0.051   3.782   0.010 -1.0291  0.4978 -1.6798
  125MOL    C4220130   7.064   3.920   0.116  0.3239  0.4683 -0.4700
  125MOL    C4320131   7.004   3.852   0.231  0.5297 -0.1406 -0.2164
  125MOL    N4420132   7.107   3.821   0.332  0.0059  0.2420  0.0562
  125MOL    H4520133   7.139   3.990   0.153 -0.2118  0.3709  0.8520
  125MOL    H4620134   6.988   3.975   0.062 -0.6260 -1.3911 -1.0899
  125MOL    H4720135   6.955   3.759   0.203  0.7396 -0.4984  0.6006
  125MOL    H4820136   7.188   3.801   0.275 -1.1844 -2.0393 -0.8900
  125MOL    H4920137   7.089   3.732   0.376  0.8737 -0.4027 -0.8584
  125MOL    C5020138   6.907   3.948   0.308  0.0836 -0.0034  0.5008
  125MOL    C5120139   6.792   3.871   0.368 -0.2522  0.1796 -0.2322
  125MOL    N5220140   6.764   3.913   0.505 -0.1495  0.0925  0.1162
  125MOL    H5320141   6.964   3.984   0.394 -1.1387  0.7711  1.0034
  125MOL    H5420142   6.871   4.031   0.246  0.4300 -1.1003 -1.2047
  125MOL    H5520143   6.824   3.767   0.370 -1.4713 -0.2018  0.0239
  125MOL    H5620144   6.813   4.001   0.510  0.1258 -0.0587  0.0991
  125MOL    H5720145   6.667   3.937   0.513 -0.1209  0.2927 -0.1514
  125MOL    C5820146   6.660   3.874   0.287 -0.1010 -0.2933  0.2375
  125MOL    C5920147   6.594   3.737   0.282  0.6425  0.5394  0.3445
  125MOL    N6020148   6.449   3.754   0.297  0.0708  0.0189  0.5856
  125MOL    H6120149   6.590   3.950   0.324  0.6948  1.2853 -1.4215
  125MOL    H6220150   6.673   3.913   0.186  0.6648  0.7967  0.7400
  125MOL    H6320151   6.623   3.683   0.372 -2.6212 -0.6424  0.7623
  125MOL    H6420152   6.420   3.790   0.387 -0.0673 -0.8901  0.9050
  125MOL    H6520153   6.416   3.659   0.298 -1.7248  0.6301  1.8470
  125MOL    C6620154   6.633   3.647   0.163 -0.2408  0.2344 -0.3263
  125MOL    C6720155   6.646   3.497   0.184  0.6235  0.6358 -0.4200
  125MOL    N6820156   6.519   3.433   0.157  0.0184 -0.5127  0.5393
  125MOL    H6920157   6.555   3.658   0.088 -0.4293 -1.5720 -0.4201
  125MOL    H7020158   6.725   3.686   0.120  0.4241  0.8355  1.5886
  125MOL    H7120159   6.673   3.475   0.287  1.0128  0.1588 -0.6233
  125MOL    H7220160   6.528   3.334   0.176  1.9102  0.0878  2.9666
  125MOL    H7320161   6.445   3.464   0.218  1.3882  2.2529  0.8942
  125MOL    C7420162   6.753   3.420   0.109 -0.3022  0.5006 -0.0521
  125MOL    C7520163   6.900   3.468   0.117  0.8912  0.0616  0.3025
  125MOL    N7620164   6.934   3.502   0.252  0.2140  0.1085  0.2389
  125MOL    H7720165   6.757   3.312   0.129 -0.7316  0.1012 -2.0444
  125MOL    H7820166   6.729   3.423   0.003 -2.0650  0.3527  0.3362
  125MOL    H7920167   6.913   3.558   0.056  0.0200 -1.6535 -2.4903
  125MOL    H8020168   7.032   3.518   0.268  0.1331  1.7696 -0.8239
  125MOL    H8120169   6.886   3.588   0.273 -1.6680 -0.8186 -0.1459
  125MOL    C8220170   6.994   3.351   0.056 -0.5076  0.8544 -0.2866
  125MOL    C8320171   7.066   3.391   7.199  0.8781  0.1719 -0.0759
  125MOL    N8420172   7.167   3.489   7.222 -0.4781 -0.4312 -0.0238
  125MOL    H8520173   7.067   3.323   0.131 -1.1443  1.2383  0.4817
  125MOL    H8620174   6.941   3.259   0.034 -0.6821  0.3779  2.0491
  125MOL    H8720175   6.987   3.441   7.143 -2.2670 -2.1128  2.1145
  125MOL    H8820176   7.154   3.515   0.044  1.4066 -3.2114  1.0022
  125MOL    H8920177   7.259   3.449   7.222  1.2330  3.2688 -1.7003
  125MOL    C9020178   7.113   3.264   7.122  0.0111 -0.2143  1.7098
  125MOL    C9120179   7.003   3.216   7.025  0.0236  0.4385 -0.0591
  125MOL    N9220180   7.047   3.245   6.892 -0.5344  0.2265  0.3998
  125MOL    H9320181   7.207   3.277   7.069 -0.1893 -0.7267  1.2333
  125MOL    H9420182   7.145   3.193   7.198  0.9919  0.4427  1.9235
  125MOL    H9520183   6.913   3.275   7.040  0.7418  1.1063  1.8003
  125MOL    H9620184   6.976   3.263   6.822  0.7811 -0.7299 -1.2086
  125MOL    H9720185   7.103   3.328   6.899 -1.1338  0.6869 -0.1936
  125MOL    C9820186   6.970   3.065   7.041  0.2173 -0.1262  0.6249
  125MOL    C9920187   6.834   3.022   6.987 -0.5234 -0.4294  0.2353
  125MOL   N10020188   6.836   2.880   6.981  0.2636  0.8974 -0.0199
  125MOL   H10120189   7.047   3.006   6.992  2.5526  1.8233  1.8159
  125MOL   H10220190   6.972   3.040   7.147  0.9121  3.3012  1.4869
  125MOL   H10320191   6.826   3.063   6.886 -1.2560  0.5440  0.6830
  125MOL   H10420192   6.923   2.844   6.946 -0.4057 -1.1361  0.3506
  125MOL   H10520193   6.768   2.851   6.912  0.3849  2.0884 -0.6571
  125MOL   C10620194   6.708   3.057   7.069  0.0562  1.2467 -0.2220
  125MOL   C10720195   6.627   3.182   7.038  0.1997 -0.1028 -0.4764
  125MOL   N10820196   6.554   3.160   6.913  0.2753 -0.5815 -0.2807
  125MOL   H10920197   6.639   2.974   7.054  0.4334  0.1606  3.4558
  125MOL   H11020198   6.718   3.045   7.177 -0.1654  1.0006 -0.2272
  125MOL   H11120199   6.698   3.265   7.029 -0.8331  0.8636  0.1754
  125MOL   H11220200   6.505   3.072   6.923 -3.5036  1.6816  2.4230
  125MOL   H11320201   6.622   3.129   6.845  2.4217  1.2429  0.9764
  125MOL   C11420202   6.519   3.210   7.146  0.0013  0.2454 -0.1406
  125MOL   C11520203   6.410   3.322   7.115 -0.0157  0.1997 -0.4985
  125MOL   N11620204   6.314   3.330   7.222  0.4728 -0.9480  0.0671
  125MOL   H11720205   6.459   3.121   7.164 -1.1321  1.0610  0.1941
  125MOL   H11820206   6.557   3.246   7.241 -1.1685  2.5039 -0.4761
  125MOL   H11920207   6.357   3.294   7.024 -1.9618  0.3036  0.5702
  125MOL   H12020208   6.370   3.365   0.024  0.4260 -0.0388 -0.3051
  125MOL   H12120209   6.290   3.238   7.255  1.6281 -0.6200  1.9114
  125MOL   C12220210   6.470   3.460   7.098  0.4823 -0.3893 -0.3516
  125MOL   C12320211   6.383   3.572   7.035  0.3459 -0.4652 -0.2119
  125MOL   N12420212   6.366   3.683   7.128  0.3287 -0.3768 -0.1135
  125MOL   H12520213   6.500   3.488   7.200  0.0969  1.3812 -0.7035
  125MOL   H12620214   6.555   3.452   7.031  0.4364  1.3123 -0.6225
  125MOL   H12720215   6.282   3.533   7.025  0.4820 -1.5418  2.2859
  125MOL   H12820216   6.355   3.634   7.216 -3.0020  3.0877  1.5714
  125MOL   H12920217   6.456   3.729   7.128  0.4061 -0.4774 -2.5387
  125MOL   C13020218   6.435   3.618   6.899 -0.1749 -0.3855  0.1506
  125MOL   C13120219   6.394   3.526   6.780  0.5813 -0.4428 -0.1076
  125MOL   N13220220   6.258   3.563   6.737 -0.1352  0.3982 -0.0940
  125MOL   H13320221   6.409   3.722   6.878  1.5102 -0.5807 -3.2185
  125MOL   H13420222   6.544   3.615   6.901 -0.1587 -0.0291 -0.2788
  125MOL   H13520223   6.386   3.425   6.820  1.7051 -0.6832 -0.4591
  125MOL   H13620224   6.182   3.558   6.803  0.2985 -3.0100  0.2361
  125MOL   H13720225   6.243   3.650   6.688  1.5739  0.0723 -1.2692
  125MOL   C13820226   6.490   3.515   6.658 -0.3785  0.0827 -0.2740
  125MOL   C13920227   6.620   3.433   6.684  0.2088  0.4403  0.1517
  125MOL   N14020228   6.602   3.296   6.658 -0.1649 -0.3381  0.4608
  125MOL   H14120229   6.451   3.466   6.569  3.0286 -1.2169 -1.1345
  125MOL   H14220230   6.520   3.618   6.637  0.1126  0.0392  0.1909
  125MOL   H14320231   6.655   3.448   6.786 -0.1840  1.3132  0.1658
  125MOL   H14420232   6.549   3.273   6.576 -1.3081  0.6624  0.9090
  125MOL   H14520233   6.559   3.259   6.742  0.4126 -1.7243  0.1575
  125MOL   C14620234   6.730   3.484   6.598  0.0267 -0.1682  1.5742
  125MOL   C14720235   6.874   3.462   6.653  0.9350  1.1855  0.7315
  125MOL   N14820236   6.896   3.318   6.667  0.0698  0.1999  0.5168
  125MOL   H14920237   6.717   3.460   6.492  0.8172 -1.7421  1.8093
  125MOL   H15020238   6.721   3.592   6.598  1.4133 -0.0266 -0.5271
  125MOL   H15120239   6.890   3.509   6.750 -1.9307  1.3411  1.1765
  125MOL   H15220240   6.904   3.283   6.572 -0.5864 -0.0237  0.5385
  125MOL   H15320241   6.798   3.295   6.678  0.3042 -1.9950 -1.4669
  125MOL   C15420242   6.983   3.506   6.553 -0.3018 -0.2138  0.0175
  125MOL   C15520243   6.987   3.660   6.525 -0.4398  0.4976  0.2138
  125MOL   N15620244   7.087   3.692   6.430  0.3090 -0.1172  0.2541
  125MOL   H15720245   7.081   3.480   6.592 -1.3142 -2.8804  0.9334
  125MOL   H15820246   6.977   3.447   6.462 -0.5006 -0.4843  0.2032
  125MOL   H15920247   7.015   3.709   6.619  1.4352  0.2386 -0.1755
  125MOL   H16020248   7.053   3.681   6.335  1.1894  0.3399 -0.1192
  125MOL   H16120249   7.170   3.634   6.431 -0.2649 -0.9663 -0.5279
  125MOL   H16220250   6.895   3.706   6.489 -0.3997  1.7818  1.7007
  126MOL     C120251   4.379   7.080   3.113  0.2288 -0.0914 -0.0503
  126MOL     C220252   4.226   7.058   3.111  0.2037 -0.4866  0.0375
  126MOL     N320253   4.184   7.015   3.243 -0.8840 -0.1000  0.1159
  126MOL     H420254   4.405   7.176   3.158  3.5576 -0.7028 -0.5314
  126MOL     H520255   4.408   7.099   3.010 -1.5386  1.9289 -0.2227
  126MOL     H620256   4.212   6.987   3.029 -1.1283  1.3668 -1.4034
  126MOL     H720257   4.090   6.979   3.238 -1.5312  1.2693  1.8175
  126MOL     H820258   4.238   6.933   3.268 -0.3035  0.3585  0.3799
  126MOL     H920259   4.429   6.988   3.143 -3.1317 -1.7794  0.5984
  126MOL    C1020260   4.151   7.192   3.075  0.6847  0.0895 -0.0628
  126MOL    C1120261   4.055   7.177   2.954 -0.2534 -0.8038 -0.3107
  126MOL    N1220262   3.987   0.026   2.927 -0.7059 -0.1244 -0.1738
  126MOL    H1320263   4.095   7.235   3.158  1.7704  0.1197  0.6727
  126MOL    H1420264   4.221   7.269   3.042 -1.9251  1.0422 -3.6980
  126MOL    H1520265   3.980   7.105   2.987 -0.1490 -0.7272  0.1027
  126MOL    H1620266   3.914   0.007   2.860 -0.1133 -3.2943  0.0255
  126MOL    H1720267   3.937   0.061   3.008 -2.0750 -1.4989 -0.4035
  126MOL    C1820268   4.132   7.130   2.823  0.4915  0.3880  0.0021
  126MOL    C1920269   4.045   7.066   2.703  0.3967 -0.0402  0.4191
  126MOL    N2020270   4.125   7.045   2.582  0.4139 -0.2031 -0.5531
  126MOL    H2120271   4.177   7.220   2.781  0.7747  0.6699  0.8937
  126MOL    H2220272   4.212   7.058   2.837  0.8310  0.9014  0.6890
  126MOL    H2320273   3.974   7.146   2.681  0.3602 -0.9677 -3.2460
  126MOL    H2420274   4.218   7.028   2.618 -0.2343  0.8965  1.7056
  126MOL    H2520275   4.134   7.132   2.532 -0.1518  0.8667  1.1846
  126MOL    C2620276   3.964   6.934   2.733  0.4164 -0.0872  1.1393
  126MOL    C2720277   3.864   6.873   2.630  0.2877 -0.3291 -0.7757
  126MOL    N2820278   3.956   6.788   2.551  0.1742 -0.5492 -0.8862
  126MOL    H2920279   4.044   6.863   2.754  1.6888  0.0205 -2.9156
  126MOL    H3020280   3.918   6.956   2.829 -0.9308 -1.8585  0.9376
  126MOL    H3120281   3.824   6.950   2.565 -0.6849 -0.3522 -0.2182
  126MOL    H3220282   4.023   6.854   2.515  0.7010 -0.4960  0.1705
  126MOL    H3320283   3.903   6.767   2.468 -1.2524 -1.7919  0.2976
  126MOL    C3420284   3.756   6.783   2.703  0.3065  0.1616  0.6673
  126MOL    C3520285   3.641   6.764   2.601  0.3413  0.4001  0.3359
  126MOL    N3620286   3.561   6.659   2.647  0.0122  0.0013  0.8819
  126MOL    H3720287   3.801   6.689   2.736 -1.6030 -1.7655 -2.0348
  126MOL    H3820288   3.725   6.833   2.795 -1.4807 -1.0334  0.7619
  126MOL    H3920289   3.679   6.746   2.500 -1.7645  1.9349 -0.7733
  126MOL    H4020290   3.613   6.572   2.656  1.3604  0.7072  0.0261
  126MOL    H4120291   3.481   6.630   2.593  0.2319  1.6367 -0.3563
  126MOL    C4220292   3.549   6.889   2.593  0.0105  1.5381 -0.0591
  126MOL    C4320293   3.456   6.883   2.463 -0.1461  0.0304  0.7061
  126MOL    N4420294   3.351   6.980   2.475 -0.2008 -0.5138 -0.2702
  126MOL    H4520295   3.480   6.900   2.677  3.1323  3.3527  2.3628
  126MOL    H4620296   3.609   6.979   2.589 -0.4512  1.8303 -0.5894
  126MOL    H4720297   3.413   6.783   2.465  2.0246 -0.9519  0.0783
  126MOL    H4820298   3.392   7.068   2.503 -0.8048  0.0348 -1.0984
  126MOL    H4920299   3.307   7.003   2.387 -0.2397  1.3879  0.2065
  126MOL    C5020300   3.536   6.909   2.328 -0.0983 -0.4200 -0.4078
  126MOL    C5120301   3.510   6.794   2.223  0.0675  0.2794  0.2720
  126MOL    N5220302   3.548   6.835   2.091  0.5548  0.1093 -0.8549
  126MOL    H5320303   3.498   7.004   2.291 -1.1021 -0.1302  1.3035
  126MOL    H5420304   3.641   6.925   2.353 -0.5454  0.3474  1.1007
  126MOL    H5520305   3.402   6.777   2.227 -0.8722  5.5627  1.2012
  126MOL    H5620306   3.556   6.745   2.046  0.6410 -0.1006 -0.4202
  126MOL    H5720307   3.476   6.893   2.050  1.8651  1.0809 -1.8425
  126MOL    C5820308   3.587   6.655   2.258  0.0483 -0.2122  0.6325
  126MOL    C5920309   3.544   6.541   2.163 -0.5004  0.1074 -0.1345
  126MOL    N6020310   3.613   6.548   2.036  0.0098  0.2413 -0.0378
  126MOL    H6120311   3.694   6.675   2.253  0.1344 -1.0065 -0.9869
  126MOL    H6220312   3.571   6.620   2.360  0.1754  2.2508  1.5416
  126MOL    H6320313   3.436   6.542   2.144 -0.8298  2.9171  1.6051
  126MOL    H6420314   3.596   6.460   1.990 -2.0728 -0.0396  1.1785
  126MOL    H6520315   3.712   6.543   2.053  0.1806  2.9414 -0.1162
  126MOL    C6620316   3.587   6.404   2.222 -0.1364 -0.4165 -0.1327
  126MOL    C6720317   3.506   6.355   2.348 -0.5540 -0.6715  0.1905
  126MOL    N6820318   3.365   6.343   2.315 -0.0072  0.1166 -0.4394
  126MOL    H6920319   3.589   6.323   2.150  0.7681 -0.3580 -0.1899
  126MOL    H7020320   3.690   6.418   2.255 -0.6234 -0.7313  1.5617
  126MOL    H7120321   3.520   6.432   2.423  0.1135  0.6111 -1.2096
  126MOL    H7220322   3.318   6.308   2.397  0.5815 -1.3487 -0.7057
  126MOL    H7320323   3.366   6.264   2.251 -1.0889  0.0108 -0.3239
  126MOL    C7420324   3.560   6.224   2.401  0.0110  1.3447 -0.3570
  126MOL    C7520325   3.696   6.228   2.472  0.1985  0.3208  0.1362
  126MOL    N7620326   3.690   6.114   2.564 -0.5530  0.5994  0.2557
  126MOL    H7720327   3.486   6.195   2.477 -0.4745 -1.7459 -1.8990
  126MOL    H7820328   3.564   6.156   2.316 -0.0735  1.7980 -0.7179
  126MOL    H7920329   3.695   6.321   2.530  3.7610  0.7623 -0.3448
  126MOL    H8020330   3.707   6.029   2.511 -2.8571  1.4149 -1.9152
  126MOL    H8120331   3.773   6.125   2.620  1.0980 -0.9291 -1.7903
  126MOL    C8220332   3.825   6.203   2.398 -0.1946 -0.2707 -0.6567
  126MOL    C8320333   3.957   6.231   2.476 -0.2755  0.1584 -0.4181
  126MOL    N8420334   4.068   6.189   2.386 -0.1590  0.0203 -0.4449
  126MOL    H8520335   3.823   6.106   2.348 -0.3881  0.1759 -1.5427
  126MOL    H8620336   3.825   6.281   2.322  0.8432 -0.4192 -0.8206
  126MOL    H8720337   3.962   6.166   2.563 -0.9992 -0.1199 -0.5823
  126MOL    H8820338   4.067   6.090   2.363 -1.5359 -0.2412  0.6805
  126MOL    H8920339   4.151   6.201   2.443  1.6477  1.5214 -3.2514
  126MOL    C9020340   3.969   6.376   2.520  0.3382  0.2858  0.2800
  126MOL    C9120341   3.983   6.396   2.674  0.0473 -0.3389  0.5060
  126MOL    N9220342   4.036   6.532   2.703 -0.3146 -0.3222  1.1786
  126MOL    H9320343   4.052   6.426   2.470  1.1244  0.7509  2.0293
  126MOL    H9420344   3.881   6.427   2.481 -0.3835 -1.1446  0.0193
  126MOL    H9520345   4.056   6.322   2.706 -0.9869 -0.8022  1.9020
  126MOL    H9620346   3.987   6.603   2.651 -0.0916 -0.8902  0.1681
  126MOL    H9720347   4.026   6.571   2.796 -0.6807 -2.6225  2.1281
  126MOL    C9820348   3.849   6.381   2.748  0.5333  0.6875 -0.7741
  126MOL    C9920349   3.867   6.362   2.899  0.0844  0.4228  0.3274
  126MOL   N10020350   3.741   6.405   2.962  0.2771  0.0889 -0.3387
  126MOL   H10120351   3.789   6.472   2.736 -0.3824 -0.0315 -1.7417
  126MOL   H10220352   3.795   6.297   2.704  0.9278 -0.4688  0.9015
  126MOL   H10320353   3.944   6.433   2.928  0.2861 -0.0841  1.0298
  126MOL   H10420354   3.758   6.395   3.061 -0.7986  1.4510 -0.0178
  126MOL   H10520355   3.725   6.503   2.944 -2.7527 -0.1038  1.0864
  126MOL   C10620356   3.898   6.218   2.938 -0.3425  0.4481  0.3087
  126MOL   C10720357   4.040   6.192   2.975 -0.3001 -0.2211 -0.3001
  126MOL   N10820358   4.068   6.260   3.102 -0.4564  0.1587 -0.2453
  126MOL   H10920359   3.832   6.182   3.016  0.9741  0.9297  1.6721
  126MOL   H11020360   3.871   6.158   2.851  1.4515 -0.7829  0.5721
  126MOL   H11120361   4.108   6.231   2.900  0.3619  1.3177  1.0641
  126MOL   H11220362   4.166   6.261   3.126 -1.0806  0.9120  2.4671
  126MOL   H11320363   4.056   6.357   3.075 -0.3833  0.5951  1.2344
  126MOL   C11420364   4.075   6.043   2.999 -0.0360  0.2839  0.2885
  126MOL   C11520365   4.076   5.942   2.881 -0.4850  0.0273 -0.4878
  126MOL   N11620366   4.208   5.896   2.834 -0.1357 -0.6909 -0.5646
  126MOL   H11720367   4.173   6.032   3.046 -0.6509 -0.7256  1.3616
  126MOL   H11820368   4.008   6.015   3.081 -1.9399 -0.7773 -1.5883
  126MOL   H11920369   4.027   5.998   2.802  1.3911  2.6724  0.1587
  126MOL   H12020370   4.271   5.880   2.912  0.8024 -0.5827 -1.2830
  126MOL   H12120371   4.187   5.813   2.781  1.4592 -1.2169 -0.4225
  126MOL   C12220372   3.986   5.821   2.915 -0.1509 -1.1904 -0.3750
  126MOL   C12320373   3.948   5.737   2.796 -0.1799  0.4695  0.1436
  126MOL   N12420374   3.921   5.600   2.841  0.0053 -0.0433 -0.2959
  126MOL   H12520375   4.028   5.765   2.998 -0.5616 -1.7824 -0.5623
  126MOL   H12620376   3.897   5.865   2.961 -0.2023  1.5975 -2.9921
  126MOL   H12720377   4.032   5.730   2.726  1.0408 -2.2539  1.7763
  126MOL   H12820378   4.006   5.548   2.830  0.2090  0.4986 -1.3709
  126MOL   H12920379   3.852   5.545   2.791  1.1070 -1.9236  0.2306
  126MOL   C13020380   3.836   5.795   2.709  0.0110 -0.6233  0.6250
  126MOL   C13120381   3.842   5.760   2.553  0.1397  0.1159  0.1457
  126MOL   N13220382   3.723   5.823   2.495  0.1522  0.8577 -0.1925
  126MOL   H13320383   3.741   5.756   2.747 -0.5673 -1.1448 -1.2812
  126MOL   H13420384   3.847   5.903   2.720  0.0561 -0.2471 -2.7106
  126MOL   H13520385   3.836   5.653   2.533  0.3603 -0.0401  0.9256
  126MOL   H13620386   3.700   5.799   2.399  2.4862  0.3646 -0.6737
  126MOL   H13720387   3.646   5.788   2.550 -0.1028 -0.0630 -1.1032
  126MOL   C13820388   3.964   5.812   2.478  0.0785 -0.0825  0.5087
  126MOL   C13920389   3.982   5.781   2.331 -0.1117 -0.5549 -0.0107
  126MOL   N14020390   4.095   5.873   2.297 -0.2323 -0.2454  0.1564
  126MOL   H14120391   3.955   5.920   2.488 -0.6938  0.0372 -1.2359
  126MOL   H14220392   4.056   5.779   2.526  0.0102 -0.2744  0.5079
  126MOL   H14320393   3.897   5.820   2.275 -0.6209 -0.3762  0.8737
  126MOL   H14420394   4.152   5.895   2.378 -1.1113  1.9490  0.1864
  126MOL   H14520395   4.148   5.820   2.228 -0.8377 -1.0616  0.3058
  126MOL   C14620396   4.021   5.635   2.306  1.1583 -0.3416  0.5411
  126MOL   C14720397   3.990   5.597   2.167  0.6401  0.4552 -0.5505
  126MOL   N14820398   4.080   5.645   2.067 -0.4578 -0.5907  0.5906
  126MOL   H14920399   4.124   5.605   2.327  0.4357 -2.5963  0.9754
  126MOL   H15020400   3.967   5.578   2.382  0.3590  1.4154  1.3261
  126MOL   H15120401   3.885   5.622   2.152  0.3009  0.2505  1.3898
  126MOL   H15220402   4.047   5.621   1.975 -2.9738  1.3864  0.9090
  126MOL   H15320403   4.048   5.741   2.064 -1.9975 -1.1137 -0.4942
  126MOL   C15420404   4.005   5.444   2.145 -0.1332  0.2116 -0.8727
  126MOL   C15520405   3.903   5.351   2.219  0.0301  0.4742  0.2345
  126MOL   N15620406   3.922   5.217   2.168  0.1407  0.0215 -0.2777
  126MOL   H15720407   3.989   5.436   2.037  0.8595  1.3732 -1.1212
  126MOL   H15820408   4.107   5.410   2.161 -0.0817  1.4089  1.6345
  126MOL   H15920409   3.803   5.387   2.196 -0.3600  0.8127  2.3514
  126MOL   H16020410   3.914   5.202   2.068  0.1177 -0.8414 -0.1526
  126MOL   H16120411   3.839   5.175   2.205  0.0533  0.0612 -0.4278
  126MOL   H16220412   3.896   5.360   2.328  0.4733 -1.5720  0.4436
  127MOL     C120413   4.357   5.528   4.738  0.0027 -0.3050  0.0417
  127MOL     C220414   4.359   5.504   4.886 -0.2789  0.4799  0.5956
  127MOL     N320415   4.302   5.626   4.936 -0.6267  0.3539  0.6538
  127MOL     H420416   4.417   5.615   4.708  1.3188 -0.5026  1.9457
  127MOL     H520417   4.260   5.543   4.691 -0.0432 -1.1419 -0.1329
  127MOL     H620418   4.461   5.482   4.917 -0.5956 -1.1447  0.5562
  127MOL     H720419   4.370   5.698   4.957  1.8206 -1.2753 -1.3108
  127MOL     H820420   4.245   5.655   4.857 -0.5549  0.2208  0.5552
  127MOL     H920421   4.411   5.448   4.688 -1.1404 -0.6615 -0.6219
  127MOL    C1020422   4.275   5.381   4.911  0.5695 -0.2997 -0.0426
  127MOL    C1120423   4.297   5.308   5.045 -0.2980  0.2000 -0.2100
  127MOL    N1220424   4.255   5.399   5.151 -0.0152 -0.2943 -0.4377
  127MOL    H1320425   4.170   5.410   4.904  0.6885  0.3805  0.9760
  127MOL    H1420426   4.300   5.313   4.829  2.6968  1.5386 -0.9631
  127MOL    H1520427   4.403   5.287   5.059 -0.3946 -0.2648 -0.1976
  127MOL    H1620428   4.228   5.491   5.121  0.3919  0.2814  0.9058
  127MOL    H1720429   4.320   5.417   5.227 -2.4179  0.6951  1.4572
  127MOL    C1820430   4.207   5.180   5.058  0.3692 -0.2192 -0.5645
  127MOL    C1920431   4.245   5.055   4.966  0.2507 -0.7033  0.0891
  127MOL    N2020432   4.385   5.020   4.997  0.5228  0.3645 -0.1267
  127MOL    H2120433   4.216   5.148   5.162 -1.8998 -0.1330 -0.3222
  127MOL    H2220434   4.102   5.207   5.049  0.4980 -0.1176 -1.9614
  127MOL    H2320435   4.244   5.099   4.866  0.3814 -2.0210 -0.5043
  127MOL    H2420436   4.373   4.983   5.090 -0.0599 -0.6862 -0.6165
  127MOL    H2520437   4.410   4.935   4.949  0.4132  0.2139  0.0850
  127MOL    C2620438   4.149   4.936   4.981  0.1544 -0.2892  0.3774
  127MOL    C2720439   4.082   4.896   4.848 -0.2247  0.8563  0.0495
  127MOL    N2820440   4.006   4.773   4.858  0.6289 -0.0363  0.0559
  127MOL    H2920441   4.205   4.856   5.029 -2.3200 -0.5347  3.0030
  127MOL    H3020442   4.068   4.960   5.049 -0.8524 -3.5134  0.4154
  127MOL    H3120443   4.156   4.861   4.776 -1.8373 -1.0079 -0.7406
  127MOL    H3220444   3.974   4.736   4.770 -0.4583  1.8258 -0.3639
  127MOL    H3320445   3.921   4.791   4.909  0.6442 -0.5166  0.2536
  127MOL    C3420446   4.008   5.007   4.780 -0.2037  0.6209  0.1409
  127MOL    C3520447   3.999   4.986   4.629 -0.2272 -0.7860  0.5659
  127MOL    N3620448   3.887   5.073   4.584 -0.3901 -0.0700 -0.8007
  127MOL    H3720449   3.905   4.993   4.813 -1.1054 -0.1659 -2.8161
  127MOL    H3820450   4.052   5.105   4.797  0.3086  0.9259 -2.7364
  127MOL    H3920451   3.984   4.879   4.615 -0.4315 -0.5824 -0.8722
  127MOL    H4020452   3.801   5.055   4.633  0.8719  1.4910  2.0815
  127MOL    H4120453   3.907   5.172   4.595 -2.1733  0.1898  0.1883
  127MOL    C4220454   4.127   5.029   4.551  0.4299  0.2874  0.5190
  127MOL    C4320455   4.133   4.966   4.412 -0.5843 -0.7542  0.4113
  127MOL    N4420456   4.040   5.048   4.327  0.4644  0.3185 -0.0793
  127MOL    H4520457   4.143   5.136   4.565 -0.2255  0.0512  3.3534
  127MOL    H4620458   4.204   4.978   4.609  1.2017  0.6326 -0.1975
  127MOL    H4720459   4.076   4.874   4.426 -2.0036  0.1785  0.9520
  127MOL    H4820460   3.967   5.059   4.396  1.3264 -0.9642  1.0691
  127MOL    H4920461   4.080   5.139   4.308 -0.3275  0.3734 -1.5923
  127MOL    C5020462   4.273   4.959   4.348 -0.1382  0.0188  0.6734
  127MOL    C5120463   4.265   4.857   4.230 -0.5500  0.5241  0.1382
  127MOL    N5220464   4.191   4.914   4.119  0.1340 -0.0035 -0.0323
  127MOL    H5320465   4.304   5.049   4.295 -0.1175  0.1450  0.9001
  127MOL    H5420466   4.355   4.931   4.414  0.2570 -0.3375  0.0413
  127MOL    H5520467   4.207   4.767   4.251 -0.3827  0.8569  2.1834
  127MOL    H5620468   4.240   4.991   4.076  0.4083 -0.5222 -0.6479
  127MOL    H5720469   4.103   4.955   4.150 -0.2992 -0.0303 -1.1867
  127MOL    C5820470   4.404   4.817   4.182  1.0562  0.2925 -0.2574
  127MOL    C5920471   4.473   4.713   4.271 -0.4170  0.3239 -0.4419
  127MOL    N6020472   4.432   4.576   4.242 -0.0995 -0.5695 -0.2389
  127MOL    H6120473   4.397   4.787   4.077  0.8033 -0.0064 -0.1544
  127MOL    H6220474   4.456   4.913   4.175  1.7842 -0.1994 -1.7007
  127MOL    H6320475   4.439   4.741   4.371 -2.1985 -2.6666 -0.1787
  127MOL    H6420476   4.341   4.572   4.198  0.6346  2.7103 -2.1795
  127MOL    H6520477   4.405   4.526   4.326 -1.0185  1.2438  0.5809
  127MOL    C6620478   4.627   4.732   4.271  0.6800 -0.1010 -0.7551
  127MOL    C6720479   4.695   4.814   4.386 -0.5823  0.0553  0.5541
  127MOL    N6820480   4.718   4.742   4.509  0.0705 -0.1002 -0.0379
  127MOL    H6920481   4.672   4.633   4.282  1.7109  0.4840  0.3694
  127MOL    H7020482   4.662   4.748   4.169 -0.2279 -1.0830 -1.2418
  127MOL    H7120483   4.623   4.889   4.415  0.8043  0.7899  2.1771
  127MOL    H7220484   4.768   4.657   4.492  2.4241  1.2131  0.1421
  127MOL    H7320485   4.766   4.805   4.572 -1.6077 -0.4865  1.6934
  127MOL    C7420486   4.828   4.880   4.334  0.4664 -0.0744 -0.1289
  127MOL    C7520487   4.801   5.004   4.244  0.3596  0.7223  0.6920
  127MOL    N7620488   4.749   5.114   4.322  0.4710 -0.1237 -0.1812
  127MOL    H7720489   4.886   4.916   4.419 -0.6524  2.7158 -0.4723
  127MOL    H7820490   4.893   4.814   4.277 -0.3259 -1.6512  0.7458
  127MOL    H7920491   4.726   4.968   4.173 -0.8759 -0.4173  2.5107
  127MOL    H8020492   4.813   5.163   4.384  0.0425  1.7203 -1.1398
  127MOL    H8120493   4.708   5.191   4.270  1.8547  1.2604  0.7289
  127MOL    C8220494   4.926   5.051   4.163 -0.2830 -0.1457  0.0860
  127MOL    C8320495   4.885   5.131   4.038 -0.2467 -0.3688 -0.0985
  127MOL    N8420496   4.999   5.206   3.986 -0.0365  0.1527 -0.2063
  127MOL    H8520497   4.999   5.113   4.215 -0.8260 -1.0283  1.9778
  127MOL    H8620498   5.000   4.975   4.135 -0.6495 -0.3230 -0.3969
  127MOL    H8720499   4.808   5.205   4.061  1.6335  1.6739 -0.2768
  127MOL    H8820500   4.977   5.244   3.896 -1.0676 -0.3146 -0.1574
  127MOL    H8920501   5.078   5.147   3.964 -0.6489 -2.2010  3.3852
  127MOL    C9020502   4.841   5.023   3.927  0.4447 -0.7401 -0.2278
  127MOL    C9120503   4.722   5.073   3.844 -0.6212 -0.2354 -0.3084
  127MOL    N9220504   4.711   4.988   3.723  0.2455 -0.5205 -0.0816
  127MOL    H9320505   4.925   5.001   3.861  1.5610 -1.0576  1.2653
  127MOL    H9420506   4.807   4.926   3.963 -2.6471  0.1069 -0.6798
  127MOL    H9520507   4.742   5.172   3.803 -0.1024 -0.6936 -1.1716
  127MOL    H9620508   4.787   5.011   3.660  1.7110 -4.0976  0.2313
  127MOL    H9720509   4.629   5.003   3.666  1.6274  0.2308 -1.9660
  127MOL    C9820510   4.596   5.071   3.937 -0.0333  0.1345 -0.6420
  127MOL    C9920511   4.483   5.160   3.879 -0.4142 -0.8853  0.1884
  127MOL   N10020512   4.361   5.119   3.947 -0.8201  0.1910 -0.5336
  127MOL   H10120513   4.570   4.965   3.932 -0.4636  0.3411 -3.1783
  127MOL   H10220514   4.624   5.091   4.041  1.0845 -1.8959 -0.5234
  127MOL   H10320515   4.471   5.161   3.771 -0.2385 -2.5970  0.1349
  127MOL   H10420516   4.283   5.183   3.948 -1.9913 -1.2292 -0.0862
  127MOL   H10520517   4.324   5.032   3.914 -2.9984  0.5849  0.7605
  127MOL   C10620518   4.512   5.304   3.934 -0.7337 -0.0777 -0.2565
  127MOL   C10720519   4.415   5.414   3.884  0.6172 -0.0874  0.1403
  127MOL   N10820520   4.438   5.548   3.948 -0.5593  0.2206  0.6251
  127MOL   H10920521   4.530   5.300   4.041  0.1898  1.1925 -0.3606
  127MOL   H11020522   4.614   5.338   3.914  0.2602 -0.7904  3.1985
  127MOL   H11120523   4.315   5.386   3.918 -0.5356  2.5780 -0.9053
  127MOL   H11220524   4.345   5.584   3.963 -1.8107 -2.5807 -0.0131
  127MOL   H11320525   4.474   5.528   4.040  1.9233  2.5346  0.2330
  127MOL   C11420526   4.411   5.438   3.726 -0.1150  0.3377 -0.2894
  127MOL   C11520527   4.312   5.349   3.658  0.0859  0.4059  0.5433
  127MOL   N11620528   4.183   5.413   3.658 -0.8361 -0.9658  0.3457
  127MOL   H11720529   4.384   5.539   3.695  1.2358  0.2556 -1.7579
  127MOL   H11820530   4.513   5.412   3.698 -0.0671  0.1284  0.0748
  127MOL   H11920531   4.287   5.255   3.707  2.9117 -0.5632  0.1783
  127MOL   H12020532   4.198   5.499   3.608  1.6079 -0.6905  1.4942
  127MOL   H12120533   4.121   5.361   3.596  0.5312  0.9914 -2.7814
  127MOL   C12220534   4.340   5.314   3.502  0.2258  0.7364  0.5644
  127MOL   C12320535   4.242   5.217   3.426  0.0310  0.1553  0.4661
  127MOL   N12420536   4.127   5.282   3.372 -0.4897  0.6319 -0.0184
  127MOL   H12520537   4.364   5.399   3.439  0.5059 -0.5027 -1.0314
  127MOL   H12620538   4.436   5.262   3.503  0.1466  0.5920  1.0192
  127MOL   H12720539   4.199   5.161   3.508  1.0046  1.2104  1.7203
  127MOL   H12820540   4.072   5.215   3.320  0.0940  0.4510 -0.4084
  127MOL   H12920541   4.156   5.351   3.304 -2.2575  0.6870 -0.7583
  127MOL   C13020542   4.283   5.106   3.325 -0.1036 -0.3596 -0.0901
  127MOL   C13120543   4.422   5.033   3.351  0.3562 -0.4975  0.2630
  127MOL   N13220544   4.417   4.892   3.299  0.5578 -0.1585 -0.5151
  127MOL   H13320545   4.205   5.030   3.330  0.0498 -0.3932  2.5563
  127MOL   H13420546   4.286   5.143   3.222 -2.8848  2.5292  0.7613
  127MOL   H13520547   4.427   5.022   3.459  2.9574  0.8592  0.3198
  127MOL   H13620548   4.366   4.899   3.212 -0.4768 -0.7127  0.0364
  127MOL   H13720549   4.508   4.859   3.273  0.6944  0.4881 -0.8700
  127MOL   C13820550   4.546   5.106   3.294 -0.0733 -1.0965 -0.7874
  127MOL   C13920551   4.672   5.091   3.381  0.1323 -0.2241  0.0478
  127MOL   N14020552   4.728   4.958   3.363 -0.7334 -0.0194  0.2772
  127MOL   H14120553   4.569   5.093   3.188  3.0477  1.6695 -0.5184
  127MOL   H14220554   4.525   5.213   3.292  0.0713 -1.0782 -1.5865
  127MOL   H14320555   4.655   5.105   3.488 -2.2316  0.7418 -0.4191
  127MOL   H14420556   4.802   4.968   3.431 -1.2848  0.8947  0.7448
  127MOL   H14520557   4.661   4.896   3.406 -1.7589 -0.0189 -1.2812
  127MOL   C14620558   4.785   5.202   3.342  0.1005 -0.2288  0.4427
  127MOL   C14720559   4.755   5.345   3.404 -0.4663 -0.2843  0.1864
  127MOL   N14820560   4.751   5.323   3.548 -0.3330 -0.1820  0.4729
  127MOL   H14920561   4.883   5.170   3.380  0.2472  0.2647  0.4751
  127MOL   H15020562   4.791   5.215   3.234 -1.6264  1.5174  0.5265
  127MOL   H15120563   4.654   5.375   3.378 -0.3720  0.7009  0.9391
  127MOL   H15220564   4.746   5.404   3.609 -1.1530 -0.8499  1.3217
  127MOL   H15320565   4.840   5.288   3.582 -0.4346 -0.0497  0.8736
  127MOL   C15420566   4.866   5.449   3.375  0.2621  0.7778  0.2453
  127MOL   C15520567   4.885   5.485   3.224  0.4591 -0.0447 -0.1400
  127MOL   N15620568   4.974   5.602   3.208  0.3517 -0.2235  0.3395
  127MOL   H15720569   4.830   5.539   3.426 -2.0241  2.4406 -4.0519
  127MOL   H15820570   4.962   5.417   3.416 -0.2399 -0.7721  0.2573
  127MOL   H15920571   4.791   5.494   3.170  0.5766  0.0001 -0.3373
  127MOL   H16020572   4.924   5.689   3.223 -1.4384 -1.2544  0.5394
  127MOL   H16120573   4.991   5.608   3.108 -1.4105 -0.0106  0.0200
  127MOL   H16220574   4.928   5.400   3.172  1.5472 -0.1876  0.9685
  128MOL     C120575   5.510   3.207   3.478 -0.4893 -0.0048  0.5969
  128MOL     C220576   5.455   3.066   3.439  0.0523 -0.6175 -0.6394
  128MOL     N320577   5.497   2.977   3.537 -0.3326  0.0289 -0.5052
  128MOL     H420578   5.617   3.216   3.458 -0.3006 -1.7657  0.7765
  128MOL     H520579   5.505   3.230   3.584 -2.1808 -1.1798  0.7872
  128MOL     H620580   5.481   3.052   3.334 -1.8700 -2.2435 -0.9154
  128MOL     H720581   5.592   2.948   3.516  1.2186  2.2090  2.9500
  128MOL     H820582   5.441   2.893   3.544  0.2388 -0.2744  0.5994
  128MOL     H920583   5.470   3.286   3.413  0.2979 -1.1412 -1.3133
  128MOL    C1020584   5.298   3.073   3.447 -0.1570  0.7680 -0.1262
  128MOL    C1120585   5.224   3.161   3.337 -0.4307 -0.0453  0.1835
  128MOL    N1220586   5.210   3.088   3.215 -0.8996  0.3573 -0.3452
  128MOL    H1320587   5.265   2.972   3.422 -2.4008  1.8729 -1.7885
  128MOL    H1420588   5.275   3.094   3.551  1.2001  2.1456 -0.0798
  128MOL    H1520589   5.290   3.245   3.319  1.2904 -1.5359 -0.6917
  128MOL    H1620590   5.153   3.008   3.238 -0.9494 -0.4851 -3.2527
  128MOL    H1720591   5.146   3.147   3.164 -1.0733  0.2078 -0.3010
  128MOL    C1820592   5.084   3.205   3.370  0.3816 -0.2118 -0.1295
  128MOL    C1920593   5.098   3.311   3.482  0.7230 -0.2886  0.4323
  128MOL    N2020594   5.046   3.439   3.431 -0.3796 -0.1882 -0.6535
  128MOL    H2120595   5.025   3.243   3.287  0.1557  0.8633  0.5173
  128MOL    H2220596   5.011   3.131   3.402  0.1083  0.8419  1.7542
  128MOL    H2320597   5.202   3.322   3.515  1.0686 -0.9204 -0.4391
  128MOL    H2420598   5.103   3.457   3.349  0.8523  3.6253  0.9227
  128MOL    H2520599   4.953   3.423   3.397 -0.9136  0.6725  0.3778
  128MOL    C2620600   5.008   3.287   3.608 -0.5035 -0.2454 -0.1833
  128MOL    C2720601   5.057   3.172   3.696 -0.7039  0.5553 -0.0804
  128MOL    N2820602   5.152   3.228   3.782  0.0627 -0.6180 -0.8351
  128MOL    H2920603   4.992   3.376   3.669  0.2313  0.1176 -0.5230
  128MOL    H3020604   4.903   3.273   3.579 -0.9088 -0.3638  1.2925
  128MOL    H3120605   5.096   3.096   3.627 -1.8417  0.9982 -1.2146
  128MOL    H3220606   5.187   3.161   3.849  0.6593 -0.1065 -0.6282
  128MOL    H3320607   5.110   3.305   3.834 -1.2140 -1.5936 -0.3891
  128MOL    C3420608   4.951   3.099   3.780 -0.2533 -0.4749  0.3959
  128MOL    C3520609   4.837   3.018   3.705 -0.3158 -1.0226  0.0180
  128MOL    N3620610   4.898   2.908   3.628 -0.0489  0.3669  0.4456
  128MOL    H3720611   5.013   3.025   3.831 -0.8253 -0.2414  1.4267
  128MOL    H3820612   4.906   3.167   3.852  0.0352 -0.0562  0.1874
  128MOL    H3920613   4.783   3.089   3.643  0.8915 -1.0436 -1.0859
  128MOL    H4020614   4.958   2.849   3.684 -0.2044 -1.2142 -1.0267
  128MOL    H4120615   4.956   2.931   3.549  1.6526 -2.1467  0.8864
  128MOL    C4220616   4.733   2.949   3.795 -0.6483 -1.4033  0.7717
  128MOL    C4320617   4.629   3.045   3.856 -0.0378 -0.0846  0.5828
  128MOL    N4420618   4.517   3.051   3.765  0.2004  0.1709 -1.0194
  128MOL    H4520619   4.683   2.874   3.732  0.2908 -0.6879 -0.8638
  128MOL    H4620620   4.787   2.888   3.867  3.0213 -0.6763 -1.2363
  128MOL    H4720621   4.676   3.142   3.874 -1.4460  0.3296  2.0864
  128MOL    H4820622   4.548   3.054   3.669  0.8957  1.3526 -0.7623
  128MOL    H4920623   4.457   3.132   3.778 -1.2917 -1.0191 -0.2767
  128MOL    C5020624   4.578   2.980   3.978  0.3074  0.6606 -0.2772
  128MOL    C5120625   4.490   3.054   4.079  0.2485 -0.4320 -0.6389
  128MOL    N5220626   4.402   2.957   4.133 -0.3084  0.3835 -1.0736
  128MOL    H5320627   4.530   2.887   3.947 -0.5912  1.3952 -1.1440
  128MOL    H5420628   4.662   2.939   4.033 -0.3907 -0.6198 -0.1524
  128MOL    H5520629   4.427   3.127   4.028 -0.0941  0.6419  1.2392
  128MOL    H5620630   4.453   2.870   4.143 -0.5821  0.4310  0.9734
  128MOL    H5720631   4.325   2.932   4.072  1.3148 -2.3994 -2.0867
  128MOL    C5820632   4.556   3.137   4.188 -0.0257 -0.0457  0.0806
  128MOL    C5920633   4.620   3.274   4.138  0.4659  0.5291 -0.1513
  128MOL    N6020634   4.515   3.369   4.099 -0.3629 -0.0140  0.5729
  128MOL    H6120635   4.487   3.166   4.267  1.0717  0.8449  0.7114
  128MOL    H6220636   4.628   3.077   4.243  2.2967  1.0259 -1.7076
  128MOL    H6320637   4.683   3.256   4.051  1.7560  0.3572  0.8062
  128MOL    H6420638   4.556   3.436   4.035 -2.1444  0.0875 -0.4948
  128MOL    H6520639   4.446   3.322   4.042  0.1542 -0.6506  0.4583
  128MOL    C6620640   4.709   3.338   4.257 -0.1091  0.4919 -0.6126
  128MOL    C6720641   4.803   3.451   4.217 -0.5667  0.5038 -0.0619
  128MOL    N6820642   4.863   3.508   4.346  0.3209  0.4038 -0.3911
  128MOL    H6920643   4.644   3.377   4.336 -0.8969 -0.8799 -0.5708
  128MOL    H7020644   4.770   3.259   4.301  1.5513  1.1360 -1.7231
  128MOL    H7120645   4.749   3.534   4.172 -0.1194  1.8792  1.9036
  128MOL    H7220646   4.786   3.519   4.410 -0.8387 -0.9723 -1.5119
  128MOL    H7320647   4.918   3.430   4.380 -1.2146 -1.3574 -1.7747
  128MOL    C7420648   4.921   3.403   4.125  0.2897 -0.6412 -0.2528
  128MOL    C7520649   4.961   3.503   4.015 -0.1572 -0.0220  0.1355
  128MOL    N7620650   5.078   3.446   3.940  0.2914  0.0147 -0.4532
  128MOL    H7720651   5.008   3.388   4.189 -1.3187 -2.5404  1.5681
  128MOL    H7820652   4.918   3.300   4.089 -0.9275 -0.3286 -1.0841
  128MOL    H7920653   4.993   3.599   4.057  1.1660 -0.7226  0.7431
  128MOL    H8020654   5.166   3.446   3.990 -0.2213 -0.2441  0.4737
  128MOL    H8120655   5.093   3.528   3.884  1.0564 -1.5784 -2.6261
  128MOL    C8220656   4.856   3.528   3.901  0.0187  0.4615 -0.0017
  128MOL    C8320657   4.888   3.626   3.798 -1.1786 -0.0876 -0.5800
  128MOL    N8420658   4.828   3.589   3.670 -0.7841 -0.1365  0.0724
  128MOL    H8520659   4.829   3.435   3.850 -3.4664  0.8167  1.0356
  128MOL    H8620660   4.767   3.561   3.956  0.8478  2.1593  0.3387
  128MOL    H8720661   4.996   3.632   3.783 -0.9647 -0.6504  0.6237
  128MOL    H8820662   4.884   3.517   3.626  0.7347  2.1241 -1.8013
  128MOL    H8920663   4.859   3.666   3.612  3.9364 -1.9401 -0.0020
  128MOL    C9020664   4.841   3.768   3.839 -0.1428 -0.2976 -0.2140
  128MOL    C9120665   4.890   3.829   3.971  0.3712 -0.0594 -0.2320
  128MOL    N9220666   5.034   3.857   3.970  0.1937  0.0418 -0.2928
  128MOL    H9320667   4.872   3.829   3.754 -0.3175 -0.7674 -0.6201
  128MOL    H9420668   4.733   3.761   3.824 -0.3755  0.1076  1.2246
  128MOL    H9520669   4.864   3.756   4.047 -1.1720  0.0791 -0.5959
  128MOL    H9620670   5.084   3.772   3.949 -1.0310 -1.2048  1.6906
  128MOL    H9720671   5.055   3.869   4.068 -3.5282 -3.3547  1.0449
  128MOL    C9820672   4.818   3.964   4.004  0.4471  1.2987  0.0134
  128MOL    C9920673   4.673   3.949   4.048  0.1769 -0.1827  0.4533
  128MOL   N10020674   4.667   3.867   4.167  0.3058 -0.0408  0.6544
  128MOL   H10120675   4.863   4.004   4.095 -0.5018 -0.9562  1.5286
  128MOL   H10220676   4.838   4.033   3.923  0.1215  0.2529 -0.9685
  128MOL   H10320677   4.609   3.908   3.970  0.5802  0.2261 -0.0896
  128MOL   H10420678   4.569   3.876   4.190 -0.1993 -2.0209 -0.5828
  128MOL   H10520679   4.670   3.768   4.146  0.4936  0.5138 -2.2018
  128MOL   C10620680   4.617   4.086   4.087 -0.3197 -0.7142 -0.0502
  128MOL   C10720681   4.617   4.195   3.978  0.4334 -0.6268 -0.6843
  128MOL   N10820682   4.538   4.152   3.870  0.1931  0.4202  0.6051
  128MOL   H10920683   4.513   4.064   4.113 -0.1483 -1.2673  0.1697
  128MOL   H11020684   4.661   4.132   4.176 -1.2251  2.4517 -1.1764
  128MOL   H11120685   4.713   4.217   3.932  1.6168  0.1779  2.0203
  128MOL   H11220686   4.528   4.227   3.803  0.1029 -1.5064 -1.5808
  128MOL   H11320687   4.589   4.082   3.819  2.7886  1.1251  2.1365
  128MOL   C11420688   4.564   4.330   4.024 -0.0235  0.0054  0.5367
  128MOL   C11520689   4.631   4.452   3.951  0.6729 -0.0288  0.2358
  128MOL   N11620690   4.562   4.581   3.970 -0.0883 -0.0112  0.2709
  128MOL   H11720691   4.457   4.328   4.005  0.2691 -1.3591 -1.1308
  128MOL   H11820692   4.571   4.342   4.132  0.5718 -0.0087  0.5045
  128MOL   H11920693   4.621   4.436   3.843 -1.2116 -1.4027  0.5907
  128MOL   H12020694   4.463   4.557   3.974 -0.1906  0.0238 -1.6344
  128MOL   H12120695   4.580   4.623   4.060 -0.6192  0.3009  0.2312
  128MOL   C12220696   4.779   4.478   3.994 -0.1505  0.2573  0.0645
  128MOL   C12320697   4.881   4.456   3.871  0.4099  1.0973  0.3566
  128MOL   N12420698   4.873   4.571   3.783  0.2818 -0.0643 -0.3841
  128MOL   H12520699   4.798   4.580   4.027 -0.5510  0.4269 -0.2207
  128MOL   H12620700   4.805   4.394   4.059  0.1619  1.6299  1.7307
  128MOL   H12720701   4.850   4.377   3.803  1.4589  0.5626  0.4791
  128MOL   H12820702   4.779   4.589   3.751  0.4689 -1.8121 -1.9413
  128MOL   H12920703   4.905   4.652   3.835 -1.5295 -2.0126  4.0912
  128MOL   C13020704   5.024   4.422   3.914  0.3287  0.0591 -0.4744
  128MOL   C13120705   5.032   4.284   3.971 -0.1412 -0.3835  0.4496
  128MOL   N13220706   5.065   4.185   3.871  0.1166  0.3907 -0.3700
  128MOL   H13320707   5.094   4.431   3.831  0.2765  3.2576 -0.2211
  128MOL   H13420708   5.049   4.491   3.995  3.0580 -0.6744 -0.6479
  128MOL   H13520709   4.938   4.244   4.008 -0.7553 -0.8362 -1.5784
  128MOL   H13620710   5.001   4.180   3.793 -1.2860  3.3999  0.5368
  128MOL   H13720711   5.076   4.091   3.906 -1.0457 -0.4952 -2.3118
  128MOL   C13820712   5.129   4.264   4.095  0.2955  0.3182 -0.8484
  128MOL   C13920713   5.053   4.245   4.234 -0.2612 -0.0687  0.2797
  128MOL   N14020714   5.143   4.172   4.320  0.2049  0.7372  0.5689
  128MOL   H14120715   5.198   4.181   4.082 -0.2055 -0.3721  0.7518
  128MOL   H14220716   5.192   4.352   4.111  0.7895 -0.3062  0.7141
  128MOL   H14320717   4.970   4.178   4.213  1.0065 -1.1880 -1.3494
  128MOL   H14420718   5.106   4.146   4.410  0.8533 -0.2496  0.5586
  128MOL   H14520719   5.172   4.087   4.272 -0.2388  0.5099  0.6977
  128MOL   C14620720   5.013   4.378   4.300  0.9230 -0.1305  0.4646
  128MOL   C14720721   4.935   4.372   4.435 -0.2619  0.0695 -0.0552
  128MOL   N14820722   4.945   4.503   4.503  0.2913 -0.0736 -0.4107
  128MOL   H14920723   5.111   4.419   4.325  1.6889 -0.8664 -1.2285
  128MOL   H15020724   4.971   4.454   4.235 -0.5355 -0.0344  1.5063
  128MOL   H15120725   4.978   4.296   4.500  1.6680  0.1796 -1.1838
  128MOL   H15220726   4.937   4.483   4.601  1.3291 -1.4773 -0.5896
  128MOL   H15320727   5.031   4.555   4.492  0.2571  0.1789  0.4707
  128MOL   C15420728   4.786   4.334   4.399  0.0316 -0.3064  0.8857
  128MOL   C15520729   4.704   4.310   4.529 -0.5614 -0.1730 -0.0509
  128MOL   N15620730   4.572   4.256   4.494 -0.8456 -1.1085 -0.0896
  128MOL   H15720731   4.747   4.415   4.337  3.2991  2.0089  1.6728
  128MOL   H15820732   4.786   4.249   4.330 -0.4107 -0.0365  0.5465
  128MOL   H15920733   4.696   4.401   4.590 -1.4230 -0.9780  1.0596
  128MOL   H16020734   4.517   4.241   4.578  1.4904 -3.8673  1.0303
  128MOL   H16120735   4.528   4.335   4.449  1.0188  0.0815  0.0965
  128MOL   H16220736   4.755   4.241   4.597  0.6793  1.0925  0.3258
  129MOL     C120737   3.150   1.860   5.987 -0.1217 -0.1327 -0.4847
  129MOL     C220738   3.176   1.762   5.872 -0.2881 -0.7578 -0.0406
  129MOL     N320739   3.198   1.631   5.932 -0.7201 -0.2257  0.0861
  129MOL     H420740   3.120   1.959   5.954 -0.0933 -0.1703 -0.6261
  129MOL     H520741   3.234   1.863   6.056  0.2522 -0.6808 -0.9076
  129MOL     H620742   3.266   1.801   5.824 -2.6681  1.1690 -3.0984
  129MOL     H720743   3.271   1.635   6.001 -2.2078  3.7574  1.5498
  129MOL     H820744   3.224   1.558   5.866  1.0290 -0.3966  0.9493
  129MOL     H920745   3.057   1.823   6.029 -0.7875  1.1092 -0.8620
  129MOL    C1020746   3.069   1.752   5.759  0.3219  0.1874  0.0224
  129MOL    C1120747   3.076   1.836   5.631  0.2076  0.4032  0.5468
  129MOL    N1220748   3.181   1.778   5.539  0.4402  0.2743 -0.3289
  129MOL    H1320749   3.056   1.646   5.736 -0.9181  0.3218  0.0957
  129MOL    H1420750   2.974   1.772   5.808  0.6049 -0.1466  0.7163
  129MOL    H1520751   3.113   1.934   5.663 -0.7188  1.1763 -0.6765
  129MOL    H1620752   3.256   1.845   5.538  0.8189 -0.1556 -0.9600
  129MOL    H1720753   3.217   1.698   5.589 -2.3490 -1.3335 -0.7868
  129MOL    C1820754   2.943   1.841   5.552  0.6220 -0.5639 -0.3658
  129MOL    C1920755   2.943   1.958   5.451 -0.3424 -0.6388 -0.0550
  129MOL    N2020756   2.901   1.921   5.319 -0.0979 -0.0279  0.0223
  129MOL    H2120757   2.925   1.754   5.489 -1.4038 -1.6654  1.6646
  129MOL    H2220758   2.852   1.848   5.611  1.0541 -0.3811  0.2858
  129MOL    H2320759   3.042   2.000   5.434 -1.0015  0.5456 -0.9971
  129MOL    H2420760   2.952   1.835   5.303 -0.2872 -0.2816  0.7871
  129MOL    H2520761   2.802   1.899   5.317 -0.6159  1.9464  2.4387
  129MOL    C2620762   2.852   2.068   5.516 -0.3023  0.0557 -0.8346
  129MOL    C2720763   2.865   2.216   5.458 -0.1071  0.2936 -0.6905
  129MOL    N2820764   2.752   2.303   5.492  0.0352 -0.1200  0.0863
  129MOL    H2920765   2.747   2.040   5.517 -0.8361  1.9893  1.1439
  129MOL    H3020766   2.871   2.077   5.623  0.3955 -0.9918 -0.8639
  129MOL    H3120767   2.859   2.198   5.350 -1.5476 -2.4219 -0.2079
  129MOL    H3220768   2.698   2.324   5.409  0.0625 -1.0850 -0.1793
  129MOL    H3320769   2.697   2.238   5.545  0.4276  0.2911  1.0150
  129MOL    C3420770   2.996   2.285   5.498 -0.3083  0.0486  0.2390
  129MOL    C3520771   3.036   2.404   5.412 -0.2685 -0.2118 -0.0649
  129MOL    N3620772   3.156   2.453   5.474 -0.1340  0.0569  0.6946
  129MOL    H3720773   2.985   2.321   5.600 -1.3737  0.2899  0.0408
  129MOL    H3820774   3.083   2.218   5.501 -1.5166 -1.5509  0.2131
  129MOL    H3920775   2.951   2.472   5.409 -0.3871 -0.3308  0.5075
  129MOL    H4020776   3.195   2.519   5.409  0.0598  0.2716  1.0293
  129MOL    H4120777   3.211   2.368   5.473 -1.0105 -0.5366 -1.4978
  129MOL    C4220778   3.068   2.372   5.268 -0.3413 -0.2668  0.1440
  129MOL    C4320779   2.985   2.458   5.168  0.0041 -0.0220  0.7290
  129MOL    N4420780   3.059   2.587   5.153  0.0330  0.3814  0.3976
  129MOL    H4520781   3.176   2.368   5.260 -0.3637 -0.0214 -0.2948
  129MOL    H4620782   3.043   2.269   5.240  0.0063  0.3999 -2.7966
  129MOL    H4720783   2.885   2.480   5.204 -1.4389 -0.8562 -2.5341
  129MOL    H4820784   3.129   2.568   5.082 -1.6119 -1.3383 -0.8220
  129MOL    H4920785   3.116   2.606   5.234 -1.5448  0.4608  1.5013
  129MOL    C5020786   2.966   2.392   5.030 -0.8670 -0.4267  0.1957
  129MOL    C5120787   2.854   2.285   5.032  0.3583  0.0116 -0.5098
  129MOL    N5220788   2.724   2.355   5.020 -0.0417 -0.0094  0.1012
  129MOL    H5320789   2.942   2.464   4.951 -1.8299 -0.6297  0.2942
  129MOL    H5420790   3.063   2.345   5.017 -0.4866  0.5896 -0.7407
  129MOL    H5520791   2.864   2.234   5.127  0.0078  0.0494 -0.4544
  129MOL    H5620792   2.723   2.407   5.106  1.4740 -1.1977  0.8725
  129MOL    H5720793   2.659   2.280   5.038 -0.8437  0.3466 -1.2119
  129MOL    C5820794   2.866   2.195   4.906  0.0862 -0.6533 -0.2617
  129MOL    C5920795   2.972   2.088   4.914  0.2596  0.4251 -0.0158
  129MOL    N6020796   2.907   1.958   4.889 -0.5007 -0.0787 -0.6687
  129MOL    H6120797   2.765   2.155   4.895 -0.2461  0.2456 -0.5660
  129MOL    H6220798   2.889   2.256   4.819  0.3328  2.7445  2.0613
  129MOL    H6320799   3.001   2.077   5.019  0.4762 -1.7968 -0.2821
  129MOL    H6420800   2.820   1.938   4.937  0.2799  0.7152  1.1184
  129MOL    H6520801   2.963   1.880   4.922  0.5461  0.6338 -0.7220
  129MOL    C6620802   3.102   2.114   4.834 -0.1497  0.6741 -0.3583
  129MOL    C6720803   3.213   2.004   4.855  0.0464 -0.1620 -0.5273
  129MOL    N6820804   3.297   2.004   4.734  0.4024 -0.2262 -0.1726
  129MOL    H6920805   3.061   2.123   4.734 -0.4026 -0.3850 -0.3599
  129MOL    H7020806   3.143   2.211   4.860  0.8394  0.7473 -2.1194
  129MOL    H7120807   3.170   1.905   4.866  1.2447 -0.5155  1.2105
  129MOL    H7220808   3.250   1.962   4.656  1.4284 -0.0002 -0.9272
  129MOL    H7320809   3.377   1.946   4.754 -1.2400 -2.1249  0.9949
  129MOL    C7420810   3.304   2.035   4.975 -0.2976  0.5971 -0.6299
  129MOL    C7520811   3.344   1.904   5.049 -0.2427  0.0720  0.0746
  129MOL    N7620812   3.459   1.932   5.132  0.2423  0.4579 -0.6917
  129MOL    H7720813   3.389   2.095   4.941  0.0123  0.6184  0.1666
  129MOL    H7820814   3.256   2.104   5.045 -1.0910  0.7686 -1.3389
  129MOL    H7920815   3.365   1.826   4.976 -1.1237 -1.4983  1.4725
  129MOL    H8020816   3.483   1.847   5.182 -4.4802 -0.2569  0.6317
  129MOL    H8120817   3.539   1.947   5.072 -1.1150  0.7883 -2.4433
  129MOL    C8220818   3.228   1.867   5.144  0.5338 -0.5365  0.2301
  129MOL    C8320819   3.226   1.714   5.168 -0.1759 -0.2513 -0.2166
  129MOL    N8420820   3.129   1.674   5.269 -0.1954 -0.6311 -0.1030
  129MOL    H8520821   3.230   1.923   5.238  0.9524  1.5572 -1.0008
  129MOL    H8620822   3.132   1.898   5.102 -0.4671 -1.3420  1.8316
  129MOL    H8720823   3.323   1.684   5.209  0.7380  1.4500 -1.0612
  129MOL    H8820824   3.136   1.577   5.296  0.3340 -0.6695 -0.3534
  129MOL    H8920825   3.145   1.718   5.359 -0.6395  2.5714 -1.4980
  129MOL    C9020826   3.186   1.634   5.037  0.3352 -0.2604 -0.0735
  129MOL    C9120827   3.294   1.549   4.971 -0.5054 -0.3957 -0.4735
  129MOL    N9220828   3.314   1.434   5.051 -0.2109 -0.5012 -0.5139
  129MOL    H9320829   3.105   1.565   5.057 -0.1116 -0.1520 -1.4905
  129MOL    H9420830   3.143   1.695   4.957 -1.4618 -1.3577  0.0411
  129MOL    H9520831   3.390   1.601   4.973 -0.8528  0.2179  1.7909
  129MOL    H9620832   3.408   1.399   5.057 -0.0855 -0.4923 -2.0408
  129MOL    H9720833   3.288   1.471   5.141 -1.5556 -0.3937 -0.9270
  129MOL    C9820834   3.242   1.493   4.837  0.5336  0.0627  0.6672
  129MOL    C9920835   3.241   1.591   4.718  0.8008  0.0991  0.3392
  129MOL   N10020836   3.362   1.568   4.638 -0.0889  0.9267  0.5202
  129MOL   H10120837   3.305   1.409   4.806  0.5965  0.0772  0.7537
  129MOL   H10220838   3.141   1.453   4.849 -0.0644 -0.6174 -5.2225
  129MOL   H10320839   3.247   1.696   4.748  0.2433  0.7172 -1.6226
  129MOL   H10420840   3.357   1.614   4.548 -1.5716 -1.5061 -0.6825
  129MOL   H10520841   3.371   1.470   4.615  1.2394  1.0839  0.3079
  129MOL   C10620842   3.114   1.597   4.626  0.2082  0.2923  0.4915
  129MOL   C10720843   2.985   1.672   4.666 -0.5902  0.2043  0.3421
  129MOL   N10820844   3.012   1.815   4.664  0.1145 -0.0230 -0.6051
  129MOL   H10920845   3.140   1.633   4.527 -2.6544  1.8655  0.2687
  129MOL   H11020846   3.083   1.493   4.611  0.9871 -0.0674  1.3165
  129MOL   H11120847   2.966   1.649   4.771 -1.2929 -3.0309 -0.4258
  129MOL   H11220848   2.959   1.842   4.582 -1.7585 -0.6585  0.3575
  129MOL   H11320849   2.961   1.865   4.735  0.5592  0.9617 -0.9654
  129MOL   C11420850   2.854   1.643   4.598 -0.1031  0.3917  0.2129
  129MOL   C11520851   2.805   1.499   4.602 -0.3237  0.5662 -0.4618
  129MOL   N11620852   2.784   1.456   4.740  0.0979 -0.2712  0.2181
  129MOL   H11720853   2.774   1.709   4.632 -2.2438 -1.0655 -1.8086
  129MOL   H11820854   2.873   1.664   4.493  1.0604 -1.0560  0.1253
  129MOL   H11920855   2.873   1.434   4.548 -1.9625  0.6407 -2.7061
  129MOL   H12020856   2.872   1.469   4.789  1.4578 -0.1174 -2.1803
  129MOL   H12120857   2.764   1.358   4.749  1.7418 -0.7231 -0.7622
  129MOL   C12220858   2.662   1.488   4.524 -0.1535 -0.6584  0.5767
  129MOL   C12320859   2.679   1.473   4.373  0.7328 -0.0441 -1.0668
  129MOL   N12420860   2.675   1.329   4.344 -0.2860  0.3730  0.0187
  129MOL   H12520861   2.596   1.407   4.553 -1.9861  0.6982  0.3485
  129MOL   H12620862   2.603   1.576   4.552  0.8856  0.3198 -0.2244
  129MOL   H12720863   2.777   1.508   4.340  0.4826 -1.2021 -3.0943
  129MOL   H12820864   2.719   1.316   4.254 -0.1814  0.2225  0.0908
  129MOL   H12920865   2.755   1.297   4.395 -1.1596  0.0371  1.1937
  129MOL   C13020866   2.562   1.538   4.292  0.3270  0.0438 -0.2296
  129MOL   C13120867   2.530   1.692   4.317 -0.3270 -0.3190 -0.2947
  129MOL   N13220868   2.626   1.764   4.235 -0.4372  0.2621 -0.1385
  129MOL   H13320869   2.586   1.514   4.189 -1.4431 -1.3699 -0.3308
  129MOL   H13420870   2.477   1.478   4.325  1.7331 -1.1363  1.3361
  129MOL   H13520871   2.542   1.723   4.421 -0.7638 -2.4865  0.4423
  129MOL   H13620872   2.607   1.767   4.136  1.2390 -1.3893 -0.5382
  129MOL   H13720873   2.627   1.859   4.269 -0.1782  0.4297 -0.6076
  129MOL   C13820874   2.386   1.728   4.272  0.2515  0.1045  0.5536
  129MOL   C13920875   2.273   1.706   4.377  0.3181  0.2579 -0.0543
  129MOL   N14020876   2.286   1.826   4.468  0.3952 -0.2256  0.1024
  129MOL   H14120877   2.380   1.834   4.248 -1.1510 -0.1740 -0.3195
  129MOL   H14220878   2.375   1.672   4.179  2.5715 -3.1077  2.0836
  129MOL   H14320879   2.290   1.624   4.447  1.9159  1.9607  1.6168
  129MOL   H14420880   2.255   1.805   4.562  0.1992  0.2329  0.1403
  129MOL   H14520881   2.211   1.884   4.433  0.4297 -0.6559 -0.6869
  129MOL   C14620882   2.128   1.711   4.319 -0.2686 -0.7740 -0.0640
  129MOL   C14720883   2.074   1.565   4.289 -0.0387  0.1783  1.0117
  129MOL   N14820884   1.934   1.579   4.304  0.7168 -0.0508  0.0872
  129MOL   H14920885   2.061   1.751   4.395  0.4629  0.4949 -0.0712
  129MOL   H15020886   2.116   1.763   4.224 -0.0402  0.9200  0.8109
  129MOL   H15120887   2.106   1.498   4.369  0.4870 -1.7935 -0.7752
  129MOL   H15220888   1.883   1.502   4.262 -0.4498  1.9759 -2.3522
  129MOL   H15320889   1.914   1.566   4.402 -2.9739  1.4607 -0.3872
  129MOL   C15420890   2.105   1.508   4.151 -0.1863 -0.4360 -0.4345
  129MOL   C15520891   2.230   1.418   4.165 -0.2261  1.1426  0.1165
  129MOL   N15620892   2.230   1.303   4.077 -0.3204 -0.2981 -0.9740
  129MOL   H15720893   2.021   1.446   4.119  0.8134 -0.7867 -2.5093
  129MOL   H15820894   2.106   1.588   4.077  1.2811  1.0502  1.1296
  129MOL   H15920895   2.245   1.378   4.265  0.1245  1.7191  0.3014
  129MOL   H16020896   2.247   1.336   3.983  2.8137 -0.3906 -0.4795
  129MOL   H16120897   2.303   1.236   4.096 -0.2899 -0.6913 -2.3635
  129MOL   H16220898   2.325   1.471   4.148  0.1093  0.8895  1.1762
  130MOL     C120899   1.577   2.121   3.441  0.2230  0.6094  0.2521
  130MOL     C220900   1.514   2.096   3.573 -0.1187  0.6696  0.1380
  130MOL     N320901   1.604   2.031   3.671 -0.4590 -0.3143  0.3331
  130MOL     H420902   1.611   2.026   3.400  1.9539  1.7976 -1.1232
  130MOL     H520903   1.661   2.188   3.456  1.3375 -0.8582  0.6325
  130MOL     H620904   1.434   2.026   3.548  0.8079 -0.5051  0.3760
  130MOL     H720905   1.636   1.941   3.638 -1.2827  0.2130 -1.9890
  130MOL     H820906   1.557   2.027   3.760  0.4038  2.1254  0.9538
  130MOL     H920907   1.516   2.172   3.366  0.6710  0.9673  0.1282
  130MOL    C1020908   1.444   2.221   3.623  0.3646  0.3636  0.2087
  130MOL    C1120909   1.293   2.230   3.583  0.2981 -0.0913 -0.5313
  130MOL    N1220910   1.206   2.170   3.679 -0.1783  0.1649 -0.3220
  130MOL    H1320911   1.446   2.226   3.732  0.3882  0.4930  0.2028
  130MOL    H1420912   1.512   2.303   3.596 -0.0987  0.2801 -1.2180
  130MOL    H1520913   1.274   2.162   3.500 -2.9769  0.9295 -0.6870
  130MOL    H1620914   1.134   2.133   3.619 -2.2667  0.4327  1.9758
  130MOL    H1720915   1.243   2.079   3.705  1.9151  1.0391 -0.1052
  130MOL    C1820916   1.252   2.374   3.552 -0.5903 -0.2442  0.1043
  130MOL    C1920917   1.302   2.424   3.414 -0.2870  0.6121  0.0695
  130MOL    N2020918   1.244   2.337   3.313 -0.4288  0.0635  0.0957
  130MOL    H2120919   1.145   2.395   3.557 -0.4071  0.5032  0.9395
  130MOL    H2220920   1.307   2.432   3.626 -2.0519  0.1464  0.9020
  130MOL    H2320921   1.411   2.421   3.411 -0.2979  0.9416 -1.3174
  130MOL    H2420922   1.150   2.372   3.306  0.3898  2.2360 -0.6181
  130MOL    H2520923   1.287   2.384   3.234  1.7814 -0.4080  0.9778
  130MOL    C2620924   1.254   2.568   3.381  0.2596  0.6638  0.4172
  130MOL    C2720925   1.346   2.670   3.450 -0.9821  1.1371 -0.2989
  130MOL    N2820926   1.382   2.781   3.365  0.1109 -0.4270  0.2255
  130MOL    H2920927   1.255   2.586   3.274  2.9275 -1.8941 -0.0411
  130MOL    H3020928   1.150   2.586   3.409 -0.5476 -2.4264 -0.3506
  130MOL    H3120929   1.436   2.617   3.481 -1.1529  2.7074  3.1254
  130MOL    H3220930   1.438   2.851   3.411 -1.4057  1.0358 -0.0861
  130MOL    H3320931   1.442   2.740   3.294 -0.1405  0.8092 -0.7171
  130MOL    C3420932   1.276   2.736   3.574  0.1668  0.4325  0.9804
  130MOL    C3520933   1.369   2.805   3.677 -0.4291 -0.2789 -0.2618
  130MOL    N3620934   1.295   2.887   3.773  0.1629  0.5863  0.0462
  130MOL    H3720935   1.205   2.808   3.533 -0.4170 -0.8735 -0.3655
  130MOL    H3820936   1.202   2.668   3.617 -1.5225  1.4629 -0.2402
  130MOL    H3920937   1.435   2.865   3.615 -1.5095  1.8559  0.6108
  130MOL    H4020938   1.261   2.965   3.719 -1.2080  0.8947  1.3058
  130MOL    H4120939   1.366   2.937   3.825  1.5592 -0.0517 -1.2255
  130MOL    C4220940   1.465   2.699   3.742 -0.5641 -0.1356 -0.0047
  130MOL    C4320941   1.621   2.740   3.738  0.0552 -0.1902 -0.0118
  130MOL    N4420942   1.643   2.872   3.786 -0.3426  0.0043 -0.5165
  130MOL    H4520943   1.439   2.676   3.846  1.4629 -0.3829  0.4682
  130MOL    H4620944   1.450   2.605   3.689  2.5885 -0.8232  0.2457
  130MOL    H4720945   1.660   2.721   3.638 -1.5785 -2.7950 -0.1833
  130MOL    H4820946   1.735   2.904   3.759 -0.5329  1.8159  0.8406
  130MOL    H4920947   1.588   2.927   3.721 -0.0304 -2.0948 -2.6174
  130MOL    C5020948   1.701   2.642   3.828 -0.4968  0.4297  0.2068
  130MOL    C5120949   1.684   2.496   3.802  0.7092  0.1263 -0.6872
  130MOL    N5220950   1.760   2.445   3.681 -0.5038  0.2030 -0.6685
  130MOL    H5320951   1.805   2.671   3.814 -0.5506 -0.6578 -2.9537
  130MOL    H5420952   1.677   2.666   3.931 -1.2795  1.4603 -0.2008
  130MOL    H5520953   1.579   2.479   3.783  0.5712  1.6609 -1.4238
  130MOL    H5620954   1.739   2.347   3.675 -0.4109  0.1193  0.3239
  130MOL    H5720955   1.852   2.441   3.724 -0.6426  1.3747 -0.2211
  130MOL    C5820956   1.725   2.404   3.924  0.2990  0.3127  0.2950
  130MOL    C5920957   1.621   2.407   4.039  0.2459 -0.0516  0.4385
  130MOL    N6020958   1.558   2.279   4.039 -0.4500  0.1845 -0.0080
  130MOL    H6120959   1.775   2.309   3.906  2.1519  1.6214 -1.6994
  130MOL    H6220960   1.806   2.459   3.972 -1.7817  2.3844  1.5599
  130MOL    H6320961   1.542   2.480   4.029  0.7181  0.5900  1.3197
  130MOL    H6420962   1.459   2.301   4.041 -0.0671  1.9058  0.6833
  130MOL    H6520963   1.554   2.229   3.952 -0.8687  0.7115 -0.2988
  130MOL    C6620964   1.689   2.440   4.170  0.1524  0.0776 -0.7594
  130MOL    C6720965   1.592   2.492   4.282  0.3692  0.1560  0.0913
  130MOL    N6820966   1.664   2.477   4.404  0.6856  0.1960 -0.1992
  130MOL    H6920967   1.720   2.347   4.219 -0.4077 -0.1899 -0.9025
  130MOL    H7020968   1.782   2.495   4.172  1.1846 -1.6519  0.2362
  130MOL    H7120969   1.503   2.431   4.297 -0.5660  1.2116 -1.0134
  130MOL    H7220970   1.596   2.483   4.478 -1.2347  2.4953 -2.0757
  130MOL    H7320971   1.692   2.380   4.404 -0.2679 -0.0853 -1.2460
  130MOL    C7420972   1.559   2.645   4.280 -0.7804 -0.0645  0.3892
  130MOL    C7520973   1.416   2.694   4.285  0.1239  0.1412  0.3190
  130MOL    N7620974   1.351   2.668   4.415  0.3586  0.1796  0.3432
  130MOL    H7720975   1.606   2.687   4.369 -0.8975 -2.3654  1.5730
  130MOL    H7820976   1.605   2.685   4.190 -1.5463  0.1205  0.0792
  130MOL    H7920977   1.358   2.637   4.212  0.7349 -1.0378  0.7353
  130MOL    H8020978   1.258   2.702   4.399  0.5034  0.7313  0.6522
  130MOL    H8120979   1.349   2.569   4.434  0.2360 -0.0040 -0.6167
  130MOL    C8220980   1.395   2.852   4.274 -0.3216 -0.5254 -0.0408
  130MOL    C8320981   1.424   2.912   4.133 -0.1322 -0.1403  0.1920
  130MOL    N8420982   1.295   2.894   4.069 -0.9583  0.2679  0.7197
  130MOL    H8520983   1.294   2.882   4.303  0.2292 -1.2894  2.8797
  130MOL    H8620984   1.466   2.896   4.345 -0.3589  0.3493 -0.5350
  130MOL    H8720985   1.492   2.852   4.073 -2.1921 -1.7770 -0.6032
  130MOL    H8820986   1.261   2.801   4.090 -1.7425  0.1311 -1.0606
  130MOL    H8920987   1.286   2.905   3.969 -1.8909  1.1006  0.8922
  130MOL    C9020988   1.453   3.070   4.133 -0.3597  0.2595  0.5933
  130MOL    C9120989   1.607   3.106   4.149 -0.2741 -0.4828 -0.4452
  130MOL    N9220990   1.670   3.090   4.019  0.3193 -0.0091 -0.0097
  130MOL    H9320991   1.419   3.113   4.039 -1.9711 -1.2519  0.4651
  130MOL    H9420992   1.385   3.116   4.205 -0.4112  1.2098 -0.0631
  130MOL    H9520993   1.646   3.027   4.213  1.3520  0.3680 -0.3720
  130MOL    H9620994   1.630   3.003   3.985  0.1863 -0.4529  1.2693
  130MOL    H9720995   1.771   3.096   4.016  0.1943  2.5279  0.0134
  130MOL    C9820996   1.635   3.247   4.218  0.5588 -0.1223 -0.2356
  130MOL    C9920997   1.601   3.249   4.370 -0.1970 -0.0266 -0.1712
  130MOL   N10020998   1.680   3.151   4.440  0.1792 -0.0869 -0.6653
  130MOL   H10120999   1.737   3.282   4.205  0.2364  0.9123 -0.0233
  130MOL   H10221000   1.573   3.320   4.166 -0.1838 -0.2226  0.5005
  130MOL   H10321001   1.500   3.224   4.399 -0.3657  1.1312  0.2658
  130MOL   H10421002   1.601   3.098   4.477  0.0177 -0.7984 -2.0036
  130MOL   H10521003   1.715   3.197   4.523  1.6869 -2.0065 -0.1969
  130MOL   C10621004   1.623   3.389   4.423  0.7519 -0.8725  0.0751
  130MOL   C10721005   1.514   3.494   4.382  0.4240 -0.0371  0.3277
  130MOL   N10821006   1.397   3.487   4.475  0.8054  0.2266  0.5287
  130MOL   H10921007   1.628   3.388   4.532 -2.7878  1.2987  0.3489
  130MOL   H11021008   1.719   3.423   4.384  0.9058 -2.4739 -0.9933
  130MOL   H11121009   1.471   3.477   4.283  1.6124 -2.0178  0.1307
  130MOL   H11221010   1.350   3.399   4.457  0.0953  0.8016 -0.5693
  130MOL   H11321011   1.438   3.485   4.567  1.0810  1.7905  0.4541
  130MOL   C11421012   1.571   3.634   4.390  0.3151 -0.0718  0.4256
  130MOL   C11521013   1.643   3.685   4.264 -0.0384  0.5408  0.2526
  130MOL   N11621014   1.540   3.737   4.180  0.0096 -0.4713 -0.1663
  130MOL   H11721015   1.490   3.707   4.403  0.6751  0.4307 -0.1573
  130MOL   H11821016   1.629   3.641   4.482  0.0881 -1.8096  0.7071
  130MOL   H11921017   1.690   3.602   4.210 -0.7476  0.2720  0.0458
  130MOL   H12021018   1.582   3.784   4.101 -1.7904  2.4654  0.5554
  130MOL   H12121019   1.491   3.809   4.231 -1.4201 -0.5975 -1.3334
  130MOL   C12221020   1.748   3.792   4.278 -0.1660 -0.1272 -0.6418
  130MOL   C12321021   1.865   3.761   4.174  0.2490  0.1214 -0.1154
  130MOL   N12421022   1.926   3.889   4.130 -1.1504  0.5013  0.1863
  130MOL   H12521023   1.712   3.895   4.269  1.0479  0.2574 -1.1579
  130MOL   H12621024   1.788   3.800   4.379 -1.3936 -2.1140  0.0293
  130MOL   H12721025   1.816   3.721   4.085 -0.4869 -0.4305  0.5297
  130MOL   H12821026   1.951   3.947   4.209  0.3336 -0.9368  0.7955
  130MOL   H12921027   2.014   3.875   4.084 -1.9015 -1.6655 -0.6362
  130MOL   C13021028   1.969   3.664   4.221  0.0094  0.5292 -0.7724
  130MOL   C13121029   2.031   3.578   4.107 -0.5129 -0.6388 -0.7646
  130MOL   N13221030   2.148   3.512   4.166 -0.0603 -0.0307 -0.4556
  130MOL   H13321031   2.048   3.721   4.270  1.6306 -3.3116  1.2981
  130MOL   H13421032   1.934   3.596   4.299  2.2352  2.4054  2.0057
  130MOL   H13521033   2.052   3.639   4.019  1.2316  0.6008  0.4826
  130MOL   H13621034   2.195   3.465   4.090 -0.5588  1.4633 -1.7286
  130MOL   H13721035   2.112   3.450   4.236  0.5624 -1.9347 -1.7815
  130MOL   C13821036   1.933   3.463   4.062  0.6776  0.0078 -0.1622
  130MOL   C13921037   1.955   3.402   3.923 -0.0363  0.0620  0.2527
  130MOL   N14021038   1.916   3.503   3.821  0.4573  0.0780 -0.2039
  130MOL   H14121039   1.938   3.385   4.138 -0.2869  1.8891  1.8844
  130MOL   H14221040   1.829   3.494   4.071  1.0069  0.6456  1.8397
  130MOL   H14321041   1.880   3.324   3.912  1.3733 -1.2002 -0.6805
  130MOL   H14421042   1.904   3.450   3.736 -2.2909 -2.2565  1.5220
  130MOL   H14521043   1.982   3.577   3.803  0.5521  0.0705  0.1070
  130MOL   C14621044   2.104   3.338   3.903  0.3914  0.0333  0.0850
  130MOL   C14721045   2.119   3.233   3.793 -0.2588 -0.1049  0.4246
  130MOL   N14821046   2.262   3.210   3.779 -0.2866 -0.5241  0.1091
  130MOL   H14921047   2.175   3.418   3.883 -0.8758  1.2853  0.4844
  130MOL   H15021048   2.139   3.307   4.002  1.7302 -0.1349 -0.4436
  130MOL   H15121049   2.080   3.274   3.700 -0.7236  1.0463  1.1165
  130MOL   H15221050   2.284   3.144   3.706  1.6615  1.5950 -1.2592
  130MOL   H15321051   2.290   3.295   3.733 -1.8838 -0.0943 -0.1081
  130MOL   C15421052   2.039   3.105   3.826 -0.3903 -0.2731 -0.1226
  130MOL   C15521053   1.994   3.037   3.691  0.1395  0.8626 -0.7303
  130MOL   N15621054   1.932   2.908   3.713 -0.0955 -0.1454  0.1402
  130MOL   H15721055   2.114   3.043   3.874 -0.6431 -0.7447 -0.3405
  130MOL   H15821056   1.955   3.114   3.896  0.8154 -0.1845  1.3423
  130MOL   H15921057   2.076   3.024   3.621 -1.2764  0.4639 -2.3234
  130MOL   H16021058   1.915   2.859   3.626  0.9038 -0.8031  0.3110
  130MOL   H16121059   2.006   2.846   3.743  0.2458 -0.6107 -1.5849
  130MOL   H16221060   1.925   3.105   3.643 -2.2047 -0.5454  0.5174
  131MOL     C121061   4.883   0.200   5.088 -0.5229  0.0406 -0.1972
  131MOL     C221062   5.029   0.163   5.147 -0.2587 -0.1788 -0.1166
  131MOL     N321063   5.078   0.288   5.200  0.8886  0.0368 -0.3758
  131MOL     H421064   4.829   0.115   5.048  2.1743 -2.5542  1.4698
  131MOL     H521065   4.901   0.280   5.016  1.5762 -0.4534 -0.2689
  131MOL     H621066   5.095   0.125   5.070 -0.7033  0.9792 -1.0960
  131MOL     H721067   5.068   0.356   5.126 -1.9887 -1.1901 -1.1805
  131MOL     H821068   5.026   0.322   5.280  2.6653 -0.0297  0.8501
  131MOL     H921069   4.817   0.232   5.168 -2.4166 -0.5733 -1.4889
  131MOL    C1021070   5.023   0.069   5.267 -0.2728  1.0460 -0.4156
  131MOL    C1121071   5.142   7.256   5.287  0.9639  0.7915 -0.5022
  131MOL    N1221072   5.138   7.200   5.423  0.3173 -0.1388 -0.2327
  131MOL    H1321073   5.003   0.121   5.361 -1.3458 -0.0049 -0.0487
  131MOL    H1421074   4.926   0.018   5.260 -0.3741  1.1322  0.3466
  131MOL    H1521075   5.232   0.039   5.267 -0.2861  2.3254 -1.8336
  131MOL    H1621076   5.184   7.259   5.490 -0.0149 -1.4333  1.1634
  131MOL    H1721077   5.184   7.110   5.422  1.6344  0.5033  0.8770
  131MOL    C1821078   5.131   7.137   5.190  0.1025 -0.0868 -0.0999
  131MOL    C1921079   5.254   7.043   5.186  0.5118  0.3664 -0.6720
  131MOL    N2021080   5.198   6.913   5.189 -0.2094  0.0016 -0.3213
  131MOL    H2121081   5.047   7.080   5.230  1.1883 -1.2566  0.5687
  131MOL    H2221082   5.095   7.171   5.094 -0.8058  2.0008  0.9559
  131MOL    H2321083   5.318   7.049   5.274  1.3334 -0.2794 -1.2210
  131MOL    H2421084   5.257   6.846   5.143  0.3693  0.1522  0.2015
  131MOL    H2521085   5.173   6.873   5.278 -1.2774  1.4204  0.0307
  131MOL    C2621086   5.330   7.063   5.048  0.1699 -1.1101 -0.4030
  131MOL    C2721087   5.373   7.209   5.038 -0.8181 -0.9005  0.4067
  131MOL    N2821088   5.479   7.227   5.136  0.1424 -0.0452 -0.2990
  131MOL    H2921089   5.416   6.997   5.045  0.0351 -1.2213 -2.1680
  131MOL    H3021090   5.262   7.033   4.968 -3.4536 -0.0712  2.1193
  131MOL    H3121091   5.292   0.006   5.047 -0.4982  0.2380 -4.6700
  131MOL    H3221092   5.489   0.052   5.138 -0.4415  0.0004  0.7433
  131MOL    H3321093   5.437   7.210   5.227  0.4778  3.2592  0.5583
  131MOL    C3421094   5.433   7.224   4.898  0.3627  0.3587 -0.3394
  131MOL    C3521095   5.338   0.006   4.785  0.5542  0.0669 -0.5642
  131MOL    N3621096   5.421   0.024   4.667  0.3614 -0.2586 -0.0140
  131MOL    H3721097   5.514   0.021   4.901 -1.2931  2.1655  2.6015
  131MOL    H3821098   5.475   7.127   4.873  0.2558 -0.3291  2.0433
  131MOL    H3921099   5.308   0.105   4.820 -2.3066 -0.6984 -0.7607
  131MOL    H4021100   5.376   0.062   4.585  0.5513  0.3960  0.1867
  131MOL    H4121101   5.438   7.202   4.645 -0.0235 -0.3217 -0.0407
  131MOL    C4221102   5.204   7.205   4.764  0.3937  0.1571 -0.5604
  131MOL    C4321103   5.099   7.268   4.671  1.3272 -0.1973 -0.6236
  131MOL    N4421104   5.004   7.160   4.647 -0.3459 -0.3785  0.1339
  131MOL    H4521105   5.248   7.115   4.720 -0.2810 -0.0815 -0.7562
  131MOL    H4621106   5.165   7.181   4.863 -1.2929 -1.4204 -1.5687
  131MOL    H4721107   5.142   0.018   4.575  0.7368 -0.2936 -0.9123
  131MOL    H4821108   5.011   7.099   4.727 -0.2375 -0.0108  0.4003
  131MOL    H4921109   5.034   7.103   4.568  0.5600 -0.6467  0.6696
  131MOL    C5021110   5.016   0.106   4.734 -0.1651 -0.2603  0.4536
  131MOL    C5121111   4.940   0.197   4.637 -0.0055 -0.2280 -0.1217
  131MOL    N5221112   4.823   0.255   4.699 -0.1882  0.1202 -0.4815
  131MOL    H5321113   4.941   0.085   4.812 -1.1124  1.6815  0.0885
  131MOL    H5421114   5.091   0.170   4.780 -1.2819 -0.5162  2.7112
  131MOL    H5521115   4.896   0.139   4.556  0.1704 -1.3901  0.6011
  131MOL    H5621116   4.778   0.172   4.734  1.4791 -1.1381 -1.2511
  131MOL    H5721117   4.834   0.315   4.779 -1.5941 -0.5126  0.2018
  131MOL    C5821118   5.037   0.307   4.584 -0.2406  0.4105 -0.1164
  131MOL    C5921119   4.992   0.369   4.449 -0.1961 -0.1855  1.0429
  131MOL    N6021120   5.080   0.477   4.429  0.1960 -0.5573  0.2429
  131MOL    H6121121   5.052   0.387   4.657 -1.7023 -0.4219  1.1174
  131MOL    H6221122   5.138   0.268   4.572 -0.2051 -0.5728  3.0061
  131MOL    H6321123   4.893   0.408   4.473 -0.4577  0.7514 -1.4620
  131MOL    H6421124   5.057   0.528   4.345 -0.5826  0.7487  1.2340
  131MOL    H6521125   5.071   0.550   4.497 -1.7383  1.6920 -2.3240
  131MOL    C6621126   4.997   0.275   4.321  0.8228 -0.6955 -0.1629
  131MOL    C6721127   4.913   0.318   4.200 -0.2188 -0.9321  0.2802
  131MOL    N6821128   4.970   0.287   4.071  0.3039 -0.4513 -0.2896
  131MOL    H6921129   5.102   0.280   4.292  0.2161 -0.1219 -2.3893
  131MOL    H7021130   4.968   0.176   4.356  2.2635 -1.4429 -1.0269
  131MOL    H7121131   4.914   0.427   4.209  1.6315 -1.0103  1.4045
  131MOL    H7221132   4.977   0.187   4.060 -1.6615 -0.4373 -1.9661
  131MOL    H7321133   5.061   0.329   4.057  0.5659 -0.6428  0.7910
  131MOL    C7421134   4.767   0.267   4.201 -0.2154 -0.6952  0.4373
  131MOL    C7521135   4.667   0.337   4.294  0.3048  0.0872  0.4067
  131MOL    N7621136   4.642   0.465   4.236  0.5623  0.2051  0.3964
  131MOL    H7721137   4.730   0.268   4.098  1.1134 -2.0315 -0.0622
  131MOL    H7821138   4.770   0.162   4.232 -0.5591 -0.0783  2.6124
  131MOL    H7921139   4.717   0.332   4.390  0.8569  4.2779  0.4071
  131MOL    H8021140   4.730   0.506   4.207  1.1183 -1.2706 -0.0649
  131MOL    H8121141   4.613   0.533   4.304 -2.2709 -1.2557  0.7002
  131MOL    C8221142   4.540   0.253   4.312  0.1499  0.5292  0.5264
  131MOL    C8321143   4.559   0.129   4.398 -0.3407  1.1852  0.0510
  131MOL    N8421144   4.575   0.182   4.532  0.1993 -0.5737 -0.0656
  131MOL    H8521145   4.452   0.305   4.349 -1.2706 -1.1170 -0.4335
  131MOL    H8621146   4.508   0.221   4.213  2.1339 -1.5620  0.5072
  131MOL    H8721147   4.654   0.084   4.370 -2.2998 -1.2334 -2.9820
  131MOL    H8821148   4.666   0.220   4.552  0.6951 -2.5827  1.7088
  131MOL    H8921149   4.582   0.111   4.604 -0.5839  0.1235  0.7253
  131MOL    C9021150   4.436   0.039   4.379 -0.0655  0.4060 -1.1475
  131MOL    C9121151   4.439   7.235   4.252 -0.0866  0.2382 -0.1868
  131MOL    N9221152   4.511   7.115   4.281 -0.2215 -0.4382 -0.2395
  131MOL    H9321153   4.415   7.242   4.458 -0.6960  1.3271 -0.4551
  131MOL    H9421154   4.348   0.103   4.378 -0.2378  0.1901 -0.5193
  131MOL    H9521155   4.490   0.019   4.177  3.5131 -0.1260  1.8572
  131MOL    H9621156   4.605   7.148   4.263 -0.9223  1.0295 -1.2589
  131MOL    H9721157   4.489   7.045   4.212  0.2822 -0.6451 -0.1904
  131MOL    C9821158   4.293   7.206   4.197  0.1657 -0.3044 -0.2017
  131MOL    C9921159   4.299   7.192   4.048  0.2555  0.3034 -0.3613
  131MOL   N10021160   4.183   7.117   4.006  0.3864  0.2299 -0.1863
  131MOL   H10121161   4.254   7.116   4.245  4.2996 -2.1948 -0.2358
  131MOL   H10221162   4.225   0.013   4.220  1.0966  1.2592 -2.8829
  131MOL   H10321163   4.377   7.121   4.019  1.5899  0.9769  1.4643
  131MOL   H10421164   4.187   7.108   3.905  0.5356  0.7044 -0.2206
  131MOL   H10521165   4.104   7.179   4.013  1.8432  2.0474  0.4157
  131MOL   C10621166   4.321   0.049   3.964  0.5316  0.3992 -1.1176
  131MOL   C10721167   4.434   0.038   3.866 -0.0150  0.1563  0.3645
  131MOL   N10821168   4.425   0.163   3.792 -0.1316  0.0486 -0.2125
  131MOL   H10921169   4.237   0.093   3.911  0.8097 -1.1092 -2.8464
  131MOL   H11021170   4.345   0.126   4.037 -3.0686  0.4036  0.1665
  131MOL   H11121171   4.410   7.231   3.799 -2.8139  0.4580  0.9182
  131MOL   H11221172   4.331   0.169   3.758  0.0078 -0.5835 -0.7166
  131MOL   H11321173   4.474   0.181   3.705  0.7186 -1.6886 -0.1244
  131MOL   C11421174   4.580   0.023   3.926 -0.2084  0.1812 -0.1968
  131MOL   C11521175   4.701   0.052   3.838  0.0700 -0.2026 -0.9201
  131MOL   N11621176   4.826   0.075   3.912  0.1725 -0.5321 -0.4254
  131MOL   H11721177   4.578   0.096   4.007  0.5735  1.9976 -1.7687
  131MOL   H11821178   4.580   7.197   3.965  0.6597  0.1279 -0.3411
  131MOL   H11921179   4.682   0.144   3.781  0.2538  1.5486  1.7608
  131MOL   H12021180   4.824   0.161   3.965  0.4733 -1.5329  1.2656
  131MOL   H12121181   4.899   0.090   3.845 -1.6729 -0.2756 -2.4225
  131MOL   C12221182   4.725   7.215   3.733 -0.1612  0.3736 -0.1726
  131MOL   C12321183   4.669   7.251   3.595  0.0996 -0.0755  0.1207
  131MOL   N12421184   4.765   0.046   3.514  0.1825  0.3246 -0.4347
  131MOL   H12521185   4.829   7.190   3.713 -0.5259 -0.9852 -0.4485
  131MOL   H12621186   4.681   7.121   3.768 -2.0145  1.4815  0.5533
  131MOL   H12721187   4.583   0.041   3.609  0.2972  0.3311 -0.5113
  131MOL   H12821188   4.720   0.097   3.440  0.0683  2.0012  0.7775
  131MOL   H12921189   4.827   0.113   3.557  2.3426 -1.3600 -0.8024
  131MOL   C13021190   4.620   7.118   3.530  0.6273 -0.2299 -0.1669
  131MOL   C13121191   4.491   7.059   3.576 -0.7906 -0.4153  0.9532
  131MOL   N13221192   4.375   7.134   3.529 -0.4384  0.2445  0.2887
  131MOL   H13321193   4.616   7.126   3.422 -2.3453  1.8998  0.0316
  131MOL   H13421194   4.708   7.055   3.546 -1.1991 -2.3769  1.8791
  131MOL   H13521195   4.488   7.053   3.684  0.0336 -0.8102  0.9532
  131MOL   H13621196   4.298   7.104   3.587 -1.3516  0.0839 -0.9669
  131MOL   H13721197   4.346   7.119   3.433  0.3657 -1.9034  0.3564
  131MOL   C13821198   4.479   6.921   3.505  0.4400 -0.5447 -0.2679
  131MOL   C13921199   4.356   6.834   3.550 -0.1837 -0.5035  0.0969
  131MOL   N14021200   4.322   6.747   3.448 -0.1784  0.2061  0.7168
  131MOL   H14121201   4.475   6.936   3.397 -0.3198 -1.2996 -0.3475
  131MOL   H14221202   4.576   6.871   3.506 -0.3600 -2.0953  2.5133
  131MOL   H14321203   4.270   6.900   3.562 -0.8525 -1.8934  3.3876
  131MOL   H14421204   4.404   6.697   3.416 -1.0224 -0.3324 -0.6475
  131MOL   H14521205   4.256   6.679   3.485  0.1976 -0.2608  0.5257
  131MOL   C14621206   4.382   6.754   3.678  0.0945 -0.4434  0.2781
  131MOL   C14721207   4.385   6.823   3.813 -0.1590 -0.1759  0.1231
  131MOL   N14821208   4.258   6.874   3.845 -0.5131  0.3889 -0.2633
  131MOL   H14921209   4.306   6.677   3.690 -0.7550  0.4293  0.6602
  131MOL   H15021210   4.472   6.695   3.665  0.9699  1.0366 -0.5745
  131MOL   H15121211   4.457   6.905   3.811  0.6634 -0.8783  1.2122
  131MOL   H15221212   4.181   6.811   3.864  0.2644 -1.0938 -1.8965
  131MOL   H15321213   4.267   6.935   3.925  1.7547 -1.2896  0.8013
  131MOL   C15421214   4.425   6.716   3.920  0.0481 -0.3131 -0.1591
  131MOL   C15521215   4.454   6.779   4.056 -0.2050  0.4986 -0.4929
  131MOL   N15621216   4.539   6.701   4.141  0.5959  0.1751  0.2152
  131MOL   H15721217   4.348   6.638   3.925 -0.8840  0.4563 -1.9871
  131MOL   H15821218   4.515   6.670   3.880 -0.3559 -1.0708 -0.2049
  131MOL   H15921219   4.363   6.803   4.112  1.1158  1.2676  1.3467
  131MOL   H16021220   4.552   6.755   4.225 -0.5322 -0.8671  1.0850
  131MOL   H16121221   4.488   6.621   4.176  0.4662 -0.9981 -2.5374
  131MOL   H16221222   4.503   6.873   4.030  1.8627  0.4533  3.0402
  132MOL     C121223   4.471   4.659   4.858  0.1112 -0.1068  0.2705
  132MOL     C221224   4.467   4.636   5.010  0.5084 -0.2945 -0.4563
  132MOL     N321225   4.492   4.763   5.080  0.2687  0.4852 -0.1644
  132MOL     H421226   4.469   4.582   4.781 -1.5115  0.6347 -0.4460
  132MOL     H521227   4.567   4.706   4.835  0.0725 -0.4813 -0.6619
  132MOL     H621228   4.553   4.571   5.026 -0.4890 -1.7936 -0.9778
  132MOL     H721229   4.590   4.787   5.082  0.8019 -1.6149  0.0392
  132MOL     H821230   4.482   4.744   5.178  2.2964 -0.5387 -0.1352
  132MOL     H921231   4.392   4.731   4.837  0.2285  0.2802  1.1247
  132MOL    C1021232   4.344   4.568   5.070  0.2560  0.0085 -0.2009
  132MOL    C1121233   4.323   4.431   5.003  0.0578  0.0019  0.2486
  132MOL    N1221234   4.292   4.323   5.099  0.3522  0.1341 -0.4241
  132MOL    H1321235   4.345   4.557   5.178  0.6948 -0.0299 -0.2064
  132MOL    H1421236   4.260   4.634   5.049  1.9377  2.3127  0.1009
  132MOL    H1521237   4.418   4.401   4.958 -0.8584  0.3392 -1.9977
  132MOL    H1621238   4.304   4.233   5.055  0.7141 -0.1518  0.2523
  132MOL    H1721239   4.193   4.330   5.121  1.2222  0.1000  3.9671
  132MOL    C1821240   4.225   4.427   4.879 -0.5609 -0.4003  0.1700
  132MOL    C1921241   4.288   4.358   4.753 -1.0172  0.2891  0.8612
  132MOL    N2021242   4.322   4.215   4.762 -0.5064  0.2292  0.2807
  132MOL    H2121243   4.134   4.371   4.898 -1.4930 -0.0086 -2.9216
  132MOL    H2221244   4.199   4.530   4.854  1.4887  0.0617 -0.1875
  132MOL    H2321245   4.380   4.411   4.728 -1.4841  0.6540 -0.1165
  132MOL    H2421246   4.257   4.160   4.816  1.4047 -1.1740  1.2395
  132MOL    H2521247   4.404   4.207   4.821 -0.3386  2.0074  0.3066
  132MOL    C2621248   4.194   4.357   4.628 -0.1991  0.4933 -0.2858
  132MOL    C2721249   4.162   4.492   4.565  0.2217 -0.4714 -0.3455
  132MOL    N2821250   4.274   4.544   4.495  0.1490  0.1283 -0.2545
  132MOL    H2921251   4.239   4.294   4.552 -1.1736 -1.3144  0.6017
  132MOL    H3021252   4.113   4.289   4.656  2.0989 -1.3777  2.0186
  132MOL    H3121253   4.127   4.566   4.637  2.6243  0.3817 -0.0309
  132MOL    H3221254   4.259   4.643   4.481 -1.6764  0.1261  1.4186
  132MOL    H3321255   4.363   4.525   4.538  0.4908  1.2646 -0.4282
  132MOL    C3421256   4.047   4.479   4.458 -0.1822 -0.1595  0.0835
  132MOL    C3521257   3.913   4.483   4.529  0.1972 -0.3238  0.3203
  132MOL    N3621258   3.882   4.606   4.601 -0.1781 -0.0569 -0.2730
  132MOL    H3721259   4.046   4.563   4.389  0.6903  1.5467  2.1167
  132MOL    H3821260   4.070   4.396   4.391 -0.3697 -0.3781  0.2897
  132MOL    H3921261   3.912   4.404   4.603  0.5318  1.5762  2.4241
  132MOL    H4021262   3.842   4.672   4.535 -0.9837  1.1259  1.3644
  132MOL    H4121263   3.800   4.592   4.657  0.3166  2.3445  1.0942
  132MOL    C4221264   3.791   4.454   4.434  0.2898 -0.4253 -0.4526
  132MOL    C4321265   3.785   4.319   4.360  0.6233 -0.1266 -0.5030
  132MOL    N4421266   3.716   4.230   4.447  0.0648  0.1775 -1.0724
  132MOL    H4521267   3.698   4.464   4.490  0.7848 -1.4459  0.5559
  132MOL    H4621268   3.779   4.536   4.362 -1.2403  0.0021  0.2794
  132MOL    H4721269   3.883   4.277   4.339  0.9518  0.4077 -0.0456
  132MOL    H4821270   3.723   4.135   4.414  1.2471  0.0010 -0.3198
  132MOL    H4921271   3.773   4.227   4.530 -1.3746  0.8828 -0.0348
  132MOL    C5021272   3.713   4.336   4.225  0.7413 -0.5203  0.1663
  132MOL    C5121273   3.815   4.330   4.107  0.1030 -0.2149 -0.4334
  132MOL    N5221274   3.750   4.301   3.982  0.2991 -0.6253 -0.1229
  132MOL    H5321275   3.651   4.249   4.203 -1.8288  1.2841 -0.0080
  132MOL    H5421276   3.654   4.427   4.211  0.3647 -1.0539 -1.8674
  132MOL    H5521277   3.878   4.245   4.133  0.2533 -0.1397 -0.5462
  132MOL    H5621278   3.700   4.381   3.946 -2.1040 -2.1939 -0.3392
  132MOL    H5721279   3.676   4.233   3.991 -2.2127  2.0444 -0.0366
  132MOL    C5821280   3.900   4.452   4.091 -0.1076  0.4443  0.3180
  132MOL    C5921281   4.031   4.444   4.008 -0.1372  0.2683  0.7306
  132MOL    N6021282   4.059   4.574   3.946 -0.0913  0.2360 -0.6683
  132MOL    H6121283   3.831   4.526   4.051 -1.3528 -0.0065  1.6077
  132MOL    H6221284   3.932   4.490   4.188 -0.8108 -0.8965  1.0889
  132MOL    H6321285   4.009   4.366   3.934  0.9831  0.3364  0.3071
  132MOL    H6421286   4.131   4.552   3.879  1.6916 -1.4195  1.7376
  132MOL    H6521287   4.102   4.632   4.016 -1.8851 -2.7623  3.0645
  132MOL    C6621288   4.157   4.393   4.083 -0.2110 -0.2772  0.0888
  132MOL    C6721289   4.169   4.244   4.112  0.9824 -0.0964 -0.5183
  132MOL    N6821290   4.226   4.183   3.989  0.0675  0.5091  0.1868
  132MOL    H6921291   4.243   4.426   4.023 -0.2343 -1.4080 -0.5814
  132MOL    H7021292   4.155   4.445   4.179  0.1478  0.7515 -0.4413
  132MOL    H7121293   4.075   4.195   4.136  1.8976 -1.4830  0.2987
  132MOL    H7221294   4.246   4.085   3.998 -0.9011  0.2409 -0.5188
  132MOL    H7321295   4.315   4.218   3.955  0.8831 -0.3483  1.4294
  132MOL    C7421296   4.261   4.217   4.232  0.1162 -0.2448  0.0328
  132MOL    C7521297   4.258   4.075   4.284 -0.4164  0.0622  0.0039
  132MOL    N7621298   4.385   4.039   4.348  0.1881 -0.1395 -0.3251
  132MOL    H7721299   4.360   4.237   4.189  0.3166 -0.2671  0.4870
  132MOL    H7821300   4.250   4.290   4.312 -3.7028 -1.3618  0.5927
  132MOL    H7921301   4.246   4.013   4.195  0.5238  0.3250 -0.3110
  132MOL    H8021302   4.381   4.105   4.424 -1.5720 -0.8203  0.1914
  132MOL    H8121303   4.467   4.058   4.292 -0.5815  0.2720 -1.3353
  132MOL    C8221304   4.146   4.057   4.386 -0.3879  0.4527 -0.1912
  132MOL    C8321305   4.109   3.916   4.435 -0.4110 -0.4579 -0.0302
  132MOL    N8421306   3.991   3.922   4.521  0.2087  1.2047 -0.4100
  132MOL    H8521307   4.170   4.125   4.468  0.7620 -0.0165 -0.1203
  132MOL    H8621308   4.053   4.106   4.357 -0.2509  0.6879 -0.2337
  132MOL    H8721309   4.187   3.883   4.503 -2.2596  0.2779  2.5079
  132MOL    H8821310   4.017   3.949   4.615  0.5290 -0.3451 -0.0300
  132MOL    H8921311   3.950   3.830   4.531  0.2836  1.1382 -0.7203
  132MOL    C9021312   4.079   3.813   4.330  0.2532 -0.3226  0.1903
  132MOL    C9121313   4.117   3.663   4.356  0.9752 -0.1289  1.1344
  132MOL    N9221314   4.036   3.592   4.266 -0.5037  0.3678  0.2902
  132MOL    H9321315   3.973   3.826   4.304 -0.1292 -1.9490  0.9153
  132MOL    H9421316   4.128   3.852   4.240 -1.0712  1.9589  0.4203
  132MOL    H9521317   4.077   3.642   4.456 -1.0372  0.0038  0.3819
  132MOL    H9621318   4.049   3.492   4.278 -0.0348  0.5485  1.3473
  132MOL    H9721319   4.068   3.617   4.173  1.1720 -0.1733  0.6980
  132MOL    C9821320   4.270   3.630   4.324 -0.4683  0.5348 -0.7664
  132MOL    C9921321   4.308   3.512   4.406  0.5306  0.7028  0.3072
  132MOL   N10021322   4.340   3.396   4.322  0.2219 -0.4431  0.0156
  132MOL   H10121323   4.297   3.606   4.221  1.3145 -0.0507 -0.1812
  132MOL   H10221324   4.332   3.711   4.361 -0.5338  0.8103 -1.2647
  132MOL   H10321325   4.229   3.478   4.473 -0.4712  0.7380 -0.8393
  132MOL   H10421326   4.423   3.406   4.264 -0.1818 -0.7303 -0.6215
  132MOL   H10521327   4.268   3.388   4.252  0.5931 -1.0261 -0.3071
  132MOL   C10621328   4.431   3.538   4.502 -0.2414 -0.6250 -0.0271
  132MOL   C10721329   4.454   3.431   4.615 -0.3459  0.4469  0.3441
  132MOL   N10821330   4.583   3.369   4.595 -0.7065 -0.1463  0.3818
  132MOL   H10921331   4.526   3.548   4.448 -0.2378 -1.3825 -0.1689
  132MOL   H11021332   4.431   3.639   4.542 -1.2777 -1.4538  2.1414
  132MOL   H11121333   4.388   3.344   4.613  0.2285  0.0057 -1.7845
  132MOL   H11221334   4.565   3.308   4.516 -1.2965 -0.6825  0.9181
  132MOL   H11321335   4.601   3.306   4.672 -1.0407 -0.5298  0.1462
  132MOL   C11421336   4.461   3.484   4.762 -0.7219  0.7356 -0.1865
  132MOL   C11521337   4.328   3.457   4.835 -0.2927  0.1240 -0.1194
  132MOL   N11621338   4.344   3.438   4.976  0.2290  1.2401 -0.3577
  132MOL   H11721339   4.544   3.434   4.812 -0.6784  1.2315  0.2386
  132MOL   H11821340   4.497   3.586   4.753 -1.8185  1.2535  1.0618
  132MOL   H11921341   4.280   3.370   4.791 -0.2388 -2.0648  3.9780
  132MOL   H12021342   4.264   3.425   5.037 -1.0317 -2.8493 -2.6883
  132MOL   H12121343   4.394   3.351   4.989 -0.1134  1.1202  0.2080
  132MOL   C12221344   4.233   3.575   4.808 -0.0185  0.4701  0.0151
  132MOL   C12321345   4.086   3.539   4.817 -0.4818 -0.2472 -0.1479
  132MOL   N12421346   3.995   3.657   4.813 -0.2397 -0.8879 -0.2401
  132MOL   H12521347   4.255   3.659   4.873  1.2557 -0.7529  1.2177
  132MOL   H12621348   4.252   3.615   4.709 -1.5901  0.1681 -0.4139
  132MOL   H12721349   4.064   3.484   4.909 -1.2713 -1.1078 -0.8383
  132MOL   H12821350   3.960   3.670   4.719 -1.3876  0.5664  0.3644
  132MOL   H12921351   3.909   3.627   4.856  0.1751 -1.1131  0.4454
  132MOL   C13021352   4.042   3.457   4.696  0.0358  0.3453 -0.6291
  132MOL   C13121353   3.924   3.364   4.710 -0.1948 -0.7320 -0.4242
  132MOL   N13221354   3.891   3.327   4.571  0.4382 -0.1209  0.6734
  132MOL   H13321355   4.023   3.524   4.611 -0.1726 -0.3903 -1.1651
  132MOL   H13421356   4.129   3.400   4.665  0.4911 -0.2061  1.5896
  132MOL   H13521357   3.840   3.416   4.754  0.4965  0.4607 -0.4913
  132MOL   H13621358   3.870   3.409   4.516  1.0111 -0.3896  0.0491
  132MOL   H13721359   3.807   3.271   4.565 -0.0791  0.5008  1.8838
  132MOL   C13821360   3.962   3.242   4.793  1.0657  0.6242  0.5948
  132MOL   C13921361   3.844   3.147   4.843 -0.2816 -0.3537 -0.1990
  132MOL   N14021362   3.894   3.008   4.850 -0.0526  0.3881  0.1476
  132MOL   H14121363   4.027   3.182   4.729 -0.2561  1.3274 -1.4436
  132MOL   H14221364   4.022   3.293   4.869  0.8089  1.8145  0.0146
  132MOL   H14321365   3.763   3.145   4.770 -0.1392  0.6711 -0.3892
  132MOL   H14421366   3.931   2.983   4.759 -0.4594 -1.3070  0.4205
  132MOL   H14521367   3.814   2.946   4.856 -0.5228  0.9374 -0.4222
  132MOL   C14621368   3.782   3.186   4.981  0.2893 -0.8807 -0.7698
  132MOL   C14721369   3.698   3.316   4.986  0.0005  0.1948 -0.3059
  132MOL   N14821370   3.583   3.290   5.065 -0.0422  0.4694 -0.2835
  132MOL   H14921371   3.720   3.103   5.015  1.2380 -0.2858  2.6593
  132MOL   H15021372   3.864   3.188   5.054  0.7752  2.2989 -1.3353
  132MOL   H15121373   3.668   3.335   4.883  1.1813  0.0744 -0.6719
  132MOL   H15221374   3.539   3.382   5.062 -1.7294 -0.3407 -1.0767
  132MOL   H15321375   3.529   3.228   5.006  0.0067  1.9202 -1.9365
  132MOL   C15421376   3.767   3.438   5.045  0.2897 -0.2740 -0.2623
  132MOL   C15521377   3.696   3.573   5.014 -0.7396 -0.5313  0.4588
  132MOL   N15621378   3.688   3.588   4.871  0.1280 -0.2666 -0.1199
  132MOL   H15721379   3.781   3.430   5.153 -0.8417  0.9885 -0.0008
  132MOL   H15821380   3.869   3.433   5.008 -0.0969 -0.3477 -1.3404
  132MOL   H15921381   3.756   3.651   5.061 -0.2422 -1.2594  1.0322
  132MOL   H16021382   3.639   3.509   4.832 -0.8474 -0.1711  0.8997
  132MOL   H16121383   3.624   3.665   4.856 -1.3738 -1.6500 -1.0246
  132MOL   H16221384   3.595   3.572   5.055 -1.4852 -0.6955 -1.3286
  133MOL     C121385   3.837   2.858   6.188 -0.0206  0.6354 -0.0502
  133MOL     C221386   3.868   2.942   6.312 -0.0092 -0.3253  0.2813
  133MOL     N321387   3.895   2.851   6.418 -0.3432  0.1522  0.7096
  133MOL     H421388   3.921   2.791   6.169  0.2803  0.7114  0.9753
  133MOL     H521389   3.806   2.913   6.099 -0.0559  0.0595 -0.3967
  133MOL     H621390   3.768   2.978   6.336 -0.1605  0.1215 -1.0082
  133MOL     H721391   3.879   2.892   6.509 -0.2626 -1.0574  1.2757
  133MOL     H821392   3.826   2.776   6.414 -0.6641  0.3964  1.5520
  133MOL     H921393   3.747   2.802   6.214 -0.5227  1.1468 -0.6850
  133MOL    C1021394   3.975   3.051   6.286  0.4899  0.6865 -0.3819
  133MOL    C1121395   3.976   3.158   6.395 -0.4681  0.2384  0.2308
  133MOL    N1221396   4.111   3.205   6.406 -0.1316  0.3025 -0.2922
  133MOL    H1321397   4.071   3.002   6.266 -0.9488 -1.9091 -1.3128
  133MOL    H1421398   3.948   3.099   6.192  1.2627  0.3915 -0.7601
  133MOL    H1521399   3.953   3.111   6.490 -0.8717  2.9406  1.5283
  133MOL    H1621400   4.113   3.282   6.472  0.1166 -0.3133  0.4402
  133MOL    H1721401   4.163   3.130   6.450 -1.0134  0.3085  0.8008
  133MOL    C1821402   3.896   3.291   6.360  1.0117 -0.7751  0.1104
  133MOL    C1921403   3.880   3.389   6.476  0.0416 -0.5317  0.1787
  133MOL    N2021404   3.824   3.514   6.430  0.3255  0.6078  0.2744
  133MOL    H2121405   3.943   3.351   6.283 -0.5836 -1.0551 -1.1108
  133MOL    H2221406   3.795   3.270   6.324 -0.0112  1.3140  1.6317
  133MOL    H2321407   3.976   3.415   6.520 -0.9381  1.2159  1.3459
  133MOL    H2421408   3.900   3.560   6.383  2.5186 -1.6167  1.5151
  133MOL    H2521409   3.803   3.569   6.512  0.3088 -0.7475  1.2061
  133MOL    C2621410   3.800   3.327   6.591  0.2770  0.0018 -0.7796
  133MOL    C2721411   3.817   3.402   6.733 -0.2433  0.1100  0.2585
  133MOL    N2821412   3.698   3.371   6.817 -0.5003  0.6070 -0.0532
  133MOL    H2921413   3.696   3.340   6.562  0.3368  0.4450 -0.7944
  133MOL    H3021414   3.815   3.219   6.601  0.5514 -0.0122 -1.2969
  133MOL    H3121415   3.813   3.511   6.723  0.3294  0.5406  3.9666
  133MOL    H3221416   3.724   3.362   6.915 -0.3277 -1.0502 -0.2498
  133MOL    H3321417   3.636   3.449   6.798 -0.6364  0.2089 -1.2379
  133MOL    C3421418   3.941   3.359   6.808 -0.0070  0.6033 -0.2603
  133MOL    C3521419   4.010   3.468   6.886 -0.2830  0.4523 -0.0852
  133MOL    N3621420   4.023   3.417   7.026 -0.5941 -0.1021  0.0702
  133MOL    H3721421   3.913   3.267   6.859  1.2756  1.3613  1.8494
  133MOL    H3821422   4.016   3.323   6.737  1.2491  1.0197  0.8376
  133MOL    H3921423   3.942   3.553   6.898 -0.1950  0.6235 -0.7702
  133MOL    H4021424   4.059   3.323   7.015 -1.0917 -0.0246 -2.4305
  133MOL    H4121425   3.933   3.392   7.063 -1.1270  0.0756 -1.1000
  133MOL    C4221426   4.148   3.511   6.836  0.5151 -0.0287  0.0033
  133MOL    C4321427   4.146   3.607   6.714 -0.1169 -0.7306  0.4724
  133MOL    N4421428   4.096   3.741   6.746 -0.0437 -0.4648  0.2658
  133MOL    H4521429   4.201   3.559   6.918 -2.0836  3.8732 -0.5064
  133MOL    H4621430   4.208   3.423   6.811 -1.2268 -0.9007 -1.2173
  133MOL    H4721431   4.085   3.553   6.641  2.1207 -0.6817 -1.4727
  133MOL    H4821432   4.010   3.734   6.800  0.6296  2.4874  1.8378
  133MOL    H4921433   4.164   3.788   6.803  1.9869 -2.6778 -0.2708
  133MOL    C5021434   4.292   3.622   6.656 -0.6465 -0.3458 -0.6756
  133MOL    C5121435   4.344   3.503   6.570  0.0834  0.3823 -0.4470
  133MOL    N5221436   4.274   3.488   6.444  0.0829  0.1462 -0.1586
  133MOL    H5321437   4.313   3.700   6.582  1.7067 -2.1881 -2.0365
  133MOL    H5421438   4.369   3.631   6.734 -0.3506 -1.6175 -0.8168
  133MOL    H5521439   4.334   3.416   6.634  0.3700  0.6750  0.0018
  133MOL    H5621440   4.344   3.529   6.384  1.9403 -2.4745  0.1017
  133MOL    H5721441   4.287   3.392   6.417 -1.9080  0.1016 -1.0603
  133MOL    C5821442   4.494   3.524   6.538 -0.1598  0.0362  0.2278
  133MOL    C5921443   4.598   3.508   6.658  0.3528  0.8862  0.8124
  133MOL    N6021444   4.583   3.370   6.712 -0.2682 -1.1301 -0.4061
  133MOL    H6121445   4.518   3.447   6.464 -1.6911 -0.1858 -0.0599
  133MOL    H6221446   4.511   3.621   6.491 -1.3856  0.3897  0.4947
  133MOL    H6321447   4.573   3.571   6.744 -0.0406  0.3228  1.1131
  133MOL    H6421448   4.489   3.342   6.736 -1.0720  1.4138 -0.4102
  133MOL    H6521449   4.607   3.306   6.638 -1.8104 -0.5712 -1.4300
  133MOL    C6621450   4.731   3.542   6.604 -0.6498 -0.4300  0.4410
  133MOL    C6721451   4.842   3.568   6.714  0.3174  0.0809 -0.2723
  133MOL    N6821452   4.917   3.443   6.731 -0.4120 -0.4915  0.5102
  133MOL    H6921453   4.767   3.461   6.541 -1.6318 -1.1749  0.8210
  133MOL    H7021454   4.718   3.630   6.542  1.0414 -1.4562 -1.4276
  133MOL    H7121455   4.795   3.596   6.808  1.1678 -0.1650  0.2233
  133MOL    H7221456   4.864   3.357   6.725 -1.9492  0.4811 -0.4148
  133MOL    H7321457   4.968   3.446   6.818  0.4060 -1.6724  0.0884
  133MOL    C7421458   4.943   3.683   6.686 -0.8038 -0.6355 -0.3336
  133MOL    C7521459   5.004   3.740   6.816  0.0416  0.0228  0.7298
  133MOL    N7621460   5.138   3.791   6.792  1.0549 -0.7118 -0.4122
  133MOL    H7721461   5.020   3.640   6.620 -1.5995 -0.8521 -1.1365
  133MOL    H7821462   4.898   3.761   6.625  0.1072 -0.2735 -0.5625
  133MOL    H7921463   5.005   3.662   6.892 -2.7545  0.5372  1.3216
  133MOL    H8021464   5.135   3.869   6.728 -2.1234  0.4612  1.0823
  133MOL    H8121465   5.206   3.732   6.746  0.8688 -0.5673 -0.8766
  133MOL    C8221466   4.910   3.859   6.849  0.0569  0.5653  0.2110
  133MOL    C8321467   4.893   3.868   6.999 -0.4665  0.1458 -0.4573
  133MOL    N8421468   4.860   4.004   7.045  0.0482  0.6123  0.4633
  133MOL    H8521469   4.965   3.943   6.808 -0.6140  0.9710  0.1256
  133MOL    H8621470   4.812   3.860   6.801 -0.7179 -0.8193  1.6856
  133MOL    H8721471   4.984   3.847   7.055 -0.3720 -1.1447 -1.0818
  133MOL    H8821472   4.923   4.073   7.007 -0.2890  1.8136  2.0347
  133MOL    H8921473   4.869   4.007   7.146  0.6316  1.0314  0.3981
  133MOL    C9021474   4.780   3.778   7.055  0.2781 -0.0982  0.3799
  133MOL    C9121475   4.824   3.656   7.135 -0.2724 -0.0565 -0.2575
  133MOL    N9221476   4.878   3.713   7.255  1.0308 -0.1083 -0.3475
  133MOL    H9321477   4.697   3.833   7.099  0.6758  1.8252 -1.1714
  133MOL    H9421478   4.750   3.726   6.964 -1.3402 -1.1627  1.5134
  133MOL    H9521479   4.903   3.602   7.084 -0.6644  2.4563 -3.7019
  133MOL    H9621480   4.919   3.635   0.029  2.9862 -0.0007 -1.7081
  133MOL    H9721481   4.961   3.758   7.219  1.1919  0.8381  1.1800
  133MOL    C9821482   4.707   3.574   7.189 -0.8790 -0.1639  0.0614
  133MOL    C9921483   4.610   3.508   7.087  0.4510  0.0595 -0.5009
  133MOL   N10021484   4.693   3.433   6.998 -0.1417 -0.7926 -0.6783
  133MOL   H10121485   4.759   3.505   7.255  1.8198  1.4272 -0.3526
  133MOL   H10221486   4.651   3.626   7.268 -2.3498  0.1220 -1.1453
  133MOL   H10321487   4.555   3.579   7.026  0.8914 -1.3462 -2.5755
  133MOL   H10421488   4.628   3.405   6.925  0.5580 -3.5465 -0.2767
  133MOL   H10521489   4.754   3.495   6.946 -0.6309  0.9277  0.7338
  133MOL   C10621490   4.501   3.417   7.148 -0.8176 -0.5482 -0.4065
  133MOL   C10721491   4.366   3.491   7.179 -0.3101 -0.2479 -0.4771
  133MOL   N10821492   4.267   3.389   7.205  0.8516 -0.1473 -0.1238
  133MOL   H10921493   4.479   3.333   7.081  0.1502  0.4881 -2.0794
  133MOL   H11021494   4.534   3.376   7.243 -1.8568  0.8039  0.5541
  133MOL   H11121495   4.351   3.546   7.086  0.6784  0.5853 -0.1583
  133MOL   H11221496   4.187   3.410   7.147  0.8868  0.4618  0.0386
  133MOL   H11321497   4.297   3.299   7.172  0.1221 -0.8794  1.1788
  133MOL   C11421498   4.365   3.592   0.022  0.1808 -0.3948  0.7999
  133MOL   C11521499   4.400   3.733   7.247 -0.2908  0.9132 -0.2194
  133MOL   N11621500   4.295   3.790   7.162 -0.4268 -0.5572  0.0308
  133MOL   H11721501   4.266   3.607   0.065  0.5519  1.6929  1.0100
  133MOL   H11821502   4.431   3.556   0.101  2.1927 -0.5364 -0.8982
  133MOL   H11921503   4.488   3.741   7.183 -0.2147 -1.5480 -0.4754
  133MOL   H12021504   4.281   3.889   7.178 -2.2394 -0.9590  1.0630
  133MOL   H12121505   4.326   3.794   7.066 -1.3058 -1.4735 -0.2993
  133MOL   C12221506   4.410   3.833   0.095  0.2429  0.0868 -0.4593
  133MOL   C12321507   4.537   3.811   0.179 -0.2819  0.0361 -0.9751
  133MOL   N12421508   4.640   3.878   0.109  0.0268  0.0163 -0.0097
  133MOL   H12521509   4.410   3.936   0.060 -0.6936  0.1787 -0.1781
  133MOL   H12621510   4.322   3.818   0.157 -0.2939  0.7567 -1.0522
  133MOL   H12721511   4.561   3.705   0.191 -0.1013  0.2294  0.4474
  133MOL   H12821512   4.718   3.820   0.137 -2.1462 -1.7546  2.6178
  133MOL   H12921513   4.630   3.863   0.010  2.9636  1.5213 -0.5876
  133MOL   C13021514   4.536   3.859   0.330 -0.5782  0.4284 -0.2289
  133MOL   C13121515   4.417   3.803   0.415 -0.4423  0.4097  0.4175
  133MOL   N13221516   4.445   3.663   0.438  0.2116 -0.4225  0.6004
  133MOL   H13321517   4.623   3.816   0.379 -0.3911 -0.3575 -1.2280
  133MOL   H13421518   4.541   3.968   0.340  0.9661  0.2398  1.1425
  133MOL   H13521519   4.327   3.814   0.353 -0.1366 -3.2044 -0.8123
  133MOL   H13621520   4.391   3.622   0.513 -0.9267  0.4734  0.2776
  133MOL   H13721521   4.540   3.651   0.472  0.3505  2.2355  1.2523
  133MOL   C13821522   4.407   3.878   0.548 -0.0905  0.4533 -0.6527
  133MOL   C13921523   4.276   3.857   0.624  0.6293  0.1332 -0.9542
  133MOL   N14021524   4.310   3.831   0.765  1.1396  0.0127 -0.0882
  133MOL   H14121525   4.493   3.849   0.608 -0.4676  1.3521  0.3301
  133MOL   H14221526   4.424   3.985   0.534 -1.2841  0.7594  0.2219
  133MOL   H14321527   4.224   3.767   0.591 -2.7155  0.5840  2.7395
  133MOL   H14421528   4.278   3.740   0.794  1.0595  0.3986  1.0892
  133MOL   H14521529   4.408   3.844   0.788  2.1239 -2.6465 -2.5539
  133MOL   C14621530   4.180   3.980   0.616 -0.7040 -1.0825  0.2526
  133MOL   C14721531   4.112   4.014   0.484 -0.8258  0.5822 -0.3710
  133MOL   N14821532   3.964   4.009   0.508 -0.2120 -0.3341 -0.1911
  133MOL   H14921533   4.108   3.975   0.697  0.8831 -3.0108  1.6090
  133MOL   H15021534   4.238   4.068   0.644  1.2749 -1.8046 -1.4573
  133MOL   H15121535   4.142   3.934   0.417  1.2263  1.0224 -0.0170
  133MOL   H15221536   3.939   4.084   0.571  0.5922 -2.6898  3.0668
  133MOL   H15321537   3.907   4.006   0.425  0.7214 -0.3934 -0.8454
  133MOL   C15421538   4.148   4.152   0.425 -0.0733  0.3630  0.8454
  133MOL   C15521539   4.293   4.168   0.367  0.1491 -0.0059 -0.2348
  133MOL   N15621540   4.307   4.302   0.313 -0.2934 -0.1789 -0.1734
  133MOL   H15721541   4.095   4.170   0.332  1.0833  2.0464  0.4943
  133MOL   H15821542   4.117   4.222   0.503 -0.5240  0.8063  0.2704
  133MOL   H15921543   4.306   4.093   0.290  1.4436  0.1571 -0.1759
  133MOL   H16021544   4.382   4.301   0.245 -0.0757  0.3127  0.0538
  133MOL   H16121545   4.226   4.319   0.255 -0.9293  0.9115  1.0142
  133MOL   H16221546   4.373   4.152   0.439 -1.3710 -0.6304  1.3446
  134MOL     C121547   3.349   5.810   7.256 -0.0193  0.3984 -0.0836
  134MOL     C221548   3.269   5.940   7.265 -0.2666 -0.1771  0.4893
  134MOL     N321549   3.145   5.934   0.070 -0.5295  0.1803 -0.0616
  134MOL     H421550   3.425   5.825   7.179  1.9002 -2.3701  1.1968
  134MOL     H521551   3.287   5.727   7.222  1.9363 -1.2332  0.2096
  134MOL     H621552   3.246   5.964   7.161 -0.5549 -1.3370  0.2791
  134MOL     H721553   3.082   5.871   0.023 -0.0528  0.5776 -1.2656
  134MOL     H821554   3.095   6.021   0.059 -0.2738  0.3617  0.2219
  134MOL     H921555   3.410   5.773   0.063  0.8075  0.9260 -0.4540
  134MOL    C1021556   3.350   6.056   0.048  0.3260 -0.1862  0.4672
  134MOL    C1121557   3.457   6.114   7.223  0.2255 -0.4203  0.0803
  134MOL    N1221558   3.423   6.240   7.158  0.2170  0.2052  0.6658
  134MOL    H1321559   3.293   6.142   0.083 -0.9999 -1.3641  1.2274
  134MOL    H1421560   3.405   6.021   0.135  1.4776 -1.8715 -0.8888
  134MOL    H1521561   3.483   6.038   7.150 -1.1575  1.0510 -1.9989
  134MOL    H1621562   3.374   6.209   7.075  1.0066 -1.5354  0.8233
  134MOL    H1721563   3.504   6.284   7.119 -0.6042  0.4539 -0.7974
  134MOL    C1821564   3.596   6.138   0.027  1.1069  0.6130 -0.3327
  134MOL    C1921565   3.659   5.997   0.073  0.5904  0.4588 -0.3775
  134MOL    N2021566   3.697   5.922   7.229  0.3372  0.0448  0.2221
  134MOL    H2121567   3.668   6.179   7.232  0.4098  2.6369  0.1154
  134MOL    H2221568   3.587   6.204   0.113 -0.8119 -1.1575  0.9024
  134MOL    H2321569   3.589   5.937   0.132  0.4471  0.5139 -0.4907
  134MOL    H2421570   3.745   5.838   7.258 -0.6802 -0.3872  0.6491
  134MOL    H2521571   3.611   5.893   7.186  0.4951  0.1439 -0.1627
  134MOL    C2621572   3.789   6.018   0.153  0.4402 -0.2511 -0.2852
  134MOL    C2721573   3.778   6.052   0.305 -0.3925  0.4139  0.3303
  134MOL    N2821574   3.732   5.934   0.378 -0.2433 -0.2566 -0.5821
  134MOL    H2921575   3.850   5.929   0.148  3.3388  1.6314  0.3509
  134MOL    H3021576   3.854   6.092   0.107  0.4457  0.8505  1.4343
  134MOL    H3121577   3.702   6.130   0.311 -0.1806  0.8816 -2.2056
  134MOL    H3221578   3.798   5.859   0.388  0.0508  0.3494  2.6280
  134MOL    H3321579   3.725   5.962   0.475  3.6271 -0.8489 -0.0745
  134MOL    C3421580   3.908   6.115   0.351  0.7935 -0.6330  0.7969
  134MOL    C3521581   3.932   6.256   0.289 -0.4021  0.0683  0.4185
  134MOL    N3621582   3.868   6.359   0.378  0.1320 -0.1771  0.2649
  134MOL    H3721583   3.916   6.113   0.460 -3.6194 -0.5756  1.2293
  134MOL    H3821584   3.982   6.044   0.314  1.5958 -0.1679  1.4798
  134MOL    H3921585   3.872   6.271   0.200 -0.0600 -1.9757 -0.1599
  134MOL    H4021586   3.915   6.447   0.362  1.7676 -0.6866  2.0746
  134MOL    H4121587   3.909   6.353   0.470  1.4604 -0.5346 -0.3317
  134MOL    C4221588   4.076   6.286   0.269 -0.6450 -0.4349 -0.3906
  134MOL    C4321589   4.107   6.361   0.138  0.1817 -0.6682  0.3058
  134MOL    N4421590   4.246   6.408   0.147 -0.0580  0.0515  0.1025
  134MOL    H4521591   4.112   6.345   0.354 -0.3513 -2.6534  1.0532
  134MOL    H4621592   4.151   6.207   0.273  1.3838  1.4385 -0.2473
  134MOL    H4721593   4.042   6.449   0.143  1.5883  0.3362  1.4616
  134MOL    H4821594   4.313   6.334   0.131 -1.1933 -0.5008 -2.4262
  134MOL    H4921595   4.271   6.443   0.238 -0.0697 -0.2294  0.2138
  134MOL    C5021596   4.101   6.273   0.006  0.2514 -0.1814 -0.1247
  134MOL    C5121597   4.055   6.347   7.157 -0.1739  0.2377 -0.3692
  134MOL    N5221598   4.106   6.287   7.033  0.0117 -0.6341 -0.7690
  134MOL    H5321599   4.200   6.235   7.257  0.6143  0.9905 -0.4883
  134MOL    H5421600   4.034   6.192   0.033 -1.0113  0.7520 -0.4287
  134MOL    H5521601   4.110   6.440   7.168  0.1108 -0.1791  1.9373
  134MOL    H5621602   4.199   6.246   7.033 -0.5090 -1.8374  0.7855
  134MOL    H5721603   4.053   6.202   7.020 -1.5242 -0.0373  1.3088
  134MOL    C5821604   3.904   6.358   7.141  0.5622  0.7714 -0.0763
  134MOL    C5921605   3.853   6.454   7.037 -0.2848 -0.5443  0.0605
  134MOL    N6021606   3.729   6.395   6.989 -0.2840  0.1446 -0.2048
  134MOL    H6121607   3.857   6.259   7.137 -0.3847  1.2531 -0.9696
  134MOL    H6221608   3.864   6.407   7.230 -1.0954  0.3182 -0.5580
  134MOL    H6321609   3.933   6.470   6.965 -0.9498  2.8035 -0.0292
  134MOL    H6421610   3.701   6.440   6.903 -0.2937 -0.1308 -0.3448
  134MOL    H6521611   3.761   6.302   6.965  2.4022  1.4593 -1.9244
  134MOL    C6621612   3.813   6.595   7.099  1.1153 -0.2303 -0.2888
  134MOL    C6721613   3.784   6.707   6.998  0.4451 -0.2805 -0.4808
  134MOL    N6821614   3.702   6.809   7.058  0.3046  0.6098  0.0317
  134MOL    H6921615   3.728   6.571   7.163  0.3714 -0.7061 -1.4180
  134MOL    H7021616   3.889   6.636   7.165  0.3660 -0.5979  0.8191
  134MOL    H7121617   3.726   6.670   6.914 -1.6386  1.7582 -0.0192
  134MOL    H7221618   3.655   6.867   6.991 -2.2828 -0.7227  0.6270
  134MOL    H7321619   3.617   6.786   7.108  0.5584  0.4279  0.3820
  134MOL    C7421620   3.917   6.770   6.949 -0.5161 -0.5942 -0.1443
  134MOL    C7521621   3.898   6.895   6.854  0.4812  0.5305 -0.6189
  134MOL    N7621622   4.027   6.938   6.815  0.2420 -0.1837  0.0235
  134MOL    H7721623   3.967   6.807   7.038  0.8926  0.2262 -1.2454
  134MOL    H7821624   3.980   6.698   6.896 -0.6818 -0.4175 -0.5862
  134MOL    H7921625   3.853   6.975   6.914 -0.1321  0.2121 -0.6536
  134MOL    H8021626   4.002   7.019   6.759 -0.3647  1.2097  2.2479
  134MOL    H8121627   4.071   6.986   6.892 -1.3951 -0.5022  1.1916
  134MOL    C8221628   3.818   6.869   6.723 -0.5736 -0.6391  0.0340
  134MOL    C8321629   3.691   6.956   6.729 -0.2170 -0.2214  0.1821
  134MOL    N8421630   3.727   7.098   6.723  0.1506 -0.1235  0.4995
  134MOL    H8521631   3.859   6.891   6.625  1.3218 -1.6624  0.5827
  134MOL    H8621632   3.789   6.764   6.710 -0.1137 -0.5897 -1.4181
  134MOL    H8721633   3.641   6.945   6.825 -1.1410  0.3416 -0.2323
  134MOL    H8821634   3.643   7.152   6.708  1.1227  1.1530 -0.4995
  134MOL    H8921635   3.794   7.118   6.649  1.0642 -1.2808  0.9891
  134MOL    C9021636   3.592   6.932   6.607  0.6901  1.0633  0.3109
  134MOL    C9121637   3.448   6.982   6.629 -0.6422  0.3237 -0.5179
  134MOL    N9221638   3.392   7.038   6.514  0.5775  0.0750  0.6350
  134MOL    H9321639   3.637   6.967   6.514  0.1404  1.5479  0.2209
  134MOL    H9421640   3.578   6.826   6.586 -1.8489  1.4578 -0.1546
  134MOL    H9521641   3.451   7.062   6.703 -0.6857 -0.0073 -0.1490
  134MOL    H9621642   3.448   7.122   6.507  1.2028 -0.0551  3.3033
  134MOL    H9721643   3.298   7.069   6.531 -0.1315 -0.0099 -2.9022
  134MOL    C9821644   3.351   6.877   6.686 -0.0438  0.1064 -0.4252
  134MOL    C9921645   3.395   6.813   6.820 -0.1446  0.3580 -0.1790
  134MOL   N10021646   3.386   6.913   6.926  0.4664 -0.4484 -0.2285
  134MOL   H10121647   3.248   6.913   6.693 -0.0926 -0.3117  1.3613
  134MOL   H10221648   3.345   6.794   6.617 -0.1914 -1.4010  1.3566
  134MOL   H10321649   3.498   6.776   6.825  0.6844  2.6869  0.9226
  134MOL   H10421650   3.450   6.991   6.914 -0.3021  0.0500 -1.2309
  134MOL   H10521651   3.412   6.872   7.014  1.2842  1.0096  0.2208
  134MOL   C10621652   3.310   6.697   6.871  0.1324  0.0720 -0.1888
  134MOL   C10721653   3.381   6.565   6.904 -0.5250 -0.1794  0.1937
  134MOL   N10821654   3.295   6.507   7.003 -0.4012 -0.7722 -0.2178
  134MOL   H10921655   3.234   6.734   6.940 -0.5483  1.8313 -1.8303
  134MOL   H11021656   3.244   6.665   6.791 -1.7627  1.0230  0.9506
  134MOL   H11121657   3.481   6.588   6.939 -1.3399  2.0490  1.1601
  134MOL   H11221658   3.225   6.449   6.959  0.1852 -1.1194 -0.7010
  134MOL   H11321659   3.349   6.434   7.048  0.6780 -0.2551 -0.6625
  134MOL   C11421660   3.393   6.462   6.789 -0.7218  1.1069  0.7453
  134MOL   C11521661   3.504   6.482   6.676 -0.0517 -0.7658  0.0926
  134MOL   N11621662   3.634   6.477   6.727 -0.4568 -0.0508 -0.0668
  134MOL   H11721663   3.403   6.364   6.836  0.7809  1.4388  1.1420
  134MOL   H11821664   3.298   6.446   6.737  0.1107 -0.1458 -0.4133
  134MOL   H11921665   3.476   6.581   6.642 -0.8426 -1.4033 -1.1384
  134MOL   H12021666   3.693   6.510   6.652  0.2010  1.5745  1.1389
  134MOL   H12121667   3.670   6.386   6.753  0.7973  0.3497 -0.3634
  134MOL   C12221668   3.494   6.393   6.551 -1.1882 -0.0766 -0.3635
  134MOL   C12321669   3.430   6.461   6.435 -0.4165 -0.3313  0.0425
  134MOL   N12421670   3.426   6.360   6.326 -0.1664 -0.1447 -0.5062
  134MOL   H12521671   3.594   6.368   6.515 -0.8107  0.2594  0.4312
  134MOL   H12621672   3.454   6.297   6.583  0.7481 -0.6655  0.4164
  134MOL   H12721673   3.482   6.551   6.402 -2.4843  1.2964  1.0555
  134MOL   H12821674   3.374   6.399   6.248 -0.0666 -2.3511 -1.7291
  134MOL   H12921675   3.519   6.369   6.288  0.9057  1.5391  2.4000
  134MOL   C13021676   3.274   6.502   6.459 -0.6332 -0.3772  0.1130
  134MOL   C13121677   3.206   6.585   6.352  0.3745 -0.4163 -0.7569
  134MOL   N13221678   3.064   6.591   6.386 -0.6933 -0.2785  0.3803
  134MOL   H13321679   3.218   6.412   6.481  2.7844 -2.5617  0.2160
  134MOL   H13421680   3.268   6.565   6.547  0.4961  0.9722 -0.7431
  134MOL   H13521681   3.213   6.531   6.257  1.5359  0.7217 -1.3266
  134MOL   H13621682   3.003   6.642   6.323  0.5199  3.1473  1.8584
  134MOL   H13721683   3.052   6.631   6.478  0.4886  0.4350  0.2386
  134MOL   C13821684   3.252   6.736   6.345 -0.2843  0.9115 -0.4256
  134MOL   C13921685   3.204   6.810   6.211 -0.4001 -0.1100 -0.6814
  134MOL   N14021686   3.205   6.955   6.231 -0.1202 -0.8271 -0.2455
  134MOL   H14121687   3.216   6.793   6.430  1.9464 -0.6084  1.5960
  134MOL   H14221688   3.360   6.749   6.351 -0.1055  0.1113 -1.5969
  134MOL   H14321689   3.102   6.784   6.182 -0.3994 -2.8101  1.4845
  134MOL   H14421690   3.300   6.989   6.227 -0.7783  0.9708 -1.2963
  134MOL   H14521691   3.165   6.984   6.320 -0.1379  1.2187 -0.8991
  134MOL   C14621692   3.284   6.761   6.096 -0.2614  0.8347  0.0942
  134MOL   C14721693   3.244   6.809   5.950 -0.5515 -1.0577  0.8814
  134MOL   N14821694   3.361   6.804   5.870 -0.1760 -0.3279 -0.3821
  134MOL   H14921695   3.389   6.781   6.115  0.0225  0.8676 -1.4338
  134MOL   H15021696   3.283   6.652   6.100 -0.5884  0.8844  2.1021
  134MOL   H15121697   3.218   6.914   5.953 -1.8669 -1.2398 -2.0310
  134MOL   H15221698   3.351   6.709   5.837 -1.2012  0.2700 -1.8616
  134MOL   H15321699   3.347   6.856   5.784 -0.6927 -2.2377 -1.4957
  134MOL   C15421700   3.127   6.738   5.877 -0.1389 -0.0759 -0.2528
  134MOL   C15521701   3.085   6.814   5.751  0.5682  0.2402 -0.3879
  134MOL   N15621702   2.964   6.749   5.706  0.1515 -0.0671  0.1501
  134MOL   H15721703   3.142   6.635   5.844  0.7794 -0.0902  0.1958
  134MOL   H15821704   3.042   6.741   5.946 -0.1914 -1.7405 -0.2204
  134MOL   H15921705   3.163   6.820   5.675  0.7111 -0.8450 -0.3339
  134MOL   H16021706   2.992   6.654   5.685  1.2457  0.4458 -0.7916
  134MOL   H16121707   2.926   6.790   5.622 -3.6310  1.3967  2.4672
  134MOL   H16221708   3.073   6.921   5.768  0.0210  0.0367  0.5418
  135MOL     C121709   0.781   2.250   0.655  0.2612  0.3362  0.9006
  135MOL     C221710   0.671   2.308   0.564 -0.5618  0.3146  0.6133
  135MOL     N321711   0.717   2.280   0.429 -0.3740 -0.2612  0.5152
  135MOL     H421712   0.786   2.142   0.644  1.3261  0.6371 -1.7686
  135MOL     H521713   0.769   2.279   0.760 -0.9027 -2.4038  1.5564
  135MOL     H621714   0.659   2.414   0.585  0.3327  0.3830  0.8166
  135MOL     H721715   0.658   2.322   0.359 -1.3638 -2.5316 -0.0784
  135MOL     H821716   0.715   2.181   0.409  1.0364 -0.2318  0.2064
  135MOL     H921717   0.881   2.285   0.630  0.8139 -3.4243 -2.6044
  135MOL    C1021718   0.537   2.241   0.591  1.0304 -0.0598  0.1106
  135MOL    C1121719   0.414   2.322   0.569 -0.1250  0.6652  0.4990
  135MOL    N1221720   0.322   2.247   0.490  0.9896  0.3459  0.1921
  135MOL    H1321721   0.536   2.143   0.543  2.0471 -0.8231  1.6019
  135MOL    H1421722   0.539   2.220   0.698 -1.6926  1.8104  0.5775
  135MOL    H1521723   0.432   2.413   0.512 -0.5715  0.0095 -0.7027
  135MOL    H1621724   0.232   2.275   0.525 -0.1064 -1.1026 -1.3772
  135MOL    H1721725   0.332   2.280   0.395 -1.4966  0.7141  0.0188
  135MOL    C1821726   0.330   2.356   0.696 -0.3320 -0.6455 -0.7937
  135MOL    C1921727   0.397   2.447   0.794 -0.1314  0.5025 -0.2123
  135MOL    N2021728   0.359   2.584   0.766  0.1391 -1.0154 -0.0027
  135MOL    H2121729   0.247   2.416   0.659  0.2831  0.7473  0.0421
  135MOL    H2221730   0.281   2.268   0.737  0.8698 -0.1239  1.8724
  135MOL    H2321731   0.505   2.444   0.798 -0.1693  0.6803  1.8390
  135MOL    H2421732   0.414   2.640   0.829 -0.2552  0.5568 -1.0252
  135MOL    H2521733   0.407   2.618   0.684  1.1725  1.4961  1.6123
  135MOL    C2621734   0.335   2.417   0.938 -0.1283 -0.4397  0.1345
  135MOL    C2721735   0.389   2.291   1.006 -0.8870  0.1950 -0.0029
  135MOL    N2821736   0.530   2.320   1.022 -0.0738  0.1019 -0.4758
  135MOL    H2921737   0.343   2.500   1.008  0.5482 -0.0640 -0.3857
  135MOL    H3021738   0.227   2.413   0.929 -0.2954  3.5705 -0.6946
  135MOL    H3121739   0.368   2.204   0.944 -0.3126  0.8073 -1.0703
  135MOL    H3221740   0.547   2.382   1.100  0.8750 -1.2190  0.4018
  135MOL    H3321741   0.567   2.239   1.069  0.4214  0.7912  0.3456
  135MOL    C3421742   0.338   2.267   1.149  0.4589 -0.0182 -0.3457
  135MOL    C3521743   0.350   2.129   1.202  0.5445  0.1309 -0.0695
  135MOL    N3621744   0.379   2.130   1.347 -0.2433 -0.2922 -0.6479
  135MOL    H3721745   0.374   2.342   1.219 -1.4160  0.6648 -0.0877
  135MOL    H3821746   0.235   2.301   1.156  1.0143  1.2830  2.0663
  135MOL    H3921747   0.434   2.084   1.149  1.7472  1.0586  1.0130
  135MOL    H4021748   0.459   2.192   1.355 -0.8188  0.2425  1.0481
  135MOL    H4121749   0.413   2.042   1.382  1.4557  0.3702 -0.6081
  135MOL    C4221750   0.230   2.031   1.182  0.2472 -0.5468 -0.3786
  135MOL    C4321751   0.187   1.994   1.037 -0.1542 -0.4536  0.2046
  135MOL    N4421752   0.286   1.926   0.962 -0.0647 -0.0630  1.1801
  135MOL    H4521753   0.259   1.944   1.240  0.9959  0.7255  1.1690
  135MOL    H4621754   0.140   2.065   1.233  0.7899  0.3474 -0.0184
  135MOL    H4721755   0.163   2.087   0.984  0.7381 -0.2640  0.1190
  135MOL    H4821756   0.249   1.922   0.868  2.2347  2.0035  0.1321
  135MOL    H4921757   0.371   1.980   0.960  0.3321 -0.7074  0.1577
  135MOL    C5021758   0.057   1.920   1.023 -0.0157 -0.1177 -0.4201
  135MOL    C5121759   7.212   2.000   1.068 -0.0864 -0.3669 -0.3578
  135MOL    N5221760   7.107   1.974   0.973  0.2081 -0.3499 -0.1870
  135MOL    H5321761   0.043   1.907   0.915  1.1532  1.1291 -0.7302
  135MOL    H5421762   0.061   1.819   1.065  0.5384 -0.3219 -0.9467
  135MOL    H5521763   7.216   2.109   1.068  2.1472 -0.3934 -3.4569
  135MOL    H5621764   7.125   1.899   0.909  1.4345 -0.4448  0.2379
  135MOL    H5721765   7.105   2.052   0.909 -0.7067  0.8732  1.2608
  135MOL    C5821766   7.152   1.940   1.199  0.0931  0.0611  0.3074
  135MOL    C5921767   7.087   2.053   1.291 -0.3274 -0.0729 -0.3179
  135MOL    N6021768   6.990   2.133   1.218 -0.4840  0.6830 -0.0696
  135MOL    H6121769   7.073   1.871   1.168 -2.1005  2.5492  0.1840
  135MOL    H6221770   7.223   1.881   1.256 -1.0391 -1.1909  0.4409
  135MOL    H6321771   7.147   2.139   1.321 -2.2629  0.6874  1.5019
  135MOL    H6421772   7.052   2.192   1.165  0.3115 -0.7980 -0.8325
  135MOL    H6521773   6.941   2.076   1.150  1.1398 -0.8010 -0.0321
  135MOL    C6621774   7.010   2.007   1.418  0.2842  0.1847 -0.1313
  135MOL    C6721775   7.090   1.945   1.528  0.2108 -0.3762 -0.0417
  135MOL    N6821776   7.141   2.063   1.601  0.2137 -0.0064 -0.3336
  135MOL    H6921777   6.947   2.082   1.465 -1.1267 -1.0789  0.0319
  135MOL    H7021778   6.939   1.933   1.381  0.4670 -0.3486  0.5766
  135MOL    H7121779   7.179   1.902   1.482  0.9316 -0.3484  1.3009
  135MOL    H7221780   7.238   2.042   1.623 -0.2151 -0.7439  0.8963
  135MOL    H7321781   7.153   2.138   1.534  2.8129 -0.1644 -0.1137
  135MOL    C7421782   7.018   1.848   1.618 -0.2500  1.2568  0.0509
  135MOL    C7521783   6.974   1.716   1.550  0.5724  0.2823 -0.8410
  135MOL    N7621784   7.088   1.640   1.506 -0.5126  0.7645 -0.4769
  135MOL    H7721785   7.091   1.827   1.697  1.4269  0.8892 -1.5614
  135MOL    H7821786   6.923   1.890   1.652  0.3309  1.8446  0.9536
  135MOL    H7921787   6.916   1.748   1.464  2.0995  1.6653 -1.3809
  135MOL    H8021788   7.101   1.564   1.572 -0.9879 -0.1107 -1.3838
  135MOL    H8121789   7.176   1.689   1.503  0.4912 -0.8241  1.7932
  135MOL    C8221790   6.869   1.645   1.635  0.3106 -0.3237  0.4138
  135MOL    C8321791   6.714   1.698   1.612 -0.3122  0.4763 -0.1854
  135MOL    N8421792   6.656   1.643   1.495  0.0996  0.6055  0.4008
  135MOL    H8521793   6.863   1.537   1.618  0.2095 -0.2043 -0.2914
  135MOL    H8621794   6.906   1.662   1.737  0.0465 -0.3519  0.5136
  135MOL    H8721795   6.713   1.805   1.591  0.1561  0.7185  0.9465
  135MOL    H8821796   6.715   1.635   1.413  0.6426  1.0798  0.7448
  135MOL    H8921797   6.590   1.715   1.472  0.3261  1.1067  1.3196
  135MOL    C9021798   6.623   1.670   1.738 -0.5950 -0.1546  0.3471
  135MOL    C9121799   6.679   1.731   1.873 -0.5855 -0.0333  0.3303
  135MOL    N9221800   6.595   1.845   1.910 -0.2672  0.2705  0.3702
  135MOL    H9321801   6.520   1.696   1.716 -0.7479 -0.8884  0.1929
  135MOL    H9421802   6.606   1.564   1.752 -0.0803 -0.1654  0.9033
  135MOL    H9521803   6.776   1.773   1.846  0.6282 -1.1123  2.8687
  135MOL    H9621804   6.635   1.922   1.859  0.9831 -0.8504 -0.4057
  135MOL    H9721805   6.607   1.871   2.007  2.0750 -0.8634  0.4303
  135MOL    C9821806   6.680   1.640   1.996 -0.6316  0.1806  0.2758
  135MOL    C9921807   6.803   1.541   1.990 -0.2110 -0.1361  0.1750
  135MOL   N10021808   6.907   1.616   2.041  0.1324  0.2004 -0.3170
  135MOL   H10121809   6.676   1.694   2.091  4.2681 -0.3814  0.8998
  135MOL   H10221810   6.588   1.581   1.999 -0.0246 -0.6998  2.5444
  135MOL   H10321811   6.820   1.514   1.886  1.6855  3.5819 -0.5559
  135MOL   H10421812   6.988   1.556   2.032  1.0852  1.6761 -2.0365
  135MOL   H10521813   6.902   1.629   2.140  2.5560  0.6373 -0.2095
  135MOL   C10621814   6.786   1.411   2.073 -0.4981  0.2545 -0.8205
  135MOL   C10721815   6.679   1.309   2.027  0.0414  0.0007 -0.2912
  135MOL   N10821816   6.689   1.270   1.888 -0.4795  0.0689  0.3814
  135MOL   H10921817   6.882   1.360   2.074 -1.1819 -1.0737 -1.2963
  135MOL   H11021818   6.768   1.441   2.177  0.7859 -0.7794 -0.2849
  135MOL   H11121819   6.582   1.358   2.035  0.0330 -0.0304 -0.1968
  135MOL   H11221820   6.772   1.221   1.857 -2.3115 -0.2502 -4.4480
  135MOL   H11321821   6.685   1.348   1.824 -1.8150  0.2732  0.6891
  135MOL   C11421822   6.675   1.188   2.117 -0.8357  0.4040  0.3539
  135MOL   C11521823   6.598   1.213   2.250  0.4139  0.4409  0.1364
  135MOL   N11621824   6.470   1.142   2.239  0.4290 -0.1020 -0.0536
  135MOL   H11721825   6.638   1.099   2.066 -0.4791  0.5995 -0.2561
  135MOL   H11821826   6.778   1.156   2.133 -0.8897 -0.8290 -1.6044
  135MOL   H11921827   6.572   1.319   2.255 -0.1912  0.2335  1.6795
  135MOL   H12021828   6.423   1.147   2.149  0.7391 -2.0946 -0.3476
  135MOL   H12121829   6.402   1.191   2.295  0.0704 -0.2651 -0.3407
  135MOL   C12221830   6.661   1.157   2.375  0.5181 -0.2066 -0.0773
  135MOL   C12321831   6.794   1.226   2.423 -0.2924 -0.3834 -1.2649
  135MOL   N12421832   6.761   1.293   2.545  0.2579  0.3768  0.8923
  135MOL   H12521833   6.586   1.156   2.455  0.4715  1.5076 -0.0796
  135MOL   H12621834   6.678   1.053   2.348 -2.8450 -1.0648  0.7799
  135MOL   H12721835   6.839   1.298   2.355  0.7442 -0.0478 -0.2475
  135MOL   H12821836   6.847   1.330   2.584  0.3827 -0.5884  1.5695
  135MOL   H12921837   6.706   1.375   2.526  0.1544  0.2608  0.6930
  135MOL   C13021838   6.911   1.131   2.456 -0.2751  0.0887  0.0068
  135MOL   C13121839   6.999   1.084   2.337 -0.1015  0.2619 -0.6337
  135MOL   N13221840   7.065   1.202   2.284  0.4004  0.0747  0.0834
  135MOL   H13321841   6.984   1.169   2.527 -0.0543  0.0272 -0.1891
  135MOL   H13421842   6.857   1.046   2.499 -0.6405  0.3228  0.0099
  135MOL   H13521843   6.941   1.038   2.257 -1.3679  0.0866  0.3649
  135MOL   H13621844   7.001   1.225   2.209  1.0833 -1.0450 -0.8621
  135MOL   H13721845   7.162   1.189   2.257 -0.5097  0.3741 -3.6414
  135MOL   C13821846   7.110   0.990   2.388 -0.6335 -0.9146  0.0259
  135MOL   C13921847   7.067   0.866   2.472 -0.0866  0.1653  0.3712
  135MOL   N14021848   7.166   0.763   2.447  0.2146 -0.7055  0.4731
  135MOL   H14121849   7.173   0.961   2.303 -0.1347 -1.6373  0.6315
  135MOL   H14221850   7.181   1.053   2.442 -1.0152 -1.3960  1.0933
  135MOL   H14321851   6.970   0.827   2.443 -1.1883  2.9066  0.1538
  135MOL   H14421852   7.261   0.797   2.453  0.0791  0.0404 -1.4235
  135MOL   H14521853   7.164   0.690   2.517  3.0048  0.3813  1.7909
  135MOL   C14621854   7.074   0.896   2.626  0.1920  0.0892 -0.2339
  135MOL   C14721855   7.046   0.778   2.725  0.1582 -0.1052  0.3759
  135MOL   N14821856   7.132   0.799   2.841  0.2471  0.2364  0.1566
  135MOL   H14921857   7.176   0.929   2.645  0.0808  0.2367  0.1096
  135MOL   H15021858   7.003   0.977   2.643 -0.7993 -0.6824 -0.6838
  135MOL   H15121859   7.085   0.681   2.695  1.0636  0.4450 -0.2583
  135MOL   H15221860   7.096   0.883   2.886 -1.6489 -0.8146  0.6466
  135MOL   H15321861   7.227   0.820   2.814  0.4892  0.9562  1.4750
  135MOL   C15421862   6.892   0.774   2.772  0.1764  0.0326 -0.2472
  135MOL   C15521863   6.788   0.760   2.658 -0.0697 -0.1072  0.2555
  135MOL   N15621864   6.653   0.772   2.697 -0.1518 -0.3044 -0.3029
  135MOL   H15721865   6.890   0.682   2.830  2.6298 -0.7329 -1.2982
  135MOL   H15821866   6.874   0.858   2.839  1.7729 -1.2995  1.9201
  135MOL   H15921867   6.799   0.662   2.611 -0.9807 -0.5617  0.9581
  135MOL   H16021868   6.582   0.744   2.631 -0.4199 -1.3372  0.4059
  135MOL   H16121869   6.648   0.702   2.770  0.4454  0.7125  0.7367
  135MOL   H16221870   6.805   0.834   2.580  0.6186  0.1355  0.6341
  136MOL     C121871   7.062   5.953   3.015  0.4005  0.2257 -0.7382
  136MOL     C221872   6.937   6.020   3.071 -0.3158 -0.1313  0.1440
  136MOL     N321873   6.887   6.080   2.954  0.3970 -0.3504  0.3088
  136MOL     H421874   7.133   6.009   2.953  1.6112  0.6198  0.9531
  136MOL     H521875   7.050   5.851   2.978  0.7934 -0.9429  2.2041
  136MOL     H621876   6.944   6.105   3.139 -2.8115  1.0939 -1.0686
  136MOL     H721877   6.819   6.149   2.982  3.7550  3.1071  0.2546
  136MOL     H821878   6.954   6.150   2.925 -0.1394 -0.4907 -1.3158
  136MOL     H921879   7.128   5.940   3.101  0.4676 -0.0805 -0.8352
  136MOL    C1021880   6.830   5.925   3.127  0.1251 -0.4588 -0.8754
  136MOL    C1121881   6.831   5.897   3.281  0.6254 -0.6813 -0.4436
  136MOL    N1221882   6.701   5.899   3.336  0.7465 -0.9885 -0.2516
  136MOL    H1321883   6.738   5.980   3.111 -0.3052 -0.9790 -0.2166
  136MOL    H1421884   6.813   5.834   3.070 -1.1040  0.0426 -1.3132
  136MOL    H1521885   6.890   5.978   3.325  0.8448 -0.5497 -0.9744
  136MOL    H1621886   6.667   5.980   3.287 -1.1250 -1.6302 -0.0888
  136MOL    H1721887   6.716   5.924   3.433 -0.0080  2.2351 -0.9171
  136MOL    C1821888   6.896   5.765   3.319 -0.1845 -0.5409 -0.5571
  136MOL    C1921889   6.940   5.737   3.466 -0.5948  0.1056  0.0353
  136MOL    N2021890   7.003   5.604   3.476 -0.0016 -0.5086  0.2750
  136MOL    H2121891   6.813   5.698   3.297  0.1439 -2.3224  3.2406
  136MOL    H2221892   6.982   5.761   3.252  2.0168  1.8619  1.9887
  136MOL    H2321893   6.854   5.736   3.534 -1.0358  3.8998 -0.3406
  136MOL    H2421894   6.986   5.573   3.571 -0.0551 -0.0647  0.4170
  136MOL    H2521895   6.947   5.540   3.423  1.9882 -0.6290 -1.7256
  136MOL    C2621896   7.046   5.847   3.510  0.3393  0.8552 -0.0217
  136MOL    C2721897   6.992   5.967   3.596  0.2412  1.0011 -0.4935
  136MOL    N2821898   6.978   5.915   3.727  0.1603 -0.4456  0.4212
  136MOL    H2921899   7.137   5.807   3.554 -0.4636  0.4333  1.2680
  136MOL    H3021900   7.090   5.901   3.426  1.5813  1.0275  0.7230
  136MOL    H3121901   6.893   5.997   3.561  0.2001  0.2031 -1.0924
  136MOL    H3221902   7.008   5.983   3.795  1.3918 -1.7395  1.2122
  136MOL    H3321903   6.878   5.902   3.737  0.2592 -0.0139  2.0844
  136MOL    C3421904   7.082   6.083   3.599 -0.5492  0.0865  0.0557
  136MOL    C3521905   7.081   6.177   3.469 -0.4117  0.3496 -0.8497
  136MOL    N3621906   7.000   6.289   3.505 -0.1606  0.3568 -0.4279
  136MOL    H3721907   7.064   6.151   3.683  0.7262 -0.6104  0.9142
  136MOL    H3821908   7.177   6.032   3.615 -0.9635 -0.1316  1.9769
  136MOL    H3921909   7.034   6.131   3.382 -2.1053 -1.4105  0.9632
  136MOL    H4021910   6.901   6.281   3.491 -0.0856  0.0802 -0.8083
  136MOL    H4121911   7.031   6.320   3.597  1.4175  0.4604 -0.9700
  136MOL    C4221912   7.229   6.223   3.434 -0.0681  0.6427  0.0808
  136MOL    C4321913   0.038   6.118   3.351  0.4923 -0.1114 -0.7054
  136MOL    N4421914   0.034   6.156   3.212  0.2041  0.2884  0.2224
  136MOL    H4521915   7.228   6.320   3.383 -0.7328  0.0626 -1.0167
  136MOL    H4621916   0.009   6.241   3.526 -0.1804 -0.6573  0.4075
  136MOL    H4721917   7.260   6.025   3.369 -0.2495  0.3939 -0.2650
  136MOL    H4821918   7.220   6.134   3.170  1.1599 -0.0260 -1.6880
  136MOL    H4921919   0.096   6.097   3.160  2.1114  1.8425  0.6735
  136MOL    C5021920   0.187   6.101   3.393  0.5052  0.0950  0.1649
  136MOL    C5121921   0.245   5.959   3.359 -0.2676 -0.8590 -0.1137
  136MOL    N5221922   0.391   5.947   3.395  0.7350 -0.2989 -0.5337
  136MOL    H5321923   0.257   6.171   3.348  1.3882 -1.5935 -1.1465
  136MOL    H5421924   0.191   6.120   3.500  1.4606 -1.7070  0.4623
  136MOL    H5521925   0.231   5.943   3.252  0.4610 -2.0801 -0.0348
  136MOL    H5621926   0.403   5.956   3.494 -0.4042  0.8869 -0.4937
  136MOL    H5721927   0.426   5.855   3.374 -1.2996 -0.6096 -2.8137
  136MOL    C5821928   0.181   5.841   3.433 -0.3383  0.4158  0.0236
  136MOL    C5921929   0.153   5.715   3.357  0.0456  0.1093 -0.0368
  136MOL    N6021930   0.119   5.605   3.443 -0.1489  0.7486  0.0207
  136MOL    H6121931   0.248   5.820   3.517 -2.5303  0.3919  1.8064
  136MOL    H6221932   0.090   5.867   3.487  0.7210 -0.9362  2.5500
  136MOL    H6321933   0.244   5.678   3.309 -0.1017 -3.2036  2.0956
  136MOL    H6421934   0.020   5.585   3.443  0.0718 -0.3711 -0.8542
  136MOL    H6521935   0.161   5.522   3.405  2.2095  1.8484  0.1568
  136MOL    C6621936   0.030   5.751   3.262  0.3560  0.3304 -0.1504
  136MOL    C6721937   0.051   5.664   3.137 -0.4210 -0.1799 -0.2022
  136MOL    N6821938   7.195   5.636   3.075  0.1148  0.2948  0.6561
  136MOL    H6921939   7.213   5.720   3.310  0.6228 -2.9850 -1.6410
  136MOL    H7021940   0.035   5.857   3.241 -1.0153  0.0981 -1.7049
  136MOL    H7121941   0.091   5.563   3.148 -2.6905 -0.9160  1.4342
  136MOL    H7221942   7.191   5.605   2.979  1.6350  1.4144  0.2095
  136MOL    H7321943   7.132   5.582   3.133  0.5819 -0.7734  0.1837
  136MOL    C7421944   0.137   5.740   3.041  0.1190 -0.0921  0.1022
  136MOL    C7521945   0.291   5.712   3.041  0.2471  0.1461  0.1401
  136MOL    N7621946   0.323   5.569   3.042  0.3221 -0.2535  0.3349
  136MOL    H7721947   0.101   5.728   2.939 -0.1331  0.4587  0.1253
  136MOL    H7821948   0.134   5.848   3.051 -0.8780 -0.1455  0.4511
  136MOL    H7921949   0.341   5.751   3.129  0.9879 -1.4096  0.4421
  136MOL    H8021950   0.300   5.531   2.951  2.4193  0.6660 -0.6128
  136MOL    H8121951   0.250   5.527   3.098 -1.9517  0.8782 -1.7014
  136MOL    C8221952   0.360   5.784   2.926 -0.0390  0.3355  0.1504
  136MOL    C8321953   0.512   5.804   2.939 -0.5309 -0.0035 -0.2683
  136MOL    N8421954   0.565   5.831   2.808  0.0432  0.7101  0.1304
  136MOL    H8521955   0.344   5.724   2.836  0.0218 -0.1096  0.4335
  136MOL    H8621956   0.312   5.881   2.921  1.1596  0.8433 -3.0079
  136MOL    H8721957   0.551   5.708   2.972  0.7598  0.9830  1.1151
  136MOL    H8821958   0.656   5.875   2.810  1.1580 -1.4930 -0.6287
  136MOL    H8921959   0.572   5.749   2.749 -1.7985 -0.9329  2.1059
  136MOL    C9021960   0.547   5.929   3.031 -0.4449 -0.9066  0.1495
  136MOL    C9121961   0.689   5.931   3.087 -0.3308 -0.0546 -0.3069
  136MOL    N9221962   0.708   6.066   3.139 -0.1645  0.0323  0.1137
  136MOL    H9321963   0.530   6.023   2.977 -0.1457 -0.5265  0.7202
  136MOL    H9421964   0.478   5.952   3.112 -2.1547  0.0346 -1.5267
  136MOL    H9521965   0.761   5.916   3.006 -1.6921 -0.0557 -1.5298
  136MOL    H9621966   0.672   6.119   3.062  1.0409  2.1860  0.9946
  136MOL    H9721967   0.806   6.086   3.152 -0.0213 -0.7037  0.2264
  136MOL    C9821968   0.715   5.827   3.199 -0.3947  1.1119  0.0891
  136MOL    C9921969   0.858   5.814   3.244 -0.1540  1.3193 -0.1501
  136MOL   N10021970   0.874   5.883   3.370 -0.0829  0.6759  0.1693
  136MOL   H10121971   0.646   5.829   3.284 -0.4822 -0.5729  0.0827
  136MOL   H10221972   0.677   5.740   3.145 -0.5792  1.7349 -0.8011
  136MOL   H10321973   0.924   5.868   3.176  0.5716  1.6395  0.7926
  136MOL   H10421974   0.837   5.974   3.349  0.9710  0.7990 -1.2361
  136MOL   H10521975   0.814   5.854   3.446  1.9618 -1.2045  1.1327
  136MOL   C10621976   0.907   5.665   3.251  0.2798  0.4806 -0.0017
  136MOL   C10721977   1.059   5.650   3.242  0.1216 -0.0356 -0.2764
  136MOL   N10821978   1.098   5.514   3.279  0.0274 -0.1068  0.1886
  136MOL   H10921979   0.868   5.612   3.337 -3.9127  0.0364 -2.0492
  136MOL   H11021980   0.869   5.608   3.166 -0.6756 -1.1238  1.4620
  136MOL   H11121981   1.099   5.719   3.316  1.1561 -0.5341 -0.3602
  136MOL   H11221982   1.095   5.447   3.204 -1.1525 -0.6670  0.7315
  136MOL   H11321983   1.045   5.469   3.352 -0.6061 -1.3689 -1.0379
  136MOL   C11421984   1.109   5.679   3.103 -0.3234 -0.1413 -0.3215
  136MOL   C11521985   1.249   5.746   3.090  0.1734  0.2599 -0.1475
  136MOL   N11621986   1.294   5.712   2.952 -0.7365 -0.3001 -0.3294
  136MOL   H11721987   1.100   5.587   3.046  3.3831 -0.0497 -1.1776
  136MOL   H11821988   1.045   5.747   3.048  0.3655  0.0093 -0.9441
  136MOL   H11921989   1.313   5.696   3.163 -2.5921 -2.3720  0.5711
  136MOL   H12021990   1.235   5.762   2.887 -1.2805  1.8071  1.7508
  136MOL   H12121991   1.389   5.722   2.920 -0.8335 -0.4713 -0.6787
  136MOL   C12221992   1.260   5.903   3.100 -0.0199  0.2760 -0.4200
  136MOL   C12321993   1.245   5.958   3.241  0.4246  0.5292 -0.3011
  136MOL   N12421994   1.360   5.923   3.318 -0.5201  0.3570 -0.0344
  136MOL   H12521995   1.358   5.930   3.061 -0.2049 -0.5664 -1.5201
  136MOL   H12621996   1.183   5.946   3.035  1.6587 -0.2389 -2.7968
  136MOL   H12721997   1.155   5.920   3.290  1.5494 -0.6901  0.8778
  136MOL   H12821998   1.339   5.948   3.413  3.1360  0.4245  0.8085
  136MOL   H12921999   1.373   5.823   3.311  0.8728  0.2042  3.8439
  136MOL   C13022000   1.231   6.116   3.256  0.0441  0.0590  0.5042
  136MOL   C13122001   1.100   6.174   3.197 -0.0321 -0.0179 -0.0850
  136MOL   N13222002   1.051   6.273   3.293  0.1501  0.1459  0.2749
  136MOL   H13322003   1.230   6.130   3.364 -0.5898 -1.3574  0.6960
  136MOL   H13422004   1.319   6.166   3.215  0.2340  1.3780  2.4304
  136MOL   H13522005   1.022   6.098   3.186  1.3582 -1.4354 -0.2721
  136MOL   H13622006   1.122   6.343   3.302  2.3358 -1.8572 -0.8155
  136MOL   H13722007   1.050   6.232   3.385  0.0561 -0.2598  0.0957
  136MOL   C13822008   1.113   6.246   3.060 -0.2065 -0.8209 -0.1236
  136MOL   C13922009   0.991   6.289   2.985  0.1029  0.4976 -0.3275
  136MOL   N14022010   0.971   6.428   3.006 -0.7413  0.2055  0.0148
  136MOL   H14122011   1.182   6.330   3.066 -1.6191  0.4355 -1.1802
  136MOL   H14222012   1.173   6.176   3.002  1.2393 -0.9249  1.4444
  136MOL   H14322013   0.905   6.247   3.039 -1.5127  2.3224 -1.4324
  136MOL   H14422014   0.976   6.441   3.106  1.8663  0.9635 -0.1827
  136MOL   H14522015   0.873   6.449   2.993 -0.6464  1.5654  1.3308
  136MOL   C14622016   0.975   6.240   2.836  0.1483 -0.1824  0.3016
  136MOL   C14722017   0.942   6.084   2.837  0.2063 -0.0732 -0.0704
  136MOL   N14822018   0.802   6.059   2.805  0.0163 -0.3121 -0.1645
  136MOL   H14922019   0.889   6.296   2.801  0.8104 -0.2428 -1.4936
  136MOL   H15022020   1.061   6.267   2.775 -0.8655 -0.0200 -1.0813
  136MOL   H15122021   0.972   6.036   2.931 -0.2020  2.1194  1.2235
  136MOL   H15222022   0.748   6.135   2.844 -0.7076 -0.8258 -0.1548
  136MOL   H15322023   0.789   6.060   2.705  1.2578  0.2692 -0.3295
  136MOL   C15422024   1.013   6.003   2.719 -0.3659 -0.0696  0.2833
  136MOL   C15522025   1.160   5.970   2.745  0.0736  0.6444  0.5756
  136MOL   N15622026   1.217   5.918   2.629 -0.7348  0.7137 -0.5039
  136MOL   H15722027   0.968   5.908   2.690 -2.0539  1.2383 -1.5637
  136MOL   H15822028   0.998   6.062   2.628  0.1883  1.6928  1.3069
  136MOL   H15922029   1.164   5.899   2.827  0.4903 -1.6923 -1.4018
  136MOL   H16022030   1.182   5.824   2.622 -3.7039  1.8191 -1.4083
  136MOL   H16122031   1.173   5.950   2.544  1.2694  0.8897 -1.4964
  136MOL   H16222032   1.219   6.058   2.771 -0.2430  1.3377 -0.9859
  137MOL     C122033   2.816   5.800   2.279 -0.8379  0.0615  0.4367
  137MOL     C222034   2.877   5.742   2.405  0.7530  0.3675 -0.2926
  137MOL     N322035   2.845   5.594   2.410  0.1090  0.4211  0.0885
  137MOL     H422036   2.844   5.757   2.183  2.6434  0.2037  1.3154
  137MOL     H522037   2.838   5.907   2.275  0.1386 -0.1393  0.2103
  137MOL     H622038   2.841   5.786   2.498  0.4998 -0.5899  0.0739
  137MOL     H722039   2.756   5.568   2.371  0.2612 -0.1847  0.1503
  137MOL     H822040   2.851   5.563   2.506 -1.1084  1.0806  0.3889
  137MOL     H922041   2.707   5.798   2.281 -0.8608 -0.3628 -1.0507
  137MOL    C1022042   3.037   5.749   2.410  0.2119 -0.0687 -0.0679
  137MOL    C1122043   3.090   5.894   2.438 -0.0922  0.2602 -0.1349
  137MOL    N1222044   3.047   5.938   2.571 -0.0387 -0.0597  0.3154
  137MOL    H1322045   3.077   5.684   2.488  0.4742 -0.7311 -0.7446
  137MOL    H1422046   3.081   5.714   2.316 -3.3921  1.7639 -2.5507
  137MOL    H1522047   3.062   5.967   2.362  0.6487 -1.2150 -1.8514
  137MOL    H1622048   3.079   6.029   2.599  0.6374  0.2431 -1.3695
  137MOL    H1722049   3.092   5.872   2.633 -1.6014 -2.4383 -0.9638
  137MOL    C1822050   3.240   5.904   2.435  0.1499 -0.3630  0.2372
  137MOL    C1922051   3.299   5.906   2.294  0.5335  0.2785 -0.0602
  137MOL    N2022052   3.282   6.041   2.243  0.2973 -0.4350 -0.4007
  137MOL    H2122053   3.269   5.991   2.495  2.0286 -0.3895 -0.5977
  137MOL    H2222054   3.282   5.822   2.493 -0.9909  0.7872  2.7581
  137MOL    H2322055   3.235   5.840   2.236  0.5573 -0.3336  0.5971
  137MOL    H2422056   3.352   6.070   2.177  1.4578 -2.4548 -0.1230
  137MOL    H2522057   3.198   6.034   2.187 -0.1011 -2.6169  0.4060
  137MOL    C2622058   3.450   5.868   2.285  0.8360  0.2433  0.1674
  137MOL    C2722059   3.484   5.723   2.261  0.1935 -0.4227 -0.0402
  137MOL    N2822060   3.616   5.728   2.201 -0.5011 -0.1020 -0.0752
  137MOL    H2922061   3.503   5.922   2.206 -1.2917  0.2482 -1.2856
  137MOL    H3022062   3.509   5.898   2.372 -0.5516  0.6605  0.9747
  137MOL    H3122063   3.416   5.695   2.181 -0.5775  0.4183  0.3195
  137MOL    H3222064   3.632   5.644   2.148  0.3148  1.6626 -2.7482
  137MOL    H3322065   3.623   5.802   2.132 -1.8298  0.3719  0.2683
  137MOL    C3422066   3.485   5.625   2.378  0.1637 -0.7491  0.5156
  137MOL    C3522067   3.354   5.547   2.386 -0.1163  0.1028  0.6413
  137MOL    N3622068   3.330   5.471   2.267 -0.2466 -0.5909 -0.2793
  137MOL    H3722069   3.567   5.554   2.377 -1.5712 -2.7884 -0.5525
  137MOL    H3822070   3.499   5.688   2.465  0.0760  0.7156 -0.5008
  137MOL    H3922071   3.277   5.624   2.386  1.4125  1.6674 -1.6753
  137MOL    H4022072   3.253   5.407   2.278  0.7011 -1.8573 -0.9845
  137MOL    H4122073   3.294   5.529   2.193 -0.9035 -3.0017 -1.8996
  137MOL    C4222074   3.353   5.440   2.508  0.1831  0.1211  0.3745
  137MOL    C4322075   3.346   5.512   2.647  0.0346 -0.5059 -0.3296
  137MOL    N4422076   3.211   5.571   2.676  0.4410 -0.2238  0.2660
  137MOL    H4522077   3.279   5.362   2.496 -0.1457  0.1882  1.8517
  137MOL    H4622078   3.446   5.383   2.510 -1.0156 -1.8952 -0.5327
  137MOL    H4722079   3.408   5.601   2.646 -0.6175 -0.0432 -0.0287
  137MOL    H4822080   3.168   5.541   2.590  0.6466 -2.3781  0.8768
  137MOL    H4922081   3.148   5.530   2.743  0.7861 -2.6147 -0.8269
  137MOL    C5022082   3.388   5.415   2.764  0.0867 -0.0047  0.8527
  137MOL    C5122083   3.410   5.482   2.909 -0.1028 -0.0104  0.1569
  137MOL    N5222084   3.456   5.379   3.001  0.0963 -0.3531 -0.0514
  137MOL    H5322085   3.322   5.328   2.760  1.5048 -1.1425  1.7656
  137MOL    H5422086   3.484   5.371   2.739  2.6961  3.5249  4.1364
  137MOL    H5522087   3.312   5.507   2.949 -0.4689 -0.3176 -0.5492
  137MOL    H5622088   3.378   5.314   3.010 -0.5992  0.5817  0.8936
  137MOL    H5722089   3.466   5.418   3.094  1.0991  1.3076 -0.8371
  137MOL    C5822090   3.522   5.589   2.923 -0.2477 -0.2229  0.4548
  137MOL    C5922091   3.553   5.651   3.056  0.5777 -0.3247  0.4442
  137MOL    N6022092   3.655   5.746   3.033 -0.5689 -0.0591  0.3419
  137MOL    H6122093   3.611   5.545   2.879 -1.1554 -1.8959  0.2396
  137MOL    H6222094   3.495   5.673   2.859  0.9550 -0.3581 -0.2385
  137MOL    H6322095   3.576   5.566   3.120 -0.1233 -1.2987 -0.5732
  137MOL    H6422096   3.629   5.808   2.958  0.4545 -2.8180 -2.4033
  137MOL    H6522097   3.735   5.697   2.996 -1.6554 -0.7085 -1.2330
  137MOL    C6622098   3.436   5.722   3.116 -0.4828  0.1096 -0.0896
  137MOL    C6722099   3.345   5.636   3.208 -0.2956 -0.6244 -0.0722
  137MOL    N6822100   3.435   5.612   3.326 -0.1913  0.3581 -0.0444
  137MOL    H6922101   3.480   5.800   3.179  0.9140 -0.6255 -0.1264
  137MOL    H7022102   3.377   5.773   3.040  0.5200 -2.2639 -2.5259
  137MOL    H7122103   3.324   5.540   3.161  3.7100 -1.9410  0.5958
  137MOL    H7222104   3.490   5.697   3.333  0.7117 -0.0886 -1.4959
  137MOL    H7322105   3.501   5.544   3.293  0.6002  0.8083  0.5882
  137MOL    C7422106   3.220   5.706   3.259  0.0021 -0.3230  0.1715
  137MOL    C7522107   3.095   5.672   3.179 -0.2367 -0.1671  0.1977
  137MOL    N7622108   2.976   5.726   3.248 -0.3219 -0.0818 -0.0382
  137MOL    H7722109   3.206   5.680   3.364 -2.5468  2.2117  0.4930
  137MOL    H7822110   3.221   5.814   3.251 -1.9609 -0.2152  1.2014
  137MOL    H7922111   3.082   5.565   3.190 -2.0122  0.0401  0.2199
  137MOL    H8022112   2.987   5.707   3.347 -0.1184 -0.1369 -0.0705
  137MOL    H8122113   2.900   5.662   3.228  0.4371 -1.2150  0.6363
  137MOL    C8222114   3.109   5.713   3.033  0.7621 -0.3392  0.3884
  137MOL    C8322115   2.990   5.681   2.943 -0.1089 -0.2553 -0.2279
  137MOL    N8422116   3.012   5.749   2.819 -0.0651  0.4180 -0.1607
  137MOL    H8522117   3.139   5.818   3.028  0.2849 -0.2740 -1.4268
  137MOL    H8622118   3.201   5.668   2.996  0.7436 -0.2916  0.2871
  137MOL    H8722119   2.891   5.713   2.976 -0.3739  1.2005 -2.3088
  137MOL    H8822120   2.944   5.727   2.749 -0.1503 -2.4220  0.7343
  137MOL    H8922121   3.105   5.726   2.788 -0.0459  0.7005 -0.3123
  137MOL    C9022122   2.968   5.531   2.911 -0.0137 -0.1721 -0.8728
  137MOL    C9122123   2.909   5.438   3.025 -0.1229  0.0519 -0.1154
  137MOL    N9222124   2.802   5.495   3.108 -0.1146  0.1168  0.2694
  137MOL    H9322125   2.907   5.506   2.824 -0.6702  0.2486 -0.5342
  137MOL    H9422126   3.069   5.495   2.892 -0.2266 -0.5799 -1.2535
  137MOL    H9522127   2.983   5.414   3.101 -2.0895 -1.1586  1.4619
  137MOL    H9622128   2.750   5.427   3.162 -0.7784 -0.4549 -1.0621
  137MOL    H9722129   2.730   5.540   3.053 -1.0645 -1.0599  0.5166
  137MOL    C9822130   2.867   5.301   2.965  0.1566 -0.2229  0.3105
  137MOL    C9922131   2.978   5.209   2.910 -0.1249 -0.1568  0.2690
  137MOL   N10022132   3.071   5.196   3.014 -0.0040  0.4254 -0.4359
  137MOL   H10122133   2.804   5.257   3.042  1.5645 -0.3652  1.4207
  137MOL   H10222134   2.800   5.322   2.882  1.3026  0.5827 -0.4336
  137MOL   H10322135   3.022   5.264   2.826 -1.6540  0.2993 -0.2573
  137MOL   H10422136   3.162   5.158   2.995 -0.9176 -1.5816 -0.8673
  137MOL   H10522137   3.039   5.154   3.100 -2.6455  0.3776 -1.3871
  137MOL   C10622138   2.932   5.064   2.878 -0.3014 -0.4424  0.6849
  137MOL   C10722139   2.912   5.032   2.725 -0.2318  0.5608  0.1960
  137MOL   N10822140   2.874   4.885   2.703  0.1386 -0.1219 -0.3766
  137MOL   H10922141   3.011   4.998   2.913  2.2285  2.5590  0.8199
  137MOL   H11022142   2.849   5.029   2.938 -0.5994 -1.1840 -0.1312
  137MOL   H11122143   3.011   5.051   2.684 -1.2500  4.5166 -0.6637
  137MOL   H11222144   2.781   4.856   2.729  0.3151  0.9645  1.6026
  137MOL   H11322145   2.894   4.840   2.615  3.0038  0.5412 -0.1275
  137MOL   C11422146   2.808   5.123   2.662  0.5819 -0.4449 -0.6375
  137MOL   C11522147   2.827   5.158   2.513 -0.5232  0.3407  0.5643
  137MOL   N11622148   2.694   5.198   2.470  0.5525  0.0950 -0.4651
  137MOL   H11722149   2.707   5.091   2.690 -0.6598  3.9101  0.3245
  137MOL   H11822150   2.796   5.223   2.705  0.4075 -0.2659 -1.1034
  137MOL   H11922151   2.842   5.064   2.460 -2.2670  0.8073 -0.8199
  137MOL   H12022152   2.627   5.170   2.540  0.7937  0.2019 -0.1869
  137MOL   H12122153   2.696   5.298   2.483  1.0140  0.3479 -2.4406
  137MOL   C12222154   2.941   5.255   2.469 -0.2685  0.3789 -0.5567
  137MOL   C12322155   2.975   5.256   2.317  0.0802  0.8029 -0.6378
  137MOL   N12422156   3.044   5.378   2.281 -0.3293 -0.3225 -0.1308
  137MOL   H12522157   2.923   5.350   2.519  1.5501  0.1384  0.5854
  137MOL   H12622158   3.027   5.211   2.519 -0.0827  1.6488  0.2688
  137MOL   H12722159   2.879   5.255   2.265  0.0370  0.6343 -0.5556
  137MOL   H12822160   3.052   5.387   2.181  0.7500  1.8587  0.1363
  137MOL   H12922161   2.990   5.456   2.314 -1.3601 -2.3709  3.3048
  137MOL   C13022162   3.053   5.133   2.274 -0.0528  0.5392 -0.8283
  137MOL   C13122163   3.049   5.111   2.118  0.2758 -0.0385 -0.5840
  137MOL   N13222164   3.166   5.040   2.074  0.2101  0.0389  0.0783
  137MOL   H13322165   3.157   5.144   2.304 -0.1665  0.9087 -0.5705
  137MOL   H13422166   3.013   5.042   2.319  1.7816  0.4198  0.6144
  137MOL   H13522167   3.063   5.209   2.073 -2.0197  0.9516  0.7744
  137MOL   H13622168   3.184   4.949   2.114 -1.4137 -0.6583 -0.7274
  137MOL   H13722169   3.248   5.098   2.076  1.4771 -1.7663  2.2444
  137MOL   C13822170   2.932   5.022   2.070 -0.1601  0.1500 -0.1341
  137MOL   C13922171   2.790   5.089   2.079 -0.6847 -0.4855 -0.6439
  137MOL   N14022172   2.792   5.206   1.988  0.7811  0.6635 -0.1665
  137MOL   H14122173   2.946   4.994   1.966 -1.2820  2.9669 -1.0932
  137MOL   H14222174   2.934   4.926   2.123 -1.3228  0.4990  0.5787
  137MOL   H14322175   2.766   5.118   2.181  2.1852 -0.9573  0.2154
  137MOL   H14422176   2.760   5.168   1.900  0.5913  1.8311 -0.6104
  137MOL   H14522177   2.891   5.217   1.974  1.0227 -2.2506 -1.1261
  137MOL   C14622178   2.678   4.998   2.044 -0.2846 -0.2279  0.5388
  137MOL   C14722179   2.609   4.923   2.166  0.3228  0.1319 -0.0153
  137MOL   N14822180   2.696   4.836   2.243 -0.0904 -0.0713 -0.5996
  137MOL   H14922181   2.601   5.067   2.010 -0.7270 -0.9324  0.0735
  137MOL   H15022182   2.707   4.927   1.966  0.9426  0.5371  0.2943
  137MOL   H15122183   2.550   4.853   2.107 -1.2696  2.3065 -1.0658
  137MOL   H15222184   2.641   4.785   2.310  0.7129 -0.4973 -0.2447
  137MOL   H15322185   2.752   4.899   2.299 -1.3003  0.9633 -0.5552
  137MOL   C15422186   2.517   5.002   2.266  0.8338  0.7758 -0.6022
  137MOL   C15522187   2.372   5.029   2.218  0.4527 -0.1131  0.1858
  137MOL   N15622188   2.302   5.087   2.328  0.7644 -0.3064 -0.3730
  137MOL   H15722189   2.511   4.955   2.364 -1.5108  2.3379  0.0362
  137MOL   H15822190   2.559   5.100   2.286  1.2000  0.6161 -0.5724
  137MOL   H15922191   2.314   4.940   2.192  1.0161 -0.5333  0.3802
  137MOL   H16022192   2.203   5.079   2.310  1.2553 -1.3173 -2.8339
  137MOL   H16122193   2.326   5.024   2.403  2.2969  0.8422  0.1468
  137MOL   H16222194   2.375   5.100   2.135  3.1616 -0.1152  0.2477
  138MOL     C122195   4.995   1.086   2.434 -0.5978  0.0443  0.5028
  138MOL     C222196   5.070   1.025   2.548 -0.4299 -0.0007 -0.4145
  138MOL     N322197   5.098   1.128   2.644  0.2695  0.3324 -0.1291
  138MOL     H422198   4.992   1.011   2.355  5.8286 -0.7689  0.8150
  138MOL     H522199   5.047   1.175   2.398 -0.4242  1.5690  4.2567
  138MOL     H622200   5.166   0.992   2.509 -0.1368 -1.3237  1.3496
  138MOL     H722201   5.155   1.202   2.606  0.5111  0.1557 -0.1122
  138MOL     H822202   5.167   1.087   2.705 -0.9718 -1.0777  0.3547
  138MOL     H922203   4.890   1.102   2.460 -0.8770 -2.1642  0.7753
  138MOL    C1022204   4.999   0.905   2.618  0.0420 -0.2737  0.3172
  138MOL    C1122205   4.967   0.794   2.521  0.2771  0.0238  0.5722
  138MOL    N1222206   4.990   0.661   2.571 -0.6543 -0.5166 -0.1622
  138MOL    H1322207   5.076   0.868   2.686 -0.8033  0.1133  1.5095
  138MOL    H1422208   4.920   0.948   2.680  0.7389  1.1964  0.2213
  138MOL    H1522209   5.027   0.807   2.431 -2.1907  0.7013 -1.0350
  138MOL    H1622210   5.030   0.598   2.503 -0.0217 -2.2789  1.7893
  138MOL    H1722211   5.046   0.648   2.654 -0.8266 -1.0133 -0.1228
  138MOL    C1822212   4.818   0.812   2.495 -0.4172 -0.1895  0.1341
  138MOL    C1922213   4.758   0.733   2.373 -1.0399 -0.1972  0.4175
  138MOL    N2022214   4.617   0.736   2.398 -0.0504  0.3464 -0.0330
  138MOL    H2122215   4.763   0.773   2.581 -0.2296 -1.0870 -0.1510
  138MOL    H2222216   4.805   0.920   2.490  0.3627 -0.0719  0.6039
  138MOL    H2322217   4.794   0.630   2.380 -0.6078 -0.0187  0.8331
  138MOL    H2422218   4.572   0.804   2.339 -0.1595 -0.9063 -1.4324
  138MOL    H2522219   4.581   0.650   2.359 -0.7713  0.7055 -0.1632
  138MOL    C2622220   4.802   0.794   2.234 -0.0464  0.1692 -0.9596
  138MOL    C2722221   4.738   0.726   2.111  0.4264  0.1649 -0.0710
  138MOL    N2822222   4.731   0.811   1.995  0.2061 -0.0320  0.1980
  138MOL    H2922223   4.788   0.902   2.247  0.7048  0.1280  0.3171
  138MOL    H3022224   4.909   0.810   2.222  0.4594 -1.5398  0.9962
  138MOL    H3122225   4.634   0.697   2.121  0.2383  0.5929 -0.7926
  138MOL    H3222226   4.656   0.868   2.031  0.7319  0.4523  0.5251
  138MOL    H3322227   4.695   0.758   1.917  1.1191 -0.0064 -0.2465
  138MOL    C3422228   4.812   0.599   2.073  1.1309 -0.0360  0.4349
  138MOL    C3522229   4.725   0.508   1.974 -0.0768 -0.5314 -0.5208
  138MOL    N3622230   4.818   0.410   1.924  0.7992 -0.3315  0.4373
  138MOL    H3722231   4.907   0.638   2.036 -0.1804  0.6588 -2.3498
  138MOL    H3822232   4.826   0.538   2.162 -0.0623  1.0144  1.3643
  138MOL    H3922233   4.697   0.565   1.885  1.0490  4.2581  2.0248
  138MOL    H4022234   4.761   0.367   1.852 -0.1097  0.3185  0.7586
  138MOL    H4122235   4.902   0.441   1.879 -0.0941  0.3212 -0.8094
  138MOL    C4222236   4.604   0.438   2.044  0.2191 -0.6358  0.7173
  138MOL    C4322237   4.474   0.407   1.965  0.2717 -0.1277  0.0345
  138MOL    N4422238   4.495   0.284   1.890  0.0415  0.0345 -0.1693
  138MOL    H4522239   4.642   0.345   2.086  0.4543 -1.1679 -0.6280
  138MOL    H4622240   4.568   0.500   2.126 -1.5084 -0.1532 -0.3670
  138MOL    H4722241   4.455   0.478   1.885  0.2551  1.0916  1.0908
  138MOL    H4822242   4.410   0.266   1.838 -0.8418  1.7642  0.6576
  138MOL    H4922243   4.565   0.309   1.821 -0.2855  1.5224  0.0190
  138MOL    C5022244   4.358   0.385   2.059  0.3743  0.0613 -0.6159
  138MOL    C5122245   4.304   0.515   2.125 -0.5833 -0.5282  0.2255
  138MOL    N5222246   4.235   0.581   2.016  0.4507 -0.3543  0.5001
  138MOL    H5322247   4.275   0.328   2.017 -0.7757  1.5219 -0.3685
  138MOL    H5422248   4.396   0.325   2.142  0.2256  1.3119  0.3815
  138MOL    H5522249   4.378   0.588   2.159  0.1354 -1.3889  0.5120
  138MOL    H5622250   4.214   0.676   2.041  2.8300  0.1112  0.7943
  138MOL    H5722251   4.154   0.537   1.973  0.1015 -0.8064  1.5975
  138MOL    C5822252   4.212   0.493   2.250 -0.2755  0.5889  0.2096
  138MOL    C5922253   4.263   0.426   2.375 -0.3029  0.2095 -0.8613
  138MOL    N6022254   4.388   0.488   2.414  0.0715  0.7149 -0.8606
  138MOL    H6122255   4.179   0.593   2.277 -0.5987  0.2884  0.9524
  138MOL    H6222256   4.123   0.439   2.220 -0.2035  0.1934  0.6963
  138MOL    H6322257   4.293   0.325   2.347 -0.6228  0.6064 -2.6733
  138MOL    H6422258   4.378   0.586   2.436  1.0348  0.4223  0.9318
  138MOL    H6522259   4.411   0.451   2.505  0.3311 -0.6634 -1.4715
  138MOL    C6622260   4.158   0.422   2.496  0.2870 -0.0474  0.5944
  138MOL    C6722261   4.173   0.306   2.595  0.1421  0.7237  0.4934
  138MOL    N6822262   4.153   0.358   2.731 -0.3347 -0.2979  0.2293
  138MOL    H6922263   4.150   0.517   2.548 -0.7950  0.5297 -0.5850
  138MOL    H7022264   4.058   0.401   2.456  0.9917 -2.3931 -0.0060
  138MOL    H7122265   4.276   0.269   2.589 -0.3245 -0.3322 -1.0606
  138MOL    H7222266   4.229   0.422   2.752  0.5255 -1.7910  1.7850
  138MOL    H7322267   4.167   0.275   2.786 -0.8647 -0.3177  0.3319
  138MOL    C7422268   4.081   0.182   2.581 -0.2571  0.2144  0.3677
  138MOL    C7522269   4.091   0.122   2.429  0.2509 -0.5243 -0.3724
  138MOL    N7622270   4.199   0.025   2.419  0.2261 -0.1101  0.0908
  138MOL    H7722271   4.097   0.100   2.650 -1.8848 -1.3371 -1.0407
  138MOL    H7822272   3.978   0.204   2.608 -0.7948 -1.5391 -0.1900
  138MOL    H7922273   4.102   0.205   2.359  1.6538  0.1198  0.5831
  138MOL    H8022274   4.285   0.072   2.443  0.3965  0.7087 -1.9770
  138MOL    H8122275   4.215   7.274   2.323  1.6583  0.5080  0.1384
  138MOL    C8222276   3.969   0.051   2.384  0.0623  0.0184  0.4954
  138MOL    C8322277   3.848   0.142   2.355  0.0649  0.1631 -0.5012
  138MOL    N8422278   3.877   0.195   2.222 -0.4427  0.0217 -0.0051
  138MOL    H8522279   3.986   7.262   2.298 -0.0039 -0.0879  0.5621
  138MOL    H8622280   3.944   7.256   2.463 -2.1075 -2.1140 -2.0055
  138MOL    H8722281   3.840   0.230   2.419  0.2206 -1.5304  1.9025
  138MOL    H8822282   3.810   0.269   2.203  1.1450  1.5321  0.1275
  138MOL    H8922283   3.843   0.128   2.155  0.1506  0.1363 -0.4140
  138MOL    C9022284   3.714   0.053   2.361  0.0654 -0.6034  0.9406
  138MOL    C9122285   3.635   0.090   2.484  0.0423  0.7441 -0.3290
  138MOL    N9222286   3.506   0.029   2.469 -0.0030 -0.7696 -0.2305
  138MOL    H9322287   3.652   0.080   2.276  1.5965 -2.0295 -0.6587
  138MOL    H9422288   3.731   7.222   2.351  0.4354 -0.3453 -1.5099
  138MOL    H9522289   3.614   0.197   2.482 -2.0563  0.3798  0.9431
  138MOL    H9622290   3.429   0.076   2.515  0.4683 -0.9507  0.7548
  138MOL    H9722291   3.468   0.024   2.375  0.2046 -2.3088 -0.2364
  138MOL    C9822292   3.703   0.042   2.614  0.2516  0.0399  0.0381
  138MOL    C9922293   3.634   0.077   2.752 -0.0694 -0.4835 -0.1467
  138MOL   N10022294   3.686   7.262   2.848  0.6999 -0.2297  0.2840
  138MOL   H10122295   3.706   7.210   2.596  0.9188  0.0666 -0.0243
  138MOL   H10222296   3.807   0.075   2.609  0.5505 -0.6954  1.2188
  138MOL   H10322297   3.528   0.056   2.741 -0.4671  1.5059 -0.3143
  138MOL   H10422298   3.672   0.030   2.938  1.5232  0.8649 -0.1152
  138MOL   H10522299   3.632   7.177   2.846 -0.8886  0.7613 -0.7494
  138MOL   C10622300   3.675   0.214   2.803 -0.1992  0.6783  0.8014
  138MOL   C10722301   3.648   0.338   2.716 -0.1301  0.0667  0.5278
  138MOL   N10822302   3.504   0.340   2.693  0.5620 -0.8154  0.3931
  138MOL   H10922303   3.620   0.220   2.897  0.0002  1.3301  0.8734
  138MOL   H11022304   3.777   0.205   2.840 -0.1685 -1.5026  0.2835
  138MOL   H11122305   3.704   0.326   2.622 -0.9035  1.3104 -0.1019
  138MOL   H11222306   3.492   0.399   2.612  0.8590  1.3666  1.8936
  138MOL   H11322307   3.499   0.245   2.659 -0.3697  0.0138 -1.9260
  138MOL   C11422308   3.688   0.471   2.796  0.0115 -0.1177 -0.1204
  138MOL   C11522309   3.841   0.487   2.805  0.9293 -0.0096 -0.6872
  138MOL   N11622310   3.904   0.516   2.678  0.0866  0.0306 -0.2171
  138MOL   H11722311   3.648   0.566   2.760 -2.5348 -1.1151  0.0012
  138MOL   H11822312   3.657   0.461   2.899  2.2336 -1.1744  0.4896
  138MOL   H11922313   3.879   0.390   2.838 -1.5887 -0.3072  1.5010
  138MOL   H12022314   3.883   0.434   2.623 -0.3226 -0.4790  0.6946
  138MOL   H12122315   4.002   0.495   2.686  0.7838  3.1050  0.0787
  138MOL   C12222316   3.884   0.582   2.925 -0.8238  0.8755  0.2139
  138MOL   C12322317   3.944   0.509   3.041 -0.2822 -0.2390 -0.9830
  138MOL   N12422318   3.994   0.611   3.131  0.2262  0.4452  0.2851
  138MOL   H12522319   3.957   0.653   2.886 -0.7117  0.6402 -0.0082
  138MOL   H12622320   3.800   0.642   2.959 -1.1824  1.4464 -1.6351
  138MOL   H12722321   4.036   0.461   3.004 -0.1539  0.5880 -1.7569
  138MOL   H12822322   4.067   0.574   3.190  1.6987 -2.0300 -2.9453
  138MOL   H12922323   4.039   0.681   3.074 -1.0349  1.0348  0.0023
  138MOL   C13022324   3.851   0.402   3.116 -0.1299  0.1257  0.1179
  138MOL   C13122325   3.908   0.355   3.257  0.1666  0.4911 -0.8332
  138MOL   N13222326   3.798   0.321   3.344 -0.2688 -0.2558 -0.3947
  138MOL   H13322327   3.759   0.456   3.138 -0.7382  0.1600 -2.3706
  138MOL   H13422328   3.828   0.317   3.052  2.5699 -0.5888  0.0341
  138MOL   H13522329   3.944   0.440   3.315 -2.2021 -0.8535  2.7625
  138MOL   H13622330   3.721   0.374   3.307 -1.0750 -2.0160 -1.2881
  138MOL   H13722331   3.810   0.356   3.438  3.9005  0.4140 -1.1101
  138MOL   C13822332   4.007   0.229   3.244  0.1126  0.2085  0.6355
  138MOL   C13922333   4.128   0.246   3.341  0.2872  0.0413 -0.2381
  138MOL   N14022334   4.104   0.164   3.459  0.6381 -0.1885  0.0183
  138MOL   H14122335   3.952   0.135   3.246  0.7163 -0.2379 -1.8436
  138MOL   H14222336   4.036   0.236   3.139  1.8915  0.7175  1.1551
  138MOL   H14322337   4.126   0.350   3.374 -0.1536  0.5287 -1.7238
  138MOL   H14422338   4.024   0.189   3.516  0.4001 -3.4708  1.2382
  138MOL   H14522339   4.082   0.069   3.433 -2.5383  1.1705 -2.6198
  138MOL   C14622340   4.251   0.203   3.268  0.7382  0.2683  0.0629
  138MOL   C14722341   4.395   0.230   3.330 -0.8060  0.4706  0.5263
  138MOL   N14822342   4.400   0.171   3.463  0.5331  0.0832  0.4877
  138MOL   H14922343   4.258   0.097   3.244 -0.9902  0.2778 -0.5272
  138MOL   H15022344   4.244   0.254   3.171 -0.0210 -0.3526 -0.2140
  138MOL   H15122345   4.402   0.338   3.331  2.1724  0.3118  2.2553
  138MOL   H15222346   4.311   0.178   3.509 -0.1509  3.0282 -1.1794
  138MOL   H15322347   4.418   0.072   3.454 -0.8382 -0.2371  1.1161
  138MOL   C15422348   4.512   0.175   3.246  0.1425 -0.2229  0.0156
  138MOL   C15522349   4.528   0.253   3.108 -0.5148  0.4963  0.3541
  138MOL   N15622350   4.653   0.227   3.040 -0.2104  0.5019 -0.3436
  138MOL   H15722351   4.605   0.190   3.302  0.2107  2.1316 -0.6992
  138MOL   H15822352   4.500   0.067   3.232  1.5796 -0.5905  1.4457
  138MOL   H15922353   4.510   0.360   3.117 -0.9673  0.4145  0.4593
  138MOL   H16022354   4.724   0.211   3.109  1.5525 -0.0227 -2.2230
  138MOL   H16122355   4.642   0.137   2.995  0.8713  1.4007 -2.5034
  138MOL   H16222356   4.450   0.229   3.036 -0.4320 -3.2102  1.3849
  139MOL     C122357   0.990   3.814   2.825 -0.2560  0.4280 -0.2268
  139MOL     C222358   1.072   3.947   2.811 -0.0700  0.3057 -0.2281
  139MOL     N322359   1.035   4.044   2.910 -0.5291 -0.0314 -0.6963
  139MOL     H422360   0.985   3.749   2.738 -0.4988 -1.3933  1.1053
  139MOL     H522361   0.883   3.829   2.840 -0.6714 -1.5723 -1.0687
  139MOL     H622362   1.039   3.989   2.715  2.2263 -0.4855 -1.4035
  139MOL     H722363   1.103   4.117   2.898 -2.2193  1.4221 -1.5286
  139MOL     H822364   0.951   4.091   2.882 -0.2491  1.7550  1.3589
  139MOL     H922365   1.029   3.748   2.903 -2.1130 -0.7197 -0.2300
  139MOL    C1022366   1.223   3.933   2.795  0.4672 -0.4135  0.3212
  139MOL    C1122367   1.265   3.854   2.669 -0.1452 -0.1226 -1.0127
  139MOL    N1222368   1.345   3.937   2.578 -0.0072  0.0107 -0.8985
  139MOL    H1322369   1.273   4.029   2.801 -0.2586  0.0924 -1.4438
  139MOL    H1422370   1.254   3.871   2.879  0.0034  0.4232  1.1056
  139MOL    H1522371   1.171   3.832   2.618 -0.4145 -0.1114 -0.5219
  139MOL    H1622372   1.342   3.892   2.488  0.6552  0.6082 -1.2244
  139MOL    H1722373   1.295   4.025   2.570 -0.7720 -0.2967  0.3348
  139MOL    C1822374   1.352   3.724   2.695 -0.4450 -0.9374 -0.0059
  139MOL    C1922375   1.292   3.593   2.746 -0.0143 -0.2562 -0.0045
  139MOL    N2022376   1.236   3.526   2.626  0.0221  0.1672  0.6848
  139MOL    H2122377   1.404   3.702   2.602  0.6817  1.1047  0.1195
  139MOL    H2222378   1.441   3.747   2.754 -0.2658 -0.3091 -0.5199
  139MOL    H2322379   1.212   3.612   2.818  0.1367 -0.0366  0.1050
  139MOL    H2422380   1.154   3.582   2.604 -0.3686 -0.8502 -0.4941
  139MOL    H2522381   1.196   3.442   2.665  0.0457 -0.1579  0.0031
  139MOL    C2622382   1.397   3.497   2.810  0.5090 -0.0427  0.6173
  139MOL    C2722383   1.421   3.541   2.959  0.1392  0.3949  0.1120
  139MOL    N2822384   1.314   3.473   3.035  0.3100  0.9048 -0.3244
  139MOL    H2922385   1.371   3.391   2.811  0.1371  0.0133 -1.0464
  139MOL    H3022386   1.481   3.506   2.741 -1.3093 -0.4836 -1.7494
  139MOL    H3122387   1.395   3.644   2.981 -1.5450 -0.1804  0.8968
  139MOL    H3222388   1.237   3.428   2.988 -0.4346  2.8217 -0.9783
  139MOL    H3322389   1.276   3.533   3.107 -1.0872 -0.7747  0.3683
  139MOL    C3422390   1.566   3.534   3.017 -0.0862  0.2385 -0.4416
  139MOL    C3522391   1.661   3.656   2.982  0.7524 -0.1934  0.4480
  139MOL    N3622392   1.778   3.638   3.067 -0.0571  0.3970 -0.6013
  139MOL    H3722393   1.558   3.531   3.125 -3.6371  0.8296 -0.6483
  139MOL    H3822394   1.612   3.444   2.973  1.1904  0.4545  0.4281
  139MOL    H3922395   1.622   3.758   2.990 -0.6120 -0.4347 -2.5623
  139MOL    H4022396   1.861   3.668   3.018  0.1913  2.5846  1.0821
  139MOL    H4122397   1.766   3.684   3.157  1.7897  0.7623 -0.5260
  139MOL    C4222398   1.713   3.663   2.838 -0.0257  0.2080  0.3017
  139MOL    C4322399   1.793   3.800   2.806 -0.1934  0.6197 -1.0729
  139MOL    N4422400   1.860   3.781   2.676 -0.0184 -0.3051  0.3629
  139MOL    H4522401   1.780   3.578   2.828 -0.9327 -0.3993 -0.7797
  139MOL    H4622402   1.625   3.646   2.776 -1.5179 -1.5173  2.7894
  139MOL    H4722403   1.867   3.810   2.885 -0.1775  2.5987 -1.2938
  139MOL    H4822404   1.787   3.767   2.608  0.8379 -0.0527 -0.6195
  139MOL    H4922405   1.898   3.691   2.700  4.2104  0.9649 -1.0340
  139MOL    C5022406   1.709   3.924   2.794  0.6108  0.1722 -0.1902
  139MOL    C5122407   1.735   4.035   2.901 -0.1315  0.2365 -0.7949
  139MOL    N5222408   1.836   4.115   2.841  0.1380  0.4228  0.3414
  139MOL    H5322409   1.707   3.963   2.693 -0.5884 -0.5379 -0.4520
  139MOL    H5422410   1.607   3.886   2.802 -0.2602  2.3122 -0.9724
  139MOL    H5522411   1.768   3.992   2.996  0.6143  1.1406 -0.6349
  139MOL    H5622412   1.866   4.177   2.915 -0.1781  0.7700  0.1783
  139MOL    H5722413   1.914   4.053   2.821  0.2407  0.4642  0.6036
  139MOL    C5822414   1.606   4.116   2.935 -0.2373  0.0844 -0.3719
  139MOL    C5922415   1.552   4.083   3.076  0.0256  0.6748 -0.8680
  139MOL    N6022416   1.627   4.165   3.167 -0.0446  0.0619 -0.4005
  139MOL    H6122417   1.630   4.223   2.935 -4.3303  1.0674  1.4773
  139MOL    H6222418   1.522   4.092   2.871 -2.1891  2.8983  1.0369
  139MOL    H6322419   1.567   3.978   3.103 -0.0885  0.8522 -0.1006
  139MOL    H6422420   1.590   4.158   3.261 -0.8675 -1.9622 -0.8485
  139MOL    H6522421   1.633   4.259   3.129  0.7243  0.1835  0.0124
  139MOL    C6622422   1.402   4.115   3.084  0.3668  0.4102  0.2484
  139MOL    C6722423   1.339   4.144   3.224 -0.5349 -0.1255 -0.6440
  139MOL    N6822424   1.369   4.283   3.264 -0.1640 -0.6923 -0.5109
  139MOL    H6922425   1.364   4.188   3.012  0.1217  1.1565  1.1240
  139MOL    H7022426   1.354   4.026   3.044 -0.5591  1.6855 -1.5571
  139MOL    H7122427   1.381   4.079   3.301 -0.0926  1.6770  0.6665
  139MOL    H7222428   1.470   4.290   3.266 -0.1506  0.1788 -2.9492
  139MOL    H7322429   1.347   4.292   3.362  0.5472  1.2254 -0.5106
  139MOL    C7422430   1.185   4.112   3.234 -0.0787 -0.3465  0.2048
  139MOL    C7522431   1.156   3.995   3.323  0.1401  0.3931 -0.2316
  139MOL    N7622432   1.013   3.992   3.345 -0.1252  0.3585  0.7917
  139MOL    H7722433   1.123   4.200   3.252 -0.2421 -0.3636 -0.2636
  139MOL    H7822434   1.146   4.082   3.137 -0.8711 -0.1818  0.4678
  139MOL    H7922435   1.217   4.016   3.411 -0.1495  0.9098 -0.1543
  139MOL    H8022436   0.967   4.082   3.349  1.1307  1.0792 -0.5182
  139MOL    H8122437   0.964   3.948   3.268  0.3852 -1.6590  1.5805
  139MOL    C8222438   1.183   3.869   3.243 -0.0373  0.6538  0.6425
  139MOL    C8322439   1.181   3.739   3.330 -0.0323  0.2404  0.5983
  139MOL    N8422440   1.084   3.641   3.280 -0.0176  0.6210 -0.1732
  139MOL    H8522441   1.117   3.848   3.158  0.8002 -0.1760  0.1889
  139MOL    H8622442   1.276   3.880   3.188 -0.8791 -0.3174 -1.0164
  139MOL    H8722443   1.155   3.763   3.433  1.2011 -0.7867  1.1658
  139MOL    H8822444   1.099   3.558   3.335  1.0601 -0.6649 -2.3412
  139MOL    H8922445   0.985   3.659   3.289  0.1614  1.2895  0.5401
  139MOL    C9022446   1.317   3.674   3.335 -0.4778 -0.1105  0.0296
  139MOL    C9122447   1.416   3.753   3.416  0.4768  0.4827  0.1563
  139MOL    N9222448   1.397   3.724   3.555  0.0579 -0.1041  0.0291
  139MOL    H9322449   1.305   3.573   3.374 -2.0582  0.2114  0.4038
  139MOL    H9422450   1.345   3.659   3.231  0.3064  1.7464 -0.0584
  139MOL    H9522451   1.395   3.859   3.398 -0.2155  0.5086  1.0868
  139MOL    H9622452   1.456   3.790   3.603  1.1876  0.4051 -2.0107
  139MOL    H9722453   1.441   3.635   3.572 -1.3195 -1.1787 -1.8628
  139MOL    C9822454   1.567   3.714   3.382 -0.2290  0.1377  0.8777
  139MOL    C9922455   1.676   3.788   3.447  0.0443 -1.0700 -0.5208
  139MOL   N10022456   1.802   3.731   3.401 -0.1958  0.1272  0.1120
  139MOL   H10122457   1.585   3.606   3.383  0.5336  0.2703  2.9704
  139MOL   H10222458   1.578   3.732   3.275 -2.5075  0.3964  0.6567
  139MOL   H10322459   1.668   3.769   3.554 -0.8780  0.5972 -0.2779
  139MOL   H10422460   1.798   3.632   3.386 -2.3747  0.1832  0.1663
  139MOL   H10522461   1.864   3.731   3.480 -0.3880 -0.7785  0.2616
  139MOL   C10622462   1.673   3.938   3.406  0.4844  0.5200 -0.5771
  139MOL   C10722463   1.758   4.030   3.498 -0.4699  0.1649 -0.0834
  139MOL   N10822464   1.768   4.164   3.445  0.0542  0.3665 -0.1915
  139MOL   H10922465   1.703   3.942   3.301 -3.0826 -1.1615 -1.7596
  139MOL   H11022466   1.568   3.969   3.404  0.3581  0.0769 -0.9940
  139MOL   H11122467   1.863   4.004   3.501 -0.7429 -0.7904  1.8810
  139MOL   H11222468   1.848   4.211   3.485 -0.0740 -0.1428  0.6715
  139MOL   H11322469   1.794   4.151   3.348  0.7494  1.0998 -0.1054
  139MOL   C11422470   1.709   4.036   3.647 -0.0374  0.3125  0.4918
  139MOL   C11522471   1.814   3.995   3.753 -0.2289 -0.4315  0.1215
  139MOL   N11622472   1.755   3.984   3.887 -0.2288 -0.0932  0.2111
  139MOL   H11722473   1.663   4.134   3.657 -2.9116 -0.8311 -1.0312
  139MOL   H11822474   1.635   3.956   3.650  0.3434 -0.0789 -0.2666
  139MOL   H11922475   1.884   4.079   3.756 -0.6417 -0.0627 -0.3642
  139MOL   H12022476   1.832   3.973   3.951  1.4718  1.2156 -1.5594
  139MOL   H12122477   1.698   3.901   3.895  1.0962 -0.9875  0.5255
  139MOL   C12222478   1.900   3.863   3.717  0.3078  0.2446  0.1272
  139MOL   C12322479   2.052   3.876   3.753 -0.2944  0.1293 -0.2744
  139MOL   N12422480   2.103   3.742   3.772  0.0625  0.6082 -0.8787
  139MOL   H12522481   1.861   3.775   3.768 -3.0935  1.3623 -0.4403
  139MOL   H12622482   1.902   3.832   3.613 -3.8140  3.0085 -0.8593
  139MOL   H12722483   2.061   3.920   3.852 -0.8802  0.5260 -0.3993
  139MOL   H12822484   2.194   3.749   3.816 -0.1730 -1.9347  0.1034
  139MOL   H12922485   2.134   3.712   3.681 -0.0206 -0.5535 -0.5376
  139MOL   C13022486   2.139   3.944   3.650  0.6680  0.1472 -0.0605
  139MOL   C13122487   2.287   3.963   3.682 -0.2828  0.3596 -0.5216
  139MOL   N13222488   2.348   4.012   3.556  0.3425 -0.0081  0.7107
  139MOL   H13322489   2.124   3.889   3.557 -0.1969 -0.0974  0.2225
  139MOL   H13422490   2.096   4.042   3.630 -1.2198 -1.0466 -2.0993
  139MOL   H13522491   2.348   3.874   3.692  1.6111  1.9501  2.8873
  139MOL   H13622492   2.378   3.930   3.506  0.9520 -0.5996  2.0397
  139MOL   H13722493   2.438   4.054   3.571  0.4797 -0.6425  1.7207
  139MOL   C13822494   2.330   4.057   3.795  1.1443  0.2992  0.6174
  139MOL   C13922495   2.462   4.018   3.864  0.1365  0.4149  0.2880
  139MOL   N14022496   2.504   4.117   3.960  0.0030  0.0108  0.0162
  139MOL   H14122497   2.317   4.163   3.773 -0.6364 -0.3837 -1.8471
  139MOL   H14222498   2.263   4.052   3.881  0.6556  2.0599  0.3504
  139MOL   H14322499   2.536   4.012   3.784  0.0165 -1.4082  0.2902
  139MOL   H14422500   2.555   4.073   4.036  0.8385 -1.0733 -1.1586
  139MOL   H14522501   2.571   4.179   3.918  1.4244  1.1259  3.7325
  139MOL   C14622502   2.470   3.883   3.942 -0.6554 -0.5877 -0.0143
  139MOL   C14722503   2.343   3.836   4.017  0.3297  1.0464 -0.7954
  139MOL   N14822504   2.336   3.692   4.014 -0.2019 -0.1041 -0.0759
  139MOL   H14922505   2.514   3.814   3.870 -0.1347  0.6196 -0.8881
  139MOL   H15022506   2.564   3.891   3.996  0.6568  0.7033 -2.4008
  139MOL   H15122507   2.251   3.869   3.969 -0.5926 -0.2967 -0.0062
  139MOL   H15222508   2.258   3.649   4.060 -0.6812  0.7285 -0.1047
  139MOL   H15322509   2.407   3.654   4.076  0.5798 -1.9439 -2.0230
  139MOL   C15422510   2.339   3.882   4.156  0.0281  0.7964  0.3712
  139MOL   C15522511   2.254   3.999   4.196 -0.6877 -0.5810  0.1445
  139MOL   N15622512   2.234   4.021   4.342  0.6790 -0.0683  0.1876
  139MOL   H15722513   2.285   3.809   4.217 -2.1439  1.3206 -0.8982
  139MOL   H15822514   2.437   3.883   4.204  1.1569 -1.3568 -1.7545
  139MOL   H15922515   2.163   3.978   4.140  0.1454  0.0364 -1.4606
  139MOL   H16022516   2.145   4.068   4.347  1.5991  1.7493 -0.3120
  139MOL   H16122517   2.307   4.078   4.382  1.7746 -1.7751  0.6989
  139MOL   H16222518   2.281   4.091   4.144  0.3809  0.1945  2.0374
  140MOL     C122519   4.011   1.445   6.829 -0.6239 -0.0160  0.0691
  140MOL     C222520   4.132   1.510   6.898  0.0315  0.2108  0.0173
  140MOL     N322521   4.171   1.625   6.820  0.2557  0.1985  0.6187
  140MOL     H422522   3.931   1.516   6.810 -1.0631 -0.2765  0.8915
  140MOL     H522523   3.974   1.363   6.890  1.2664 -0.4132  0.7067
  140MOL     H622524   4.217   1.441   6.892 -0.9998 -1.0821 -0.0907
  140MOL     H722525   4.221   1.584   6.742 -2.2149  1.4695 -1.6992
  140MOL     H822526   4.242   1.660   6.882  0.9703  2.7102 -1.4893
  140MOL     H922527   4.028   1.406   6.729  1.4648  0.2839  0.2830
  140MOL    C1022528   4.114   1.540   7.048  0.5560  0.2208  0.2480
  140MOL    C1122529   4.095   1.419   7.141 -0.5147 -0.3829  0.7262
  140MOL    N1222530   4.217   1.373   7.195  0.0656  0.5502  0.0915
  140MOL    H1322531   4.200   1.602   7.075  1.2822 -0.4150 -0.5543
  140MOL    H1422532   4.026   1.605   7.045 -2.3293 -3.5921 -1.8364
  140MOL    H1522533   4.048   1.347   7.074  0.3252  0.3300 -0.6549
  140MOL    H1622534   4.287   1.410   7.132  1.1863 -0.3791  0.7606
  140MOL    H1722535   4.214   1.275   7.169 -0.7416  1.0957 -1.9213
  140MOL    C1822536   4.001   1.451   7.260  0.0480  0.0331 -0.0775
  140MOL    C1922537   3.859   1.512   7.228  0.0472  0.6635 -0.3211
  140MOL    N2022538   3.789   1.437   7.119  0.0413 -0.1676  0.1348
  140MOL    H2122539   3.990   1.354   0.032  1.8968 -0.5500 -0.8004
  140MOL    H2222540   4.052   1.513   0.058 -1.4262  1.6357 -0.3579
  140MOL    H2322541   3.875   1.613   7.190  2.2373  0.6816  0.5746
  140MOL    H2422542   3.705   1.488   7.092 -0.0170 -2.2263 -3.9719
  140MOL    H2522543   3.742   1.356   7.157 -2.3883  1.1313  0.0674
  140MOL    C2622544   3.773   1.508   0.082 -0.6620  0.9406  0.3663
  140MOL    C2722545   3.727   1.637   0.136 -0.5342 -0.4156  0.3329
  140MOL    N2822546   3.626   1.607   0.238 -0.4843  0.1904  0.4359
  140MOL    H2922547   3.682   1.453   0.059 -0.8031  1.9192 -1.5761
  140MOL    H3022548   3.818   1.444   0.158 -0.3060 -0.6909 -1.1795
  140MOL    H3122549   3.680   1.695   0.057  1.1908 -1.0253 -1.1687
  140MOL    H3222550   3.569   1.690   0.229 -1.3618 -0.6524 -2.1296
  140MOL    H3322551   3.558   1.544   0.198 -0.1305  0.4013 -0.4876
  140MOL    C3422552   3.839   1.724   0.198 -0.4428  0.1030 -0.0399
  140MOL    C3522553   3.898   1.845   0.116  0.7652  0.2820  0.4820
  140MOL    N3622554   3.788   1.943   0.107  0.2213 -1.1702  0.2045
  140MOL    H3722555   3.791   1.771   0.284 -1.4382  0.0689 -0.5676
  140MOL    H3822556   3.909   1.655   0.245  0.7499  0.6009 -1.0608
  140MOL    H3922557   3.933   1.818   0.016 -0.5607  2.1759 -0.5331
  140MOL    H4022558   3.763   1.981   0.198 -0.4185  0.2623 -0.5469
  140MOL    H4122559   3.827   2.024   0.061 -0.2122 -0.6400  0.7607
  140MOL    C4222560   4.016   1.907   0.195 -0.2481  0.7028  0.3085
  140MOL    C4322561   4.144   1.821   0.201  0.0713 -0.2610 -0.5527
  140MOL    N4422562   4.244   1.913   0.134  0.2044  0.3305  0.0637
  140MOL    H4522563   4.034   2.011   0.168  2.5278  0.5949  1.5782
  140MOL    H4622564   3.976   1.915   0.297 -0.2930  3.5881  0.1251
  140MOL    H4722565   4.138   1.726   0.148  0.4186 -0.8988  0.5224
  140MOL    H4822566   4.324   1.858   0.107 -1.5967 -1.4073 -1.8987
  140MOL    H4922567   4.213   1.947   0.044  0.3435 -3.3654 -1.4550
  140MOL    C5022568   4.192   1.798   0.347 -0.2859  0.7555  0.0512
  140MOL    C5122569   4.130   1.682   0.429 -0.7755 -0.5457 -0.5798
  140MOL    N5222570   4.177   1.560   0.374 -0.2183  0.2464  0.1266
  140MOL    H5322571   4.298   1.776   0.343 -0.8570 -1.9063 -1.2472
  140MOL    H5422572   4.172   1.890   0.402 -1.0231 -0.1554  1.3420
  140MOL    H5522573   4.021   1.676   0.418 -1.1877  0.1185  2.5801
  140MOL    H5622574   4.277   1.563   0.385  0.6620  2.5357 -6.3041
  140MOL    H5722575   4.164   1.581   0.276  1.3508  1.4402  0.1565
  140MOL    C5822576   4.171   1.696   0.577  0.3080 -0.0978 -0.7821
  140MOL    C5922577   4.078   1.773   0.667  0.3377  0.6280  0.0236
  140MOL    N6022578   3.990   1.677   0.734 -0.1521 -0.0182  0.0716
  140MOL    H6122579   4.180   1.593   0.611  1.6394  1.3470  3.6717
  140MOL    H6222580   4.270   1.741   0.588 -1.1520  3.1263 -0.1306
  140MOL    H6322581   4.008   1.826   0.602  1.1003  1.3132 -0.2483
  140MOL    H6422582   3.922   1.728   0.790 -0.6951 -0.0821 -0.5277
  140MOL    H6522583   3.934   1.638   0.660  2.1154 -2.3287 -0.4865
  140MOL    C6622584   4.148   1.869   0.773  0.1340 -0.8521  0.0985
  140MOL    C6722585   4.222   1.793   0.891 -0.1064  0.0377  0.0439
  140MOL    N6822586   4.363   1.783   0.847 -0.2941  0.1683 -0.9955
  140MOL    H6922587   4.209   1.946   0.726 -0.9044 -0.2478 -0.2877
  140MOL    H7022588   4.071   1.927   0.825 -1.0193  0.4452 -2.9508
  140MOL    H7122589   4.167   1.701   0.910 -2.1666  0.8432 -1.8574
  140MOL    H7222590   4.413   1.871   0.837  0.3303  0.2427  2.2458
  140MOL    H7322591   4.365   1.735   0.759 -1.6479  2.8307 -2.5552
  140MOL    C7422592   4.219   1.879   1.019  0.4538  0.4063  0.4027
  140MOL    C7522593   4.085   1.897   1.089 -0.0415  0.2596  0.1444
  140MOL    N7622594   4.087   1.800   1.194 -0.1287 -0.2262 -0.0230
  140MOL    H7722595   4.294   1.842   1.089 -2.4302  0.2032  3.5121
  140MOL    H7822596   4.258   1.979   1.000 -0.2948  0.6594  0.1891
  140MOL    H7922597   3.999   1.871   1.028 -0.3482 -0.0867  0.7094
  140MOL    H8022598   4.098   1.713   1.145 -1.0297 -1.0234  1.1808
  140MOL    H8122599   3.990   1.800   1.222  0.3286  1.6797  1.6636
  140MOL    C8222600   4.065   2.039   1.145  0.1480  0.1364 -0.4581
  140MOL    C8322601   4.046   2.154   1.035 -0.6324 -0.4900  0.1944
  140MOL    N8422602   3.913   2.143   0.975  0.0693 -0.2599 -0.2727
  140MOL    H8522603   3.978   2.043   1.210 -0.8808  1.1061 -1.8659
  140MOL    H8622604   4.154   2.049   1.207 -0.4633  2.5640  0.0683
  140MOL    H8722605   4.119   2.151   0.954 -0.5596  3.8827 -0.0482
  140MOL    H8822606   3.910   2.209   0.899  2.5681  0.1353 -0.0656
  140MOL    H8922607   3.842   2.186   1.033  0.2455  2.6257 -2.0412
  140MOL    C9022608   4.070   2.298   1.095  0.2506 -0.1379  0.2787
  140MOL    C9122609   4.208   2.307   1.156  1.0308 -0.5089 -0.7086
  140MOL    N9222610   4.313   2.291   1.054 -0.4580  0.0261 -0.1410
  140MOL    H9322611   4.050   2.383   1.030  0.5952  1.4098  2.1631
  140MOL    H9422612   4.005   2.317   1.181  0.4593  2.6705 -0.1370
  140MOL    H9522613   4.220   2.245   1.245  0.9367 -0.2032 -0.4816
  140MOL    H9622614   4.332   2.195   1.030 -1.9344 -0.9935  2.5774
  140MOL    H9722615   4.270   2.332   0.971 -0.4138 -1.2031 -0.7730
  140MOL    C9822616   4.227   2.445   1.216 -0.1418  0.6093 -0.1087
  140MOL    C9922617   4.234   2.436   1.370  0.1055 -0.2743 -0.0622
  140MOL   N10022618   4.277   2.570   1.412  0.1433 -0.2442  0.3776
  140MOL   H10122619   4.324   2.488   1.189  1.4096 -2.4092  0.5214
  140MOL   H10222620   4.150   2.512   1.178 -0.0222  0.3184 -0.8566
  140MOL   H10322621   4.317   2.372   1.399  1.3959  0.6439 -1.6658
  140MOL   H10422622   4.206   2.642   1.405  1.9069  1.4037 -1.2465
  140MOL   H10522623   4.304   2.562   1.509  0.4345 -0.4363  0.2831
  140MOL   C10622624   4.107   2.400   1.460  0.6156 -0.2880  0.2595
  140MOL   C10722625   4.059   2.252   1.474  0.3764 -0.2605  0.3562
  140MOL   N10822626   4.127   2.183   1.578 -0.1869 -0.1057  0.1051
  140MOL   H10922627   4.116   2.443   1.560  2.0389  0.0528 -0.0022
  140MOL   H11022628   4.030   2.460   1.412  0.4972 -0.9467 -0.3887
  140MOL   H11122629   4.056   2.198   1.379  0.2318 -0.3652  0.4199
  140MOL   H11222630   4.135   2.227   1.669 -0.9565  0.0259  0.1125
  140MOL   H11322631   4.085   2.093   1.599  0.3663 -0.2436  0.6669
  140MOL   C11422632   3.915   2.257   1.515 -0.2134  0.0394  0.3802
  140MOL   C11522633   3.799   2.303   1.421 -0.6154 -0.5346  0.0818
  140MOL   N11622634   3.770   2.216   1.312 -0.3788  0.0027  0.9019
  140MOL   H11722635   3.883   2.159   1.552 -2.4978  0.8155  0.5677
  140MOL   H11822636   3.911   2.326   1.599 -0.0166  0.5700 -0.0425
  140MOL   H11922637   3.823   2.401   1.379 -1.0937 -0.0499  0.9288
  140MOL   H12022638   3.843   2.224   1.242 -0.6961 -2.9534  0.1942
  140MOL   H12122639   3.688   2.253   1.266 -0.0316 -0.6867 -0.3091
  140MOL   C12222640   3.671   2.320   1.509  0.0641 -0.1772 -0.3769
  140MOL   C12322641   3.650   2.459   1.574 -0.3710 -0.5902 -0.0330
  140MOL   N12422642   3.515   2.504   1.549  0.0666 -0.1297  0.5920
  140MOL   H12522643   3.589   2.293   1.443  2.3143 -1.5903 -2.6655
  140MOL   H12622644   3.671   2.235   1.578 -1.0863 -0.3908 -0.6361
  140MOL   H12722645   3.709   2.538   1.528 -1.4075 -0.3034 -0.8974
  140MOL   H12822646   3.445   2.455   1.602 -0.0167  0.2019  0.7935
  140MOL   H12922647   3.513   2.600   1.581  1.8558  0.0067  0.3454
  140MOL   C13022648   3.688   2.461   1.727 -0.5587  0.0639  0.6339
  140MOL   C13122649   3.751   2.593   1.785 -0.1120 -0.1794 -0.5039
  140MOL   N13222650   3.741   2.593   1.929 -0.6119 -0.5089  0.2353
  140MOL   H13322651   3.603   2.422   1.782  0.4834 -0.1138  2.1476
  140MOL   H13422652   3.760   2.383   1.750  0.4032  0.8924  0.5047
  140MOL   H13522653   3.700   2.674   1.733  1.4706  0.2236 -1.4781
  140MOL   H13622654   3.802   2.660   1.973 -2.7267  0.3243  2.0142
  140MOL   H13722655   3.766   2.502   1.965  0.7316  0.1151  0.9138
  140MOL   C13822656   3.897   2.603   1.744 -0.2743 -0.3947 -0.1606
  140MOL   C13922657   3.962   2.749   1.767  0.6270  0.5102  0.4276
  140MOL   N14022658   4.103   2.722   1.749 -0.8067  0.6997  0.0889
  140MOL   H14122659   3.952   2.530   1.803  2.4477 -0.4779 -2.7275
  140MOL   H14222660   3.906   2.570   1.641 -1.4393  0.6151 -0.6008
  140MOL   H14322661   3.954   2.788   1.868 -0.9828 -1.7592  1.2299
  140MOL   H14422662   4.124   2.648   1.815  1.1359  0.4811 -0.7279
  140MOL   H14522663   4.170   2.798   1.757 -0.8542  0.6177  1.2710
  140MOL   C14622664   3.918   2.864   1.672  0.5765  0.3925 -0.1243
  140MOL   C14722665   3.795   2.935   1.726  0.8485  0.4479 -0.4895
  140MOL   N14822666   3.831   3.055   1.800  0.3175 -0.4358  0.4700
  140MOL   H14922667   4.004   2.929   1.660  0.0051  1.1331 -0.2396
  140MOL   H15022668   3.879   2.814   1.583 -0.1674  0.4232  0.1759
  140MOL   H15122669   3.737   2.875   1.796  1.7209  0.1535 -0.0150
  140MOL   H15222670   3.902   3.116   1.763  0.0571 -0.4525 -0.0637
  140MOL   H15322671   3.754   3.113   1.833  0.4592  0.9136 -1.5167
  140MOL   C15422672   3.706   2.988   1.615  0.2799 -0.3663 -0.1796
  140MOL   C15522673   3.605   2.892   1.562  0.0420 -0.2193  0.2346
  140MOL   N15622674   3.480   2.896   1.638  1.0544 -0.3224 -0.8498
  140MOL   H15722675   3.645   3.075   1.638 -1.0499 -0.5480 -2.8721
  140MOL   H15822676   3.765   3.023   1.531  1.7052 -0.9116  0.5755
  140MOL   H15922677   3.652   2.795   1.572  0.8173 -0.1504 -2.4575
  140MOL   H16022678   3.442   2.989   1.637  1.4805 -0.1121  0.8254
  140MOL   H16122679   3.499   2.869   1.733  0.6759 -1.2158 -1.0223
  140MOL   H16222680   3.586   2.913   1.457 -1.3193 -1.2215  0.2658
  141MOL     C122681   5.381   4.668   4.135 -0.3329 -0.4010  0.2591
  141MOL     C222682   5.409   4.807   4.072 -0.0410 -0.4586 -0.2571
  141MOL     N322683   5.516   4.800   3.972  0.2533 -0.0583  0.0818
  141MOL     H422684   5.476   4.621   4.157 -0.8905 -1.1526  1.1146
  141MOL     H522685   5.322   4.604   4.070 -1.5040  0.9563 -0.0398
  141MOL     H622686   5.457   4.867   4.150  0.5662 -1.1221 -0.1180
  141MOL     H722687   5.491   4.754   3.886  0.7332  2.7100 -1.6220
  141MOL     H822688   5.523   4.894   3.936 -0.1044  0.6984  1.9303
  141MOL     H922689   5.321   4.681   4.226  0.6664  0.9273  0.7478
  141MOL    C1022690   5.279   4.866   4.017 -0.1011  0.2341 -0.1108
  141MOL    C1122691   5.289   5.012   3.964 -0.3760 -0.2539  0.1078
  141MOL    N1222692   5.180   5.030   3.867 -0.9801  0.8441  0.5569
  141MOL    H1322693   5.243   4.802   3.936 -1.2086 -0.2035  0.7243
  141MOL    H1422694   5.201   4.863   4.092 -2.1710  2.8696 -2.0443
  141MOL    H1522695   5.381   5.034   3.909 -0.4901 -1.3497 -0.5308
  141MOL    H1622696   5.223   5.096   3.804 -0.8099 -0.3086 -0.5560
  141MOL    H1722697   5.173   4.943   3.817  0.9105  0.9465  0.0886
  141MOL    C1822698   5.285   5.104   4.087  0.1802  0.3272 -0.0299
  141MOL    C1922699   5.354   5.240   4.067  0.4743  0.1523 -0.6115
  141MOL    N2022700   5.258   5.339   4.111  0.5048  0.0388  0.0297
  141MOL    H2122701   5.189   5.117   4.135  0.9256  0.2878  1.4845
  141MOL    H2222702   5.329   5.049   4.170 -1.8080  0.3313  1.0586
  141MOL    H2322703   5.391   5.243   3.964 -0.3873  1.3210 -0.9002
  141MOL    H2422704   5.182   5.325   4.046  0.9426  0.8195 -0.6714
  141MOL    H2522705   5.220   5.313   4.201  0.7958 -1.8918 -0.3846
  141MOL    C2622706   5.476   5.274   4.153  0.9804 -0.5139 -0.1705
  141MOL    C2722707   5.594   5.181   4.139 -0.2460 -0.5785  0.7667
  141MOL    N2822708   5.650   5.189   4.003 -0.9383 -0.2960  0.2842
  141MOL    H2922709   5.513   5.371   4.120 -1.8176  0.5342 -0.3182
  141MOL    H3022710   5.443   5.277   4.257 -0.3835 -1.6614 -0.5463
  141MOL    H3122711   5.556   5.081   4.157  0.1382 -0.7501  0.6327
  141MOL    H3222712   5.750   5.193   4.018 -1.0742  1.1593  0.8715
  141MOL    H3322713   5.631   5.102   3.955 -2.4595  0.7807 -1.1266
  141MOL    C3422714   5.709   5.192   4.235  0.9566 -0.0441  0.9004
  141MOL    C3522715   5.765   5.336   4.233 -0.3121 -0.0297  0.0373
  141MOL    N3622716   5.675   5.418   4.317 -0.7748 -0.3365 -0.1640
  141MOL    H3722717   5.661   5.171   4.331 -1.0745  0.9344  0.1297
  141MOL    H3822718   5.792   5.123   4.219 -0.7360 -2.1056  0.6713
  141MOL    H3922719   5.766   5.369   4.129 -0.2573  1.8170  0.5994
  141MOL    H4022720   5.614   5.460   4.249 -0.9910  0.9222  0.7667
  141MOL    H4122721   5.731   5.497   4.348 -2.8512  1.8363 -1.7481
  141MOL    C4222722   5.910   5.340   4.302 -0.0302 -0.5036  0.6395
  141MOL    C4322723   6.019   5.279   4.220  0.3709 -0.0502  0.0994
  141MOL    N4422724   6.038   5.374   4.116 -0.0386  0.0197  0.1550
  141MOL    H4522725   5.943   5.440   4.330  2.0500 -0.7561 -0.8194
  141MOL    H4622726   5.907   5.295   4.401  0.4399 -2.0024 -0.0209
  141MOL    H4722727   6.001   5.177   4.188 -1.0129  0.2913 -0.2272
  141MOL    H4822728   6.061   5.320   4.033  2.7958 -0.5515  1.2682
  141MOL    H4922729   5.942   5.396   4.092 -0.4672 -1.4896  0.4068
  141MOL    C5022730   6.147   5.279   4.312 -0.0587 -0.4794  0.1839
  141MOL    C5122731   6.146   5.172   4.431 -0.8221  0.0541 -0.2150
  141MOL    N5222732   6.191   5.044   4.383  0.1613  0.2477  0.0743
  141MOL    H5322733   6.239   5.259   4.256 -0.0920  2.8423 -1.1620
  141MOL    H5422734   6.156   5.383   4.343 -0.5183  0.7732 -3.5868
  141MOL    H5522735   6.043   5.159   4.463 -0.6755  1.2425  0.8103
  141MOL    H5622736   6.160   5.038   4.287  1.0630 -0.4467 -0.1825
  141MOL    H5722737   6.289   5.063   4.366  0.0978  0.1092 -0.4389
  141MOL    C5822738   6.231   5.220   4.547  0.4077  0.3900  0.3618
  141MOL    C5922739   6.233   5.119   4.664 -0.3636  0.3546  0.2178
  141MOL    N6022740   6.372   5.114   4.708  0.2386 -0.5748 -0.6233
  141MOL    H6122741   6.333   5.236   4.510  0.1842 -0.7459 -0.7924
  141MOL    H6222742   6.195   5.321   4.570  0.2770  0.4534 -0.1080
  141MOL    H6322743   6.203   5.018   4.635  0.3726 -0.4356  2.1503
  141MOL    H6422744   6.413   5.070   4.627  2.4996 -3.7326  2.1078
  141MOL    H6522745   6.371   5.037   4.774 -0.5183 -0.2559 -0.2569
  141MOL    C6622746   6.147   5.167   4.782 -0.3049 -0.8838  0.1678
  141MOL    C6722747   5.996   5.124   4.791  0.3126  0.6506  0.2460
  141MOL    N6822748   5.982   5.012   4.883 -0.5404 -0.2078  1.3604
  141MOL    H6922749   6.200   5.150   4.876  0.5857 -0.6115 -0.2829
  141MOL    H7022750   6.161   5.275   4.783 -1.0637 -0.7807  1.4806
  141MOL    H7122751   5.971   5.099   4.688  3.0632 -1.5570  0.0730
  141MOL    H7222752   6.039   5.032   4.964  1.7288 -0.8971 -0.0055
  141MOL    H7322753   5.885   4.995   4.904 -1.1567 -0.7302 -1.7194
  141MOL    C7422754   5.909   5.235   4.856  0.4667 -0.0365 -0.1026
  141MOL    C7522755   5.875   5.374   4.778 -0.5656 -0.5447 -0.2750
  141MOL    N7622756   5.758   5.431   4.842 -0.4490 -0.2999  0.6273
  141MOL    H7722757   5.811   5.190   4.871  0.5853  0.2109  1.4835
  141MOL    H7822758   5.928   5.267   4.959 -1.8120  2.7090 -0.4689
  141MOL    H7922759   5.843   5.341   4.679 -0.8257  2.3113 -1.2039
  141MOL    H8022760   5.743   5.394   4.935 -0.9376 -3.0749 -0.5047
  141MOL    H8122761   5.769   5.530   4.859 -1.0056  0.3780 -2.7466
  141MOL    C8222762   5.992   5.482   4.768 -0.7454 -0.5776 -0.5932
  141MOL    C8322763   5.951   5.615   4.704  0.7488  0.8533  0.0333
  141MOL    N8422764   6.052   5.718   4.721  0.3716  0.0116 -0.3150
  141MOL    H8522765   6.044   5.486   4.863 -0.9019  2.5884 -0.5869
  141MOL    H8622766   6.077   5.450   4.708  0.5762 -2.8912  2.3936
  141MOL    H8722767   5.865   5.645   4.764  0.0145 -0.3981 -0.3765
  141MOL    H8822768   6.030   5.806   4.676 -2.0981 -0.4818 -0.1767
  141MOL    H8922769   6.130   5.679   4.670  1.4513 -0.9452  2.0170
  141MOL    C9022770   5.900   5.611   4.554 -0.1645 -0.0917  1.0924
  141MOL    C9122771   5.834   5.739   4.507  0.2453  0.2245  0.6438
  141MOL    N9222772   5.793   5.714   4.367  0.6894  1.2079  0.0683
  141MOL    H9322773   5.986   5.578   4.497  0.4631  1.0230  1.3728
  141MOL    H9422774   5.829   5.529   4.546  0.7150 -0.7129 -0.4232
  141MOL    H9522775   5.913   5.814   4.511  0.7178 -0.2900  1.1515
  141MOL    H9622776   5.869   5.719   4.301 -0.1972 -2.0652 -1.2664
  141MOL    H9722777   5.735   5.790   4.332  0.1012  0.1748 -1.2481
  141MOL    C9822778   5.701   5.785   4.571  0.3084 -0.4385  0.3256
  141MOL    C9922779   5.703   5.871   4.698  0.4873  0.1360 -0.7449
  141MOL   N10022780   5.730   6.007   4.665 -0.3113 -0.3237 -0.2579
  141MOL   H10122781   5.654   5.848   4.495 -2.0138 -2.7724 -0.2540
  141MOL   H10222782   5.633   5.700   4.576 -0.8621  0.3154 -1.8436
  141MOL   H10322783   5.776   5.837   4.771 -0.0832 -0.4323 -0.4337
  141MOL   H10422784   5.821   6.007   4.621 -0.2833 -2.3001 -0.2794
  141MOL   H10522785   5.757   6.056   4.749 -0.2118 -1.1683  0.2149
  141MOL   C10622786   5.571   5.877   4.772 -0.3405  0.7685 -0.1066
  141MOL   C10722787   5.540   5.742   4.844  0.0892 -0.2133 -0.9070
  141MOL   N10822788   5.627   5.738   4.961  0.1061 -0.7083  0.3563
  141MOL   H10922789   5.572   5.960   4.843  1.0199  2.5457 -2.1468
  141MOL   H11022790   5.493   5.902   4.700 -0.7901  0.6165  0.3236
  141MOL   H11122791   5.564   5.660   4.776  0.1417 -0.0706 -1.0586
  141MOL   H11222792   5.612   5.648   5.004  2.0148 -2.1722 -1.9192
  141MOL   H11322793   5.597   5.794   5.039 -0.6416 -0.7185  0.0738
  141MOL   C11422794   5.395   5.719   4.892  0.0891  0.1249 -0.2698
  141MOL   C11522795   5.368   5.570   4.937  0.6645  0.4930 -0.6898
  141MOL   N11622796   5.243   5.564   5.014  0.1913  0.1222  0.4284
  141MOL   H11722797   5.374   5.778   4.981  0.0806 -0.3925  0.0724
  141MOL   H11822798   5.325   5.754   4.816 -0.5126 -0.4005  0.0431
  141MOL   H11922799   5.445   5.540   5.007  0.6062  1.6063 -0.1407
  141MOL   H12022800   5.234   5.644   5.075 -1.7436  0.7638 -0.6322
  141MOL   H12122801   5.164   5.567   4.950  0.4005  0.5053  0.1846
  141MOL   C12222802   5.360   5.460   4.832 -0.1305 -0.3434  0.3847
  141MOL   C12322803   5.427   5.321   4.861  0.7245 -0.2243  0.2372
  141MOL   N12422804   5.379   5.267   4.992  0.1777 -0.3465  0.6242
  141MOL   H12522805   5.254   5.444   4.808  0.4009  0.1264 -2.4817
  141MOL   H12622806   5.403   5.499   4.740  1.9974  0.8793  1.8884
  141MOL   H12722807   5.536   5.325   4.871  0.6346  0.0186  1.1780
  141MOL   H12822808   5.398   5.167   4.988  0.6870 -0.1959 -2.4245
  141MOL   H12922809   5.280   5.262   4.976  0.0022 -0.9479  1.8540
  141MOL   C13022810   5.387   5.214   4.750  0.5533  0.5880 -0.4812
  141MOL   C13122811   5.441   5.238   4.610  0.3623 -0.7579 -0.4009
  141MOL   N13222812   5.586   5.250   4.601 -0.0055  0.2905 -0.1849
  141MOL   H13322813   5.404   5.114   4.789  0.9932  0.9269  0.2136
  141MOL   H13422814   5.279   5.221   4.741  0.5480  2.4415  0.7136
  141MOL   H13522815   5.403   5.329   4.564 -0.4853 -1.7583 -1.7174
  141MOL   H13622816   5.624   5.329   4.651 -0.3611  2.8312 -3.7400
  141MOL   H13722817   5.620   5.264   4.507  0.0748 -0.4040 -0.2680
  141MOL   C13822818   5.396   5.117   4.526  0.4149 -0.5598  0.3826
  141MOL   C13922819   5.244   5.099   4.498 -0.4951  0.4513  1.0309
  141MOL   N14022820   5.203   5.194   4.403 -0.1154  0.1119  0.1688
  141MOL   H14122821   5.448   5.105   4.431 -2.7821 -0.2525 -1.5112
  141MOL   H14222822   5.414   5.027   4.585  1.5499 -2.4024 -2.6555
  141MOL   H14322823   5.187   5.107   4.591  1.1881  3.4746  1.8659
  141MOL   H14422824   5.115   5.229   4.437  0.4386  1.1238  0.5896
  141MOL   H14522825   5.270   5.267   4.421 -0.0916  0.3200 -0.7016
  141MOL   C14622826   5.209   4.964   4.447 -0.7093 -0.0067  0.1468
  141MOL   C14722827   5.202   4.859   4.564  0.5219 -0.5984  0.4524
  141MOL   N14822828   5.070   4.838   4.601  0.7519  0.7731  0.0009
  141MOL   H14922829   5.115   4.966   4.392  0.2546  1.4014 -1.4920
  141MOL   H15022830   5.272   4.945   4.360  0.4442 -3.0993  1.5680
  141MOL   H15122831   5.249   4.896   4.656  2.2533 -1.8488  0.1014
  141MOL   H15222832   5.053   4.904   4.676 -0.3696  1.9824 -1.2688
  141MOL   H15322833   5.012   4.877   4.528 -0.1155 -0.7284 -0.1396
  141MOL   C15422834   5.265   4.718   4.519 -0.2955  0.5494  0.9440
  141MOL   C15522835   5.413   4.725   4.482 -0.1862  0.5518  0.1300
  141MOL   N15622836   5.470   4.589   4.484  0.7604  0.3288  0.1119
  141MOL   H15722837   5.256   4.646   4.600  3.0503  0.9559  1.7477
  141MOL   H15822838   5.194   4.679   4.446  1.5128  1.2876 -1.2748
  141MOL   H15922839   5.471   4.772   4.562  0.1429 -2.4288  1.7563
  141MOL   H16022840   5.483   4.551   4.392 -1.0849  0.1358 -0.0929
  141MOL   H16122841   5.558   4.608   4.529  0.6073  0.0053  0.5577
  141MOL   H16222842   5.434   4.778   4.389  1.9489  0.7364  0.6843
  142MOL     C122843   2.499   4.769   4.469  0.4732 -0.0085 -0.3857
  142MOL     C222844   2.429   4.807   4.596  0.0950 -1.1343  0.0314
  142MOL     N322845   2.290   4.772   4.563 -0.5613  0.1894 -0.2612
  142MOL     H422846   2.490   4.664   4.440  0.4356 -0.4806  1.2895
  142MOL     H522847   2.604   4.797   4.475  0.3799  0.2403  0.0903
  142MOL     H622848   2.428   4.916   4.604  0.7983 -0.9827 -1.6861
  142MOL     H722849   2.289   4.674   4.537 -0.9090  0.2282 -0.3954
  142MOL     H822850   2.224   4.776   4.639 -1.0225 -3.6162 -0.3612
  142MOL     H922851   2.459   4.832   4.389 -1.3575  1.1063  1.3610
  142MOL    C1022852   2.467   4.732   4.721  0.1241 -0.4790  0.1886
  142MOL    C1122853   2.598   4.794   4.791 -0.9103  0.3667  0.1003
  142MOL    N1222854   2.566   4.830   4.925 -0.0043 -0.0810  0.3639
  142MOL    H1322855   2.390   4.725   4.799  0.1888  0.4190  0.3383
  142MOL    H1422856   2.468   4.626   4.694 -0.8279 -0.3832 -0.2402
  142MOL    H1522857   2.632   4.889   4.750 -2.9542  0.6617 -1.0210
  142MOL    H1622858   2.648   4.881   4.955 -0.1438  1.2333 -1.3810
  142MOL    H1722859   2.496   4.903   4.920  0.6741  0.5720  0.3695
  142MOL    C1822860   2.713   4.691   4.793  0.1038  0.1555  0.0517
  142MOL    C1922861   2.846   4.730   4.861  0.4448 -0.2374  0.7021
  142MOL    N2022862   2.823   4.705   5.000  0.5695 -0.2109 -0.1903
  142MOL    H2122863   2.676   4.602   4.844  1.3008  0.6849  1.8885
  142MOL    H2222864   2.734   4.674   4.687  1.9033  1.5407  0.1582
  142MOL    H2322865   2.856   4.835   4.834  1.3137 -0.5210 -0.1145
  142MOL    H2422866   2.847   4.608   5.016  0.5781 -0.1639  0.0923
  142MOL    H2522867   2.723   4.718   4.999  0.7129  0.8698 -2.2166
  142MOL    C2622868   2.972   4.651   4.811 -0.3375 -0.2235 -0.2762
  142MOL    C2722869   3.107   4.702   4.865 -0.9109  0.0300 -0.4302
  142MOL    N2822870   3.102   4.676   5.006 -0.0700 -0.3801  0.3669
  142MOL    H2922871   2.957   4.550   4.849  0.7777 -0.2612  0.0781
  142MOL    H3022872   2.979   4.663   4.702  0.1253  1.2787 -0.0919
  142MOL    H3122873   3.118   4.809   4.849  2.5506 -0.2961 -0.6520
  142MOL    H3222874   3.108   4.576   5.016 -1.2070 -0.3764  1.1500
  142MOL    H3322875   3.008   4.705   5.027  0.2087  0.5636  0.3327
  142MOL    C3422876   3.231   4.622   4.814  0.2040 -0.0806  0.4355
  142MOL    C3522877   3.267   4.629   4.662  0.2880 -0.3472  0.5094
  142MOL    N3622878   3.402   4.660   4.648 -0.0652  0.7242 -0.3176
  142MOL    H3722879   3.320   4.649   4.871  1.2139 -1.0802 -0.6425
  142MOL    H3822880   3.210   4.517   4.836 -0.4377  0.2182  1.2370
  142MOL    H3922881   3.214   4.712   4.616 -0.2315 -1.9485 -1.8987
  142MOL    H4022882   3.415   4.758   4.671  3.3270 -0.0849  1.3362
  142MOL    H4122883   3.419   4.648   4.549 -2.1802  0.7548 -0.7255
  142MOL    C4222884   3.247   4.500   4.580  0.4917 -0.3032  0.2897
  142MOL    C4322885   3.104   4.432   4.580 -0.2196  0.3274 -0.1380
  142MOL    N4422886   3.014   4.451   4.467  0.6363 -0.3685  0.3718
  142MOL    H4522887   3.290   4.513   4.481  2.1940  1.9608  1.2620
  142MOL    H4622888   3.314   4.422   4.615 -1.0512 -1.5853  0.4104
  142MOL    H4722889   3.052   4.464   4.669  1.5837  2.0422  0.3399
  142MOL    H4822890   2.935   4.389   4.457  0.8241 -0.6257  0.5108
  142MOL    H4922891   2.978   4.544   4.486  1.0078 -0.0682 -0.3524
  142MOL    C5022892   3.119   4.275   4.573 -0.2079  0.0820 -0.1038
  142MOL    C5122893   3.186   4.214   4.706 -0.8052  0.1233 -0.3864
  142MOL    N5222894   3.066   4.179   4.788 -0.3157 -0.3782 -0.2861
  142MOL    H5322895   3.018   4.236   4.559 -0.1169 -0.4223  0.6164
  142MOL    H5422896   3.176   4.248   4.485 -0.5937  0.5236 -0.4869
  142MOL    H5522897   3.256   4.282   4.756 -0.0013 -0.4357 -0.7402
  142MOL    H5622898   3.044   4.262   4.841 -0.6749 -1.2275  0.9143
  142MOL    H5722899   3.082   4.110   4.860  1.7148  0.7126  0.3485
  142MOL    C5822900   3.259   4.086   4.674 -0.0595  0.4507 -0.0889
  142MOL    C5922901   3.404   4.115   4.615 -0.0907  0.4934  0.3245
  142MOL    N6022902   3.484   4.175   4.714  0.5611  0.5068 -0.2507
  142MOL    H6122903   3.262   4.011   4.752 -0.4178  0.7471  0.2131
  142MOL    H6222904   3.209   4.036   4.592 -0.8885  0.1654  0.5823
  142MOL    H6322905   3.401   4.178   4.526  0.2559 -0.6232 -0.4900
  142MOL    H6422906   3.532   4.238   4.651  0.3761  0.1640 -0.7382
  142MOL    H6522907   3.427   4.227   4.778  2.7111  1.1139  1.2280
  142MOL    C6622908   3.479   3.984   4.555 -0.1214  0.3047 -0.2093
  142MOL    C6722909   3.413   3.937   4.428  0.2337 -0.5162  0.4486
  142MOL    N6822910   3.472   4.021   4.325  0.3189 -0.1470  0.2171
  142MOL    H6922911   3.584   4.012   4.543  0.3500 -1.7461 -1.0596
  142MOL    H7022912   3.479   3.898   4.622 -1.0327  1.1622  0.9017
  142MOL    H7122913   3.307   3.961   4.422  0.4498 -0.0454 -1.9267
  142MOL    H7222914   3.517   4.103   4.364 -0.7989  0.8140 -0.4770
  142MOL    H7322915   3.409   4.059   4.256  1.5403 -0.1174 -0.9077
  142MOL    C7422916   3.437   3.783   4.388  0.1288 -0.9407  0.4740
  142MOL    C7522917   3.347   3.695   4.473 -0.0193 -0.0082  0.0383
  142MOL    N7622918   3.214   3.728   4.449  0.4564  0.4198 -0.0694
  142MOL    H7722919   3.420   3.772   4.281  2.9095 -0.0042 -0.1190
  142MOL    H7822920   3.541   3.761   4.415  0.5448  0.3533 -0.0230
  142MOL    H7922921   3.366   3.716   4.578  2.4250 -0.1341 -0.3479
  142MOL    H8022922   3.223   3.829   4.454 -0.7934  0.5607 -0.5078
  142MOL    H8122923   3.207   3.707   4.351 -1.3248 -4.3826  0.9281
  142MOL    C8222924   3.364   3.541   4.458  0.4638  0.6296 -0.4655
  142MOL    C8322925   3.492   3.476   4.507  0.5049 -0.6996 -0.5527
  142MOL    N8422926   3.463   3.382   4.615 -0.2814  0.1707 -0.0293
  142MOL    H8522927   3.278   3.493   4.504  0.1186  1.3829 -0.3179
  142MOL    H8622928   3.352   3.522   4.351 -0.8231 -0.3696 -0.1443
  142MOL    H8722929   3.562   3.546   4.552  0.6029 -0.5552 -0.9218
  142MOL    H8822930   3.418   3.305   4.568 -0.1543  0.2850 -0.3391
  142MOL    H8922931   3.388   3.407   4.678 -1.3501 -1.3870 -0.6566
  142MOL    C9022932   3.583   3.412   4.402  0.0701  0.5661 -0.1324
  142MOL    C9122933   3.680   3.502   4.327  0.1247  0.0156 -1.1092
  142MOL    N9222934   3.792   3.540   4.411 -0.4669 -0.1128 -0.4010
  142MOL    H9322935   3.638   3.342   4.463 -2.1849 -0.8926  0.2978
  142MOL    H9422936   3.521   3.361   4.327 -0.5266  0.4305  0.4495
  142MOL    H9522937   3.617   3.587   4.300  2.9483  1.8574 -2.0519
  142MOL    H9622938   3.867   3.585   4.360 -0.3801  1.6914  1.2552
  142MOL    H9722939   3.770   3.614   4.476 -0.0813  0.8062 -1.3127
  142MOL    C9822940   3.721   3.437   4.196 -0.7752 -0.1514  0.2955
  142MOL    C9922941   3.685   3.507   4.069  0.1092 -0.1718 -0.3426
  142MOL   N10022942   3.759   3.434   3.963  0.3346  0.3208 -0.8137
  142MOL   H10122943   3.829   3.455   4.190 -1.1272  2.1630  0.1765
  142MOL   H10222944   3.692   3.333   4.202  1.0349 -0.6841  0.1877
  142MOL   H10322945   3.720   3.610   4.070 -0.7527  0.1334 -0.6449
  142MOL   H10422946   3.839   3.397   4.013 -0.1075  1.1244  0.5169
  142MOL   H10522947   3.706   3.355   3.929 -0.8245  0.7920 -0.1304
  142MOL   C10622948   3.534   3.510   4.031 -0.5650 -0.1594  0.0298
  142MOL   C10722949   3.503   3.580   3.893 -0.1676 -0.3935 -0.3842
  142MOL   N10822950   3.387   3.506   3.847 -0.3001 -0.1624  0.2615
  142MOL   H10922951   3.499   3.406   4.029 -3.8811  0.8874  0.8490
  142MOL   H11022952   3.479   3.563   4.108  2.2645 -0.9118  2.6723
  142MOL   H11122953   3.580   3.568   3.817 -0.7191 -0.1217 -0.9871
  142MOL   H11222954   3.413   3.419   3.803 -1.1676 -0.5850  0.5889
  142MOL   H11322955   3.353   3.543   3.759 -0.7906  1.4296  1.0985
  142MOL   C11422956   3.463   3.729   3.898  0.2624 -0.2704 -0.3485
  142MOL   C11522957   3.591   3.814   3.910 -0.6827  0.5125  0.1525
  142MOL   N11622958   3.579   3.927   3.821 -0.7323 -0.1644  0.9087
  142MOL   H11722959   3.406   3.750   3.808  0.2101 -0.9895 -0.4918
  142MOL   H11822960   3.393   3.743   3.981 -0.1957 -0.0622 -0.7664
  142MOL   H11922961   3.677   3.753   3.882 -0.9599 -0.4145  1.2734
  142MOL   H12022962   3.663   3.979   3.841 -0.4142  0.2340 -1.3621
  142MOL   H12122963   3.494   3.979   3.839 -0.0592  1.1293  0.3745
  142MOL   C12222964   3.614   3.858   4.058  0.4157 -0.0796 -0.6205
  142MOL   C12322965   3.740   3.948   4.089 -0.1419  0.1562 -0.1390
  142MOL   N12422966   3.744   3.949   4.236  0.2741  0.3205 -0.0922
  142MOL   H12522967   3.527   3.917   4.085 -0.4057 -1.0274 -1.1673
  142MOL   H12622968   3.614   3.777   4.131  1.3662 -0.3460 -0.9028
  142MOL   H12722969   3.723   4.046   4.046  0.0149 -0.6705 -2.1150
  142MOL   H12822970   3.782   3.861   4.267  1.6937  0.9308 -0.0330
  142MOL   H12922971   3.649   3.957   4.268  0.6610 -1.1946  1.5029
  142MOL   C13022972   3.878   3.889   4.044 -0.0115  0.8322 -0.8667
  142MOL   C13122973   3.921   3.927   3.900 -0.2853  0.0932  0.2648
  142MOL   N13222974   3.942   4.071   3.896 -0.3492 -0.0687  0.9929
  142MOL   H13322975   3.958   3.939   4.098 -1.1341  0.3622  1.2752
  142MOL   H13422976   3.868   3.781   4.032 -1.1521  1.0761 -2.2297
  142MOL   H13522977   3.852   3.899   3.820  0.7233  1.6754 -1.2083
  142MOL   H13622978   4.018   4.098   3.957  0.9036 -1.5122  0.0906
  142MOL   H13722979   3.860   4.122   3.926 -0.4383  1.2723 -1.4036
  142MOL   C13822980   4.052   3.865   3.868  0.3516 -0.6187 -0.9833
  142MOL   C13922981   4.057   3.722   3.809  0.7408 -0.4861 -0.2462
  142MOL   N14022982   4.057   3.627   3.915 -0.1852  0.0135  0.2674
  142MOL   H14122983   4.103   3.923   3.792 -0.5005 -0.2345 -1.2629
  142MOL   H14222984   4.123   3.870   3.951  1.8678 -2.4344 -2.1411
  142MOL   H14322985   4.154   3.699   3.765  0.5900 -0.0174 -0.8316
  142MOL   H14422986   3.979   3.658   3.972  0.8396  0.7128  1.3087
  142MOL   H14522987   4.019   3.545   3.869  0.1409  1.6718 -3.1528
  142MOL   C14622988   3.962   3.676   3.692 -0.3483  0.0090  0.4294
  142MOL   C14722989   3.992   3.539   3.636 -0.4957 -0.3530  0.4818
  142MOL   N14822990   3.884   3.450   3.676  0.0867  0.0208 -0.1540
  142MOL   H14922991   3.856   3.688   3.715 -0.2308  0.4498  0.7534
  142MOL   H15022992   3.980   3.754   3.618 -0.1491 -2.0212 -1.7305
  142MOL   H15122993   4.079   3.493   3.681  0.1839 -0.3008 -0.7571
  142MOL   H15222994   3.798   3.470   3.626 -0.5323  2.5067  1.8223
  142MOL   H15322995   3.855   3.480   3.768 -2.7829 -0.5916 -0.8262
  142MOL   C15422996   4.001   3.531   3.487  0.1876  0.2593 -0.4931
  142MOL   C15522997   4.118   3.608   3.429 -0.0449  0.5310 -0.5401
  142MOL   N15622998   4.118   3.606   3.282  0.1091 -0.4558 -1.0031
  142MOL   H15722999   4.017   3.426   3.462 -2.1692 -0.2909  0.2167
  142MOL   H15823000   3.904   3.566   3.453  0.7353  1.3397 -0.9418
  142MOL   H15923001   4.212   3.578   3.475 -0.9428  1.9384  2.3164
  142MOL   H16023002   4.181   3.676   3.246  0.2558  0.8324  1.6462
  142MOL   H16123003   4.155   3.523   3.237  3.0773  1.3672 -2.0853
  142MOL   H16223004   4.093   3.712   3.450 -1.1125 -0.3386  2.7147
  143MOL     C123005   0.922   0.077   2.986 -0.2170 -0.3806  0.0061
  143MOL     C223006   0.937   0.217   3.027  0.7260  0.5587 -0.5639
  143MOL     N323007   0.847   0.297   2.950 -0.1739  0.0539  0.2117
  143MOL     H423008   0.931   0.070   2.877  3.3187  2.8953  0.0002
  143MOL     H523009   0.824   0.046   3.020 -0.0190 -1.0206  0.0065
  143MOL     H623010   1.035   0.258   3.005  0.9499 -1.3509 -3.3329
  143MOL     H723011   0.847   0.262   2.855 -0.1184 -1.6987  0.8379
  143MOL     H823012   0.878   0.393   2.943  3.0501 -0.8463  1.2028
  143MOL     H923013   0.994   0.010   3.034  0.0509 -0.6671 -0.7756
  143MOL    C1023014   0.908   0.244   3.181  0.0456  0.1235  0.9372
  143MOL    C1123015   1.013   0.181   3.273  0.5889 -0.2684  0.3780
  143MOL    N1223016   1.074   0.284   3.354 -0.3787 -0.1373  0.7374
  143MOL    H1323017   0.892   0.348   3.206 -1.9737 -0.2582  1.2649
  143MOL    H1423018   0.809   0.202   3.197 -0.5851  0.7495 -1.1935
  143MOL    H1523019   1.092   0.138   3.211  0.8894  1.1433 -0.2388
  143MOL    H1623020   1.149   0.239   3.404  0.8763 -0.7410 -1.6017
  143MOL    H1723021   1.124   0.358   3.306 -0.1096 -0.4182  0.5867
  143MOL    C1823022   0.953   0.068   3.362 -0.0733  0.0811  0.6376
  143MOL    C1923023   1.042   7.255   3.448 -1.1318 -0.6036 -0.0208
  143MOL    N2023024   0.971   7.134   3.490 -0.0848 -0.3253 -0.0563
  143MOL    H2123025   0.876   0.109   3.428  1.6178  1.2946  1.8852
  143MOL    H2223026   0.893   7.273   3.304 -2.6547  1.1876  1.8431
  143MOL    H2323027   1.083   0.029   3.536  1.2174  1.3593 -2.1520
  143MOL    H2423028   0.932   7.084   3.411  0.8364  0.1515 -0.8091
  143MOL    H2523029   1.046   7.081   3.532  1.6265  2.1818  0.1409
  143MOL    C2623030   1.170   7.212   3.376  0.5925 -0.2551  0.3799
  143MOL    C2723031   1.271   7.136   3.457 -0.9690 -0.1117  0.5118
  143MOL    N2823032   1.345   7.046   3.374 -0.2254  0.9398  0.0732
  143MOL    H2923033   1.135   7.149   3.295 -0.7553  2.0649 -0.8828
  143MOL    H3023034   1.215   0.019   3.320 -2.8461 -1.1465 -3.9556
  143MOL    H3123035   1.226   7.069   3.531 -0.3239 -0.4323  0.6102
  143MOL    H3223036   1.282   6.972   3.346  1.4920 -1.1905  1.6709
  143MOL    H3323037   1.418   6.999   3.425  0.5040  1.6841 -0.2713
  143MOL    C3423038   1.360   7.222   3.549  0.6241 -0.4814 -0.2811
  143MOL    C3523039   1.312   7.225   3.701  0.3391 -0.3148  0.1309
  143MOL    N3623040   1.362   7.111   3.771  0.4146  0.9421  0.2486
  143MOL    H3723041   1.464   7.192   3.534  0.5186 -0.0464 -1.9343
  143MOL    H3823042   1.349   0.049   3.515 -0.7215 -0.0545  1.3566
  143MOL    H3923043   1.204   7.218   3.707  0.4710 -0.7604  2.0799
  143MOL    H4023044   1.460   7.092   3.756  0.6501  0.0548  2.6774
  143MOL    H4123045   1.327   7.027   3.727  1.4921  1.1203 -0.9740
  143MOL    C4223046   1.354   0.080   3.778 -0.3495  1.5766 -0.7588
  143MOL    C4323047   1.292   0.213   3.740  0.4001  0.1071  0.0878
  143MOL    N4423048   1.147   0.209   3.733  1.0611 -0.1095 -0.0344
  143MOL    H4523049   1.335   0.060   3.883 -0.9491 -2.8574 -1.5789
  143MOL    H4623050   1.463   0.086   3.773 -0.1307 -0.6018  0.4064
  143MOL    H4723051   1.320   0.228   3.636  1.0832  1.1733  0.4147
  143MOL    H4823052   1.111   0.303   3.729  0.8354 -0.2501 -1.6228
  143MOL    H4923053   1.121   0.170   3.644 -1.6228  1.2707  0.1162
  143MOL    C5023054   1.342   0.337   3.814  0.2173  0.0250 -0.7151
  143MOL    C5123055   1.492   0.365   3.816 -0.4631  0.6243 -0.3262
  143MOL    N5223056   1.523   0.387   3.679 -0.2546  0.2202 -0.7299
  143MOL    H5323057   1.288   0.422   3.772 -2.4296 -1.0731  0.3571
  143MOL    H5423058   1.314   0.322   3.919  2.0246 -3.8540 -0.7200
  143MOL    H5523059   1.543   0.273   3.845 -0.4891  0.8100  0.3154
  143MOL    H5623060   1.508   0.485   3.661  2.4245  0.9789  0.9126
  143MOL    H5723061   1.619   0.365   3.658 -0.0895  0.2044  0.0269
  143MOL    C5823062   1.533   0.483   3.912  0.0764  0.6042  0.1386
  143MOL    C5923063   1.579   0.449   4.064  0.0113 -0.0448 -0.4856
  143MOL    N6023064   1.593   0.567   4.142  0.0937  0.6364  0.0528
  143MOL    H6123065   1.613   0.547   3.875 -0.7510  0.5934 -1.7513
  143MOL    H6223066   1.448   0.551   3.904  0.0113  0.5596  0.4639
  143MOL    H6323067   1.675   0.398   4.052 -0.3098 -0.9216  0.6158
  143MOL    H6423068   1.506   0.607   4.175 -1.6026 -2.5608 -0.3392
  143MOL    H6523069   1.645   0.536   4.222 -0.2895 -0.6440 -0.1830
  143MOL    C6623070   1.486   0.360   4.152 -0.1991 -0.9702 -0.5647
  143MOL    C6723071   1.526   0.336   4.298 -0.1621  0.1267  0.1825
  143MOL    N6823072   1.421   0.253   4.353  0.2130 -0.4016 -0.3942
  143MOL    H6923073   1.394   0.414   4.173  1.0562  1.2636 -0.7450
  143MOL    H7023074   1.465   0.265   4.101 -2.8149  0.1698 -1.6880
  143MOL    H7123075   1.523   0.427   4.358  1.2627 -0.1427  0.6803
  143MOL    H7223076   1.336   0.299   4.324 -0.8822 -2.7035 -0.9635
  143MOL    H7323077   1.412   0.268   4.453  1.1740 -1.0437 -0.2065
  143MOL    C7423078   1.658   0.271   4.315 -0.6000  0.5361  0.1167
  143MOL    C7523079   1.712   0.260   4.465  0.8344 -0.0382  0.3446
  143MOL    N7623080   1.783   0.131   4.485 -0.4438 -0.4264 -0.2169
  143MOL    H7723081   1.648   0.170   4.275 -3.3360  0.3946  1.0050
  143MOL    H7823082   1.733   0.329   4.262  1.9974 -0.9260  2.0871
  143MOL    H7923083   1.618   0.257   4.520  0.5945  0.1767 -0.0533
  143MOL    H8023084   1.857   0.130   4.416  0.2180  0.7077  0.4552
  143MOL    H8123085   1.723   0.051   4.471  2.7484 -2.9551  0.0314
  143MOL    C8223086   1.798   0.382   4.501 -0.0953 -0.0743  0.1728
  143MOL    C8323087   1.782   0.414   4.648  0.1643 -0.2055 -0.7802
  143MOL    N8423088   1.866   0.317   4.709  0.2243 -0.8838  0.1130
  143MOL    H8523089   1.904   0.364   4.484 -0.4164  0.1885 -2.2133
  143MOL    H8623090   1.778   0.462   4.430  1.8767 -0.0784 -0.4151
  143MOL    H8723091   1.683   0.379   4.679  0.3315  0.4745  0.5659
  143MOL    H8823092   1.966   0.323   4.691 -0.2338 -0.0112 -2.2181
  143MOL    H8923093   1.839   0.240   4.650  0.5888 -0.1775 -0.9898
  143MOL    C9023094   1.811   0.554   4.685  0.6711  0.5080  0.2822
  143MOL    C9123095   1.804   0.579   4.837 -0.3909  0.3756  0.1462
  143MOL    N9223096   1.882   0.697   4.858  0.3984  0.0467 -0.2018
  143MOL    H9323097   1.911   0.578   4.651  0.0415  0.1396 -1.8819
  143MOL    H9423098   1.735   0.608   4.629  1.9586 -0.4579 -2.4785
  143MOL    H9523099   1.857   0.505   4.896  0.1463 -1.1271 -2.1706
  143MOL    H9623100   1.811   0.767   4.871  2.2222  1.7420  1.0162
  143MOL    H9723101   1.921   0.731   4.772  1.1107 -1.0709 -0.3417
  143MOL    C9823102   1.658   0.596   4.887 -0.0602 -0.1874 -0.5357
  143MOL    C9923103   1.652   0.581   5.044 -0.2289 -0.0284  0.1064
  143MOL   N10023104   1.557   0.676   5.100  0.5773 -0.2066  0.4457
  143MOL   H10123105   1.622   0.695   4.857 -0.0046  0.6463  2.0839
  143MOL   H10223106   1.582   0.536   4.835 -1.2694 -0.2050  1.2170
  143MOL   H10323107   1.744   0.612   5.094 -1.7557  0.2755  2.8748
  143MOL   H10423108   1.467   0.657   5.058  1.1620 -1.4728 -0.2744
  143MOL   H10523109   1.572   0.773   5.078 -1.8878 -0.1502 -1.2493
  143MOL   C10623110   1.617   0.437   5.085 -0.6080  0.0914 -0.1804
  143MOL   C10723111   1.628   0.406   5.234  0.1139  0.3355 -0.0910
  143MOL   N10823112   1.559   0.275   5.247  0.2539 -0.1007  0.1114
  143MOL   H10923113   1.521   0.408   5.043 -1.1448 -1.3833  1.9899
  143MOL   H11023114   1.693   0.374   5.040  3.4715  3.2823  1.8551
  143MOL   H11123115   1.572   0.481   5.290  0.2908 -1.7330  2.9447
  143MOL   H11223116   1.556   0.260   5.347 -0.4844 -0.6421  0.0147
  143MOL   H11323117   1.630   0.211   5.214  0.5140  1.1548 -1.8114
  143MOL   C11423118   1.770   0.395   5.295  0.0506 -0.4180  0.6586
  143MOL   C11523119   1.771   0.404   5.453 -0.1497  0.8013  0.1078
  143MOL   N11623120   1.704   0.286   5.506 -0.0104 -0.2974 -1.2339
  143MOL   H11723121   1.805   0.294   5.277 -1.8215 -0.6776 -1.7990
  143MOL   H11823122   1.837   0.466   5.246 -2.0647  0.3511 -1.2440
  143MOL   H11923123   1.728   0.496   5.490  1.0182  1.4229 -0.0556
  143MOL   H12023124   1.766   0.231   5.564  0.0529  0.2727 -0.7649
  143MOL   H12123125   1.616   0.303   5.553  0.5806 -1.5126  0.3480
  143MOL   C12223126   1.912   0.396   5.501 -1.0934  0.6071 -0.1428
  143MOL   C12323127   1.952   0.449   5.644  0.4381  0.3090 -0.0214
  143MOL   N12423128   1.892   0.370   5.757 -0.0538 -0.2431 -1.2366
  143MOL   H12523129   1.946   0.292   5.491 -1.0598  0.4809  1.1366
  143MOL   H12623130   1.964   0.461   5.431 -0.0019  1.1331  1.1433
  143MOL   H12723131   1.922   0.554   5.653  1.3193  0.3995  1.9958
  143MOL   H12823132   1.792   0.363   5.744 -0.6039 -1.2557  2.9964
  143MOL   H12923133   1.926   0.274   5.754  2.3719  0.5738 -1.4213
  143MOL   C13023134   2.100   0.434   5.664 -0.3402  0.3674 -0.2951
  143MOL   C13123135   2.191   0.491   5.563 -0.2593 -1.1764 -0.3798
  143MOL   N13223136   2.174   0.634   5.552  0.1457 -0.2494 -0.4901
  143MOL   H13323137   2.137   0.477   5.757  3.1428  1.6741 -2.1869
  143MOL   H13423138   2.126   0.329   5.674  0.0251  0.6549  1.9556
  143MOL   H13523139   2.170   0.442   5.468  3.2293  1.7667 -2.8314
  143MOL   H13623140   2.077   0.635   5.525 -0.4611 -0.4660  1.6249
  143MOL   H13723141   2.232   0.676   5.480  0.8993 -0.5585 -0.0718
  143MOL   C13823142   2.343   0.462   5.586 -0.2153  0.1851 -1.0124
  143MOL   C13923143   2.390   0.317   5.564 -0.1502  0.3947  0.0430
  143MOL   N14023144   2.349   0.257   5.435  0.1237 -0.2827  0.3395
  143MOL   H14123145   2.406   0.525   5.523  1.9722 -0.7683  0.1685
  143MOL   H14223146   2.366   0.481   5.690 -0.4796  0.2955 -0.9719
  143MOL   H14323147   2.347   0.249   5.638 -2.2877  0.7469 -0.8315
  143MOL   H14423148   2.338   0.160   5.459  1.0942  0.0124  2.0532
  143MOL   H14523149   2.254   0.279   5.408  0.2788  1.4898  1.1436
  143MOL   C14623150   2.537   0.301   5.570 -0.4956 -0.3607  0.2652
  143MOL   C14723151   2.615   0.353   5.694 -0.4221 -0.1474  0.0800
  143MOL   N14823152   2.556   0.293   5.808  0.0882  0.0491  0.4441
  143MOL   H14923153   2.552   0.193   5.558  0.6849 -0.1888  0.1373
  143MOL   H15023154   2.580   0.357   5.487 -0.1069  2.7908  2.5138
  143MOL   H15123155   2.600   0.460   5.709  1.7076 -0.1862  2.9104
  143MOL   H15223156   2.486   0.225   5.782 -0.3170  0.8555 -0.6199
  143MOL   H15323157   2.499   0.357   5.860  1.8813  2.1324 -0.0764
  143MOL   C15423158   2.758   0.315   5.694 -0.3107 -0.3303 -0.5364
  143MOL   C15523159   2.829   0.404   5.602  0.0019 -0.1471  0.6100
  143MOL   N15623160   2.973   0.393   5.618 -0.0658  0.1822  0.6883
  143MOL   H15723161   2.796   0.329   5.795  0.1289  0.9161 -0.8631
  143MOL   H15823162   2.770   0.210   5.666  0.4841 -0.6572  0.9694
  143MOL   H15923163   2.803   0.509   5.615 -2.1922 -0.4612 -1.0328
  143MOL   H16023164   3.005   0.297   5.619 -1.3606 -0.2554  0.2972
  143MOL   H16123165   2.989   0.426   5.713  0.2026  0.3914  0.5708
  143MOL   H16223166   2.808   0.368   5.502  3.7956  0.2762 -0.4155
  144MOL     C123167   2.463   2.270   3.228 -0.2537 -0.1157 -0.6100
  144MOL     C223168   2.579   2.363   3.279 -0.5870 -0.1402  0.3688
  144MOL     N323169   2.569   2.403   3.416 -0.2255 -0.1026 -0.2352
  144MOL     H423170   2.491   2.167   3.249  0.9733  0.2643 -0.3632
  144MOL     H523171   2.455   2.273   3.119 -1.1635 -0.4962 -0.5571
  144MOL     H623172   2.574   2.451   3.215 -0.9746 -1.3575 -1.3292
  144MOL     H723173   2.624   2.486   3.433  0.3798 -0.6924  0.7052
  144MOL     H823174   2.475   2.424   3.446  0.4687  2.2958  0.3795
  144MOL     H923175   2.363   2.297   3.264 -0.0345 -2.8553  2.1333
  144MOL    C1023176   2.714   2.305   3.244  0.0453 -0.1336 -0.1732
  144MOL    C1123177   2.746   2.260   3.097  0.3496 -0.1986 -0.0237
  144MOL    N1223178   2.761   2.383   3.019 -0.2023  0.2817 -0.1173
  144MOL    H1323179   2.799   2.367   3.273 -0.9979  0.6277  1.3818
  144MOL    H1423180   2.742   2.220   3.306 -1.0809 -1.1513 -1.0339
  144MOL    H1523181   2.672   2.199   3.047 -1.0692  1.1037  0.4527
  144MOL    H1623182   2.857   2.413   3.023 -0.7359  1.8876  1.4375
  144MOL    H1723183   2.712   2.456   3.069  3.0660  0.5400  2.8319
  144MOL    C1823184   2.889   2.199   3.093 -0.2571  1.0321  0.1081
  144MOL    C1923185   2.882   2.046   3.047  0.1769 -0.6065 -0.2725
  144MOL    N2023186   3.014   1.985   3.024 -0.0302 -0.5821  0.3214
  144MOL    H2123187   2.957   2.254   3.028  0.5699  1.4027  1.2774
  144MOL    H2223188   2.935   2.201   3.192  2.0525 -2.3866 -0.8190
  144MOL    H2323189   2.839   2.045   2.947 -0.8884 -0.2697  0.1648
  144MOL    H2423190   2.988   1.901   2.973 -1.4470  0.2796 -0.3833
  144MOL    H2523191   3.056   2.037   2.948 -1.9623 -0.5481 -0.7601
  144MOL    C2623192   2.799   1.955   3.142  0.0624 -0.3325 -0.3235
  144MOL    C2723193   2.715   1.834   3.084 -1.2975 -0.6939 -0.4292
  144MOL    N2823194   2.686   1.745   3.195 -0.1835  0.1224  0.4454
  144MOL    H2923195   2.874   1.911   3.208 -1.2140 -0.1856  1.2404
  144MOL    H3023196   2.730   2.010   3.205  0.2911 -0.8417  0.3742
  144MOL    H3123197   2.785   1.801   3.007  0.3158 -1.3383  1.2919
  144MOL    H3223198   2.704   1.793   3.282 -0.6160 -0.8805  1.0990
  144MOL    H3323199   2.758   1.675   3.207  2.1480  2.4894  0.7450
  144MOL    C3423200   2.590   1.851   2.995  0.3210  0.2691  0.7936
  144MOL    C3523201   2.603   1.907   2.853 -0.5687 -0.1568  1.0182
  144MOL    N3623202   2.651   1.799   2.776  0.1216  0.4621 -0.3451
  144MOL    H3723203   2.546   1.752   2.979 -0.6715  0.8913 -0.3741
  144MOL    H3823204   2.521   1.903   3.062  1.3631  1.9380  0.5714
  144MOL    H3923205   2.689   1.974   2.853  0.2052 -1.1167  3.2886
  144MOL    H4023206   2.735   1.764   2.820 -0.5874  0.3870  0.9782
  144MOL    H4123207   2.691   1.823   2.686  0.6386  1.3923  0.1283
  144MOL    C4223208   2.472   1.962   2.795 -0.7148  0.4488  1.0306
  144MOL    C4323209   2.423   2.094   2.857 -0.0121 -0.1362 -0.6979
  144MOL    N4423210   2.458   2.200   2.759  0.2436 -0.1455  0.1807
  144MOL    H4523211   2.476   1.975   2.687  0.3152  0.6906  1.0925
  144MOL    H4623212   2.391   1.889   2.801 -0.1063 -0.2874  0.4116
  144MOL    H4723213   2.480   2.109   2.948  2.5426  0.7440 -2.3763
  144MOL    H4823214   2.432   2.293   2.789  0.9702  0.1768 -0.1864
  144MOL    H4923215   2.557   2.220   2.759  0.1782  0.2468 -1.4020
  144MOL    C5023216   2.272   2.094   2.891 -0.2134 -0.1075 -0.3329
  144MOL    C5123217   2.224   1.996   2.998  0.0901 -0.3380 -0.8269
  144MOL    N5223218   2.246   2.037   3.133 -0.1432  0.8709 -0.0802
  144MOL    H5323219   2.253   2.200   2.909  1.5717  0.1721  0.0135
  144MOL    H5423220   2.214   2.074   2.801  0.3029  1.5028 -1.0452
  144MOL    H5523221   2.291   1.912   2.982  0.6039  0.3157 -2.2055
  144MOL    H5623222   2.262   1.965   3.202 -0.5507  1.4992  0.6793
  144MOL    H5723223   2.322   2.103   3.143  0.2974  0.3876 -0.1957
  144MOL    C5823224   2.078   1.951   2.989 -0.6699  0.1612 -0.2246
  144MOL    C5923225   2.031   1.827   3.078  0.3968 -1.4782 -0.8539
  144MOL    N6023226   1.888   1.822   3.059  0.0749  0.3573  0.4905
  144MOL    H6123227   2.010   2.035   3.001 -1.1364 -0.1085 -0.9871
  144MOL    H6223228   2.063   1.924   2.885  1.3371 -1.2020 -0.2050
  144MOL    H6323229   2.055   1.843   3.183  1.0404 -0.3498 -1.1725
  144MOL    H6423230   1.845   1.837   3.150 -0.7407 -0.2107  0.1960
  144MOL    H6523231   1.858   1.729   3.037  2.6094 -0.4168  0.1856
  144MOL    C6623232   2.101   1.702   3.028 -0.5831  0.0465 -0.3224
  144MOL    C6723233   2.086   1.584   3.115 -0.1315  0.6505  0.3545
  144MOL    N6823234   2.147   1.466   3.047  0.2382 -0.7248 -0.7188
  144MOL    H6923235   2.063   1.676   2.929 -2.1927  1.0280  0.0229
  144MOL    H7023236   2.206   1.721   3.003 -0.5756  0.1258 -0.2308
  144MOL    H7123237   1.980   1.564   3.131  0.4086 -2.1754  0.6676
  144MOL    H7223238   2.239   1.486   3.011 -0.6518 -0.6635 -3.0049
  144MOL    H7323239   2.084   1.433   2.976 -1.8724  0.8203  0.3616
  144MOL    C7423240   2.149   1.604   3.256  0.0524  0.2904  0.7126
  144MOL    C7523241   2.304   1.621   3.259  0.1863  0.3880 -0.2180
  144MOL    N7623242   2.339   1.755   3.226 -0.9957 -0.2452 -0.2022
  144MOL    H7723243   2.100   1.691   3.300 -0.1438  0.5821 -0.0681
  144MOL    H7823244   2.124   1.511   3.307  1.2658 -0.4042  0.0540
  144MOL    H7923245   2.356   1.554   3.190  1.2260  0.7314  0.2340
  144MOL    H8023246   2.279   1.781   3.150 -1.5723  2.5946  1.1843
  144MOL    H8123247   2.433   1.747   3.190 -1.8300  2.2342 -3.0634
  144MOL    C8223248   2.355   1.609   3.401 -0.5277  0.1812 -0.0501
  144MOL    C8323249   2.367   1.470   3.453  0.2915  0.1704 -0.4867
  144MOL    N8423250   2.477   1.410   3.376 -0.5585  0.1815  0.2578
  144MOL    H8523251   2.457   1.644   3.420 -0.5602 -0.5686  1.6616
  144MOL    H8623252   2.288   1.662   3.470  0.2594 -0.5919  1.3352
  144MOL    H8723253   2.274   1.418   3.429  0.5109 -1.1490  1.4378
  144MOL    H8823254   2.559   1.440   3.427 -0.3847 -0.9747  0.6656
  144MOL    H8923255   2.488   1.447   3.283  0.7277  0.2630  0.4310
  144MOL    C9023256   2.404   1.442   3.603 -0.2195  0.5084  0.6291
  144MOL    C9123257   2.295   1.466   3.715 -0.3391  0.4139 -0.5799
  144MOL    N9223258   2.234   1.346   3.760  0.2753 -0.0311  0.2385
  144MOL    H9323259   2.450   1.344   3.616  1.1354  1.2532  1.4921
  144MOL    H9423260   2.487   1.509   3.626 -0.5733  1.0512  0.3574
  144MOL    H9523261   2.222   1.531   3.668 -0.8730 -0.4023 -0.8986
  144MOL    H9623262   2.301   1.272   3.771  0.7615  0.2915 -0.4965
  144MOL    H9723263   2.174   1.320   3.683 -0.1942 -2.8188  1.5141
  144MOL    C9823264   2.341   1.526   3.848 -0.2383  0.4834 -0.3380
  144MOL    C9923265   2.429   1.655   3.836 -1.0782 -0.4275 -0.5101
  144MOL   N10023266   2.401   1.743   3.951 -0.4106  0.1030  0.1194
  144MOL   H10123267   2.250   1.550   3.903 -1.5078 -2.2817 -1.1573
  144MOL   H10223268   2.387   1.445   3.905  0.0294 -0.1529 -1.4584
  144MOL   H10323269   2.392   1.705   3.747 -0.7158  0.6964 -0.0390
  144MOL   H10423270   2.439   1.835   3.933  0.3531 -0.2439 -0.0792
  144MOL   H10523271   2.301   1.761   3.954 -0.6977 -1.5103  0.4687
  144MOL   C10623272   2.586   1.626   3.837 -0.4160 -0.5058  0.3752
  144MOL   C10723273   2.676   1.719   3.765 -0.8464  0.0904  0.3898
  144MOL   N10823274   2.815   1.663   3.772  0.2142  0.0315  0.2681
  144MOL   H10923275   2.619   1.617   3.941 -0.9873  1.8180  0.7768
  144MOL   H11023276   2.607   1.524   3.807  0.0209 -0.9637  2.1318
  144MOL   H11123277   2.684   1.807   3.829  0.5564  1.6570 -1.8395
  144MOL   H11223278   2.883   1.735   3.752 -0.7278  0.6026 -1.0396
  144MOL   H11323279   2.832   1.657   3.871  0.0119  0.2562  0.3180
  144MOL   C11423280   2.630   1.758   3.615 -0.0312 -0.3085 -0.6959
  144MOL   C11523281   2.693   1.893   3.568 -0.1297 -0.3609  0.2521
  144MOL   N11623282   2.791   1.872   3.461  0.3500 -0.3775 -0.0388
  144MOL   H11723283   2.650   1.675   3.547  0.8780 -0.8708  0.2477
  144MOL   H11823284   2.521   1.756   3.611 -0.0028 -2.1387 -1.0290
  144MOL   H11923285   2.741   1.950   3.648 -0.5709  0.1257  0.1730
  144MOL   H12023286   2.845   1.957   3.462  0.1561 -0.2236  2.7642
  144MOL   H12123287   2.855   1.803   3.498 -2.8333 -0.9525  4.8780
  144MOL   C12223288   2.589   1.990   3.496 -0.4448  0.5989  0.0248
  144MOL   C12323289   2.501   2.064   3.593 -0.5027  0.5557  0.2963
  144MOL   N12423290   2.569   2.182   3.651 -0.0304  0.5538 -0.6637
  144MOL   H12523291   2.636   2.068   3.436 -0.7611  1.1242  0.4605
  144MOL   H12623292   2.530   1.916   3.442  0.9693 -0.1950 -0.4482
  144MOL   H12723293   2.473   2.002   3.678 -0.9074 -2.1829 -1.7460
  144MOL   H12823294   2.503   2.254   3.678  1.0993  0.0766  3.7176
  144MOL   H12923295   2.622   2.230   3.580  3.2578 -1.5792  0.2568
  144MOL   C13023296   2.365   2.104   3.536 -0.5828  0.3399 -0.1033
  144MOL   C13123297   2.249   2.060   3.618 -0.7178 -0.2368 -0.2598
  144MOL   N13223298   2.250   2.122   3.750 -0.1806 -0.0289 -0.5068
  144MOL   H13323299   2.354   2.212   3.520  0.4557  0.7854  1.9786
  144MOL   H13423300   2.349   2.071   3.434  0.5304  3.4186 -1.3592
  144MOL   H13523301   2.252   1.952   3.634  1.5142  0.0231  1.2653
  144MOL   H13623302   2.184   2.087   3.817 -1.7547  1.1049 -1.4368
  144MOL   H13723303   2.339   2.105   3.796  1.0043 -0.6539 -2.9135
  144MOL   C13823304   2.121   2.106   3.546 -0.0553 -0.0684 -0.0638
  144MOL   C13923305   1.997   2.016   3.570  0.2954 -0.1567  0.6499
  144MOL   N14023306   1.884   2.104   3.539 -0.3670 -0.4445 -0.0059
  144MOL   H14123307   2.100   2.209   3.575  0.5079 -0.0284  0.2045
  144MOL   H14223308   2.127   2.095   3.438 -0.2027 -0.9795  0.0159
  144MOL   H14323309   2.000   1.986   3.674 -1.2475  0.4296  0.8822
  144MOL   H14423310   1.854   2.075   3.447  3.0887 -0.0950 -1.3302
  144MOL   H14523311   1.815   2.090   3.611  0.3659  0.1063  0.8071
  144MOL   C14623312   1.989   1.894   3.476 -0.1640  0.1300 -0.5631
  144MOL   C14723313   1.874   1.793   3.488  0.2669  0.3647 -0.3568
  144MOL   N14823314   1.841   1.749   3.351  0.0907  0.1069  0.0321
  144MOL   H14923315   1.998   1.927   3.373  1.1066  1.2704 -0.1040
  144MOL   H15023316   2.083   1.844   3.499  1.9361  4.1736  0.1104
  144MOL   H15123317   1.789   1.836   3.540  0.5305  1.2943 -0.6802
  144MOL   H15223318   1.754   1.698   3.339  1.6567 -2.6048 -0.2376
  144MOL   H15323319   1.908   1.676   3.332  0.6897 -0.3160  3.4212
  144MOL   C15423320   1.912   1.667   3.572 -0.5684 -0.5852 -0.3050
  144MOL   C15523321   1.932   1.704   3.719  0.5483  0.1094 -0.0593
  144MOL   N15623322   1.928   1.575   3.797 -0.3306  0.1570  0.8811
  144MOL   H15723323   1.840   1.589   3.548 -0.9194 -0.2606 -0.3359
  144MOL   H15823324   2.007   1.642   3.527 -0.4705  2.1716 -1.7608
  144MOL   H15923325   1.856   1.771   3.760  0.9743  0.4197  0.2381
  144MOL   H16023326   1.897   1.583   3.893  0.5226 -0.8570  1.2592
  144MOL   H16123327   2.019   1.536   3.814  0.8132  1.3986 -2.0212
  144MOL   H16223328   2.028   1.753   3.737  0.4585  0.5568 -0.8063
  145MOL     C123329   4.908   6.955   6.979  0.3113  0.6716 -0.2281
  145MOL     C223330   4.941   6.809   7.004 -0.3959  0.2171  0.2750
  145MOL     N323331   4.818   6.782   7.077 -0.0495 -0.2586  0.2782
  145MOL     H423332   4.908   7.001   7.078 -1.5950  1.1392 -0.4311
  145MOL     H523333   4.809   6.970   6.937  0.8509  0.7843 -1.4627
  145MOL     H623334   5.024   6.802   7.074  0.2346 -3.1269 -0.7330
  145MOL     H723335   4.813   6.685   7.104 -1.0231 -0.7707 -1.6502
  145MOL     H823336   4.847   6.820   7.166 -2.8221  0.1007  1.0702
  145MOL     H923337   4.984   7.003   6.917 -0.5756  0.6057 -1.3769
  145MOL    C1023338   4.934   6.713   6.881 -0.3117  0.0779 -0.0171
  145MOL    C1123339   5.070   6.709   6.795  0.3963  0.3446 -0.4454
  145MOL    N1223340   5.032   6.621   6.686 -0.3904  0.2614 -0.0133
  145MOL    H1323341   4.906   6.615   6.917  3.5400 -0.7925  0.8537
  145MOL    H1423342   4.854   6.748   6.815  0.1217 -0.6188 -0.9283
  145MOL    H1523343   5.137   6.660   6.866  0.3058  2.2710  1.0071
  145MOL    H1623344   4.949   6.651   6.636 -0.9288 -1.5860 -0.2782
  145MOL    H1723345   5.014   6.527   6.718 -0.5997  0.2027 -0.2964
  145MOL    C1823346   5.140   6.833   6.754 -0.2909 -0.2163 -0.4921
  145MOL    C1923347   5.247   6.879   6.860 -0.3063 -0.4254 -0.1970
  145MOL    N2023348   5.361   6.796   6.861 -0.3501 -0.5280  0.2753
  145MOL    H2123349   5.190   6.816   6.659  1.3951 -1.3241  0.5601
  145MOL    H2223350   5.070   6.914   6.735  0.6200  0.3031 -1.7097
  145MOL    H2323351   5.207   6.888   6.961  1.1610 -1.7962  0.5220
  145MOL    H2423352   5.347   6.703   6.897  0.9482  0.7304  4.3113
  145MOL    H2523353   5.396   6.774   6.769  2.0515 -1.6936  1.4124
  145MOL    C2623354   5.306   7.016   6.814  0.5229 -0.2138 -0.0925
  145MOL    C2723355   5.217   7.136   6.812 -0.0816  0.0366  0.1866
  145MOL    N2823356   5.200   7.186   6.949 -0.2410 -0.3142  0.6637
  145MOL    H2923357   5.400   7.033   6.865  0.5851 -1.6920  0.2880
  145MOL    H3023358   5.334   6.990   6.712  0.1171 -2.5038  0.3500
  145MOL    H3123359   5.115   7.108   6.787 -0.3870 -0.3183  1.7892
  145MOL    H3223360   5.159   0.003   6.948  2.0860  0.8198  3.4200
  145MOL    H3323361   5.155   7.116   7.007 -0.8980 -0.7620 -0.3838
  145MOL    C3423362   5.277   7.254   6.723 -0.1924  0.4482 -0.3054
  145MOL    C3523363   5.189   7.274   6.598 -0.0019  0.2003 -0.1829
  145MOL    N3623364   5.227   0.123   6.534  0.0907  0.0146  0.2913
  145MOL    H3723365   5.281   0.068   6.785 -0.2118  0.5229 -0.4111
  145MOL    H3823366   5.378   7.225   6.696 -1.4484 -2.5855 -1.9708
  145MOL    H3923367   5.085   0.018   6.627  0.2524 -0.4973  1.2435
  145MOL    H4023368   5.321   0.101   6.502 -0.2474 -0.6873 -0.2376
  145MOL    H4123369   5.172   0.136   6.450  1.6452  0.4253 -0.6863
  145MOL    C4223370   5.215   7.164   6.497  0.2765 -0.0408 -0.4345
  145MOL    C4323371   5.123   7.164   6.372  0.5138  0.2633 -0.2887
  145MOL    N4423372   5.168   7.263   6.273  0.5705 -0.0275  0.4224
  145MOL    H4523373   5.322   7.162   6.473 -0.1819  0.7717 -2.6098
  145MOL    H4623374   5.200   7.071   6.551 -0.2888  1.1934  1.5601
  145MOL    H4723375   5.021   7.192   6.400  1.2178  1.6823  0.8687
  145MOL    H4823376   5.268   0.002   6.276  0.3643  1.3496  1.4442
  145MOL    H4923377   5.126   0.077   6.294  0.7525  0.3805 -0.9041
  145MOL    C5023378   5.131   7.023   6.299 -0.1909  0.2028  0.2005
  145MOL    C5123379   5.066   6.901   6.375  0.0178  0.3469  0.6522
  145MOL    N5223380   4.923   6.896   6.349  0.5884  0.3841 -0.0184
  145MOL    H5323381   5.099   7.028   6.195  1.7153 -0.8837 -0.4654
  145MOL    H5423382   5.239   7.018   6.291 -0.3518 -0.0148 -2.0143
  145MOL    H5523383   5.086   6.907   6.482 -0.8207 -2.1055  0.9605
  145MOL    H5623384   4.914   6.859   6.256  0.2032  1.5053 -0.4369
  145MOL    H5723385   4.880   6.826   6.408  1.3081  0.2749  0.3833
  145MOL    C5823386   5.121   6.769   6.324 -0.2325 -0.5619 -0.2737
  145MOL    C5923387   5.262   6.739   6.381  0.3989 -0.0717 -0.5282
  145MOL    N6023388   5.242   6.639   6.485  0.3187 -0.0713 -0.1252
  145MOL    H6123389   5.054   6.684   6.335  2.0691 -2.0996  2.6331
  145MOL    H6223390   5.123   6.789   6.217 -0.1985  2.0021  0.1729
  145MOL    H6323391   5.305   6.831   6.421  0.6640 -1.6975  3.1611
  145MOL    H6423392   5.325   6.642   6.542  1.4197  3.0144 -1.7679
  145MOL    H6523393   5.169   6.654   6.553  0.8044 -2.6942  1.0394
  145MOL    C6623394   5.354   6.667   6.287  0.0364 -0.5994  0.3692
  145MOL    C6723395   5.395   6.751   6.166 -0.0726 -0.2038 -0.3389
  145MOL    N6823396   5.504   6.829   6.211 -0.2817 -0.2607  0.0551
  145MOL    H6923397   5.445   6.632   6.336  1.6494  2.2870 -0.4311
  145MOL    H7023398   5.300   6.580   6.249  1.0615 -0.9543 -0.3101
  145MOL    H7123399   5.316   6.818   6.133  0.3547  0.7951  0.6215
  145MOL    H7223400   5.485   6.893   6.287  0.3567  1.7925 -1.4750
  145MOL    H7323401   5.589   6.774   6.218  0.1534  0.3151 -0.5654
  145MOL    C7423402   5.454   6.681   6.040  0.0330 -0.2311 -0.0459
  145MOL    C7523403   5.365   6.686   5.920 -0.6899  0.1081  0.2037
  145MOL    N7623404   5.435   6.617   5.815 -0.8947  0.6437 -0.1149
  145MOL    H7723405   5.557   6.707   6.017  1.1875 -2.9701  1.7548
  145MOL    H7823406   5.466   6.574   6.062  2.6459  0.0030 -0.1845
  145MOL    H7923407   5.353   6.793   5.901 -0.5975  0.2759  1.0585
  145MOL    H8023408   5.372   6.559   5.762 -1.0338  0.4416  0.2650
  145MOL    H8123409   5.498   6.546   5.848 -3.3599 -2.6378 -2.1686
  145MOL    C8223410   5.234   6.621   5.958 -0.4209 -0.7575 -0.1641
  145MOL    C8323411   5.118   6.639   5.857 -0.1646 -0.4688  0.2416
  145MOL    N8423412   5.032   6.525   5.883 -0.5569 -0.0498 -0.2767
  145MOL    H8523413   5.250   6.518   5.988  0.7346 -0.5212  0.0481
  145MOL    H8623414   5.182   6.657   6.047 -0.6504  0.2599 -0.7005
  145MOL    H8723415   5.157   6.619   5.757 -0.6510 -0.5822  0.0758
  145MOL    H8823416   4.958   6.529   5.814  0.0012  1.3901 -0.8204
  145MOL    H8923417   4.994   6.528   5.977 -0.1593  0.1144 -0.1226
  145MOL    C9023418   5.048   6.777   5.851 -0.3167 -0.0374  0.1913
  145MOL    C9123419   5.128   6.903   5.828 -0.3028 -0.4554  1.0805
  145MOL    N9223420   5.225   6.874   5.716 -0.5393 -0.8003 -0.6282
  145MOL    H9323421   4.985   6.766   5.763  0.1506  0.4595 -0.2040
  145MOL    H9423422   4.989   6.792   5.941  1.0219  2.2637  0.7235
  145MOL    H9523423   5.190   6.927   5.914 -0.1332  0.3013  0.7570
  145MOL    H9623424   5.268   6.788   5.748  1.2949 -0.2221 -1.4614
  145MOL    H9723425   5.294   6.947   5.717  0.7373 -1.9854  0.0917
  145MOL    C9823426   5.031   7.024   5.799 -0.1093  0.7536 -0.3811
  145MOL    C9923427   4.957   7.075   5.927 -0.8544  0.1250 -0.3020
  145MOL   N10023428   5.000   7.204   5.972  0.0860  0.0187 -0.4653
  145MOL   H10123429   5.084   7.109   5.758 -0.7032  1.4647  0.3053
  145MOL   H10223430   4.958   6.987   5.726 -0.3315 -2.0431  1.1575
  145MOL   H10323431   4.984   7.011   6.012  0.2580  0.0591 -0.6943
  145MOL   H10423432   5.096   7.207   5.941  0.9986  0.3336  2.2559
  145MOL   H10523433   5.014   7.198   6.072  0.2702  0.9212 -0.4306
  145MOL   C10623434   4.802   7.075   5.907 -0.4646 -0.6505  0.7030
  145MOL   C10723435   4.721   6.941   5.914  0.5247  0.2414  0.2790
  145MOL   N10823436   4.734   6.859   6.034  0.4613 -0.1671 -0.2724
  145MOL   H10923437   4.760   7.141   5.982 -2.3647  0.5957 -1.3888
  145MOL   H11023438   4.782   7.134   5.817  0.6500 -1.3134 -0.0077
  145MOL   H11123439   4.768   6.875   5.841 -0.9192 -0.8727  0.3222
  145MOL   H11223440   4.663   6.790   6.053 -0.0698  0.5546  0.3749
  145MOL   H11323441   4.707   6.926   6.104  0.7611  1.3434 -1.5767
  145MOL   C11423442   4.576   6.964   5.868  0.2935 -0.3009  0.1783
  145MOL   C11523443   4.546   7.001   5.726  0.5322 -0.0190 -0.2628
  145MOL   N11623444   4.615   6.920   5.623  0.2035 -0.0928 -0.9978
  145MOL   H11723445   4.519   6.873   5.888  1.8586 -1.0503  1.3821
  145MOL   H11823446   4.533   7.039   5.935 -0.8604 -1.4714  0.7830
  145MOL   H11923447   4.566   7.107   5.714 -0.8825  0.3500  0.5366
  145MOL   H12023448   4.668   6.974   5.557 -0.5659 -0.9690 -2.3888
  145MOL   H12123449   4.547   6.868   5.568 -0.9808  1.1164 -0.6962
  145MOL   C12223450   4.395   6.990   5.693 -0.4588  0.7168 -0.0714
  145MOL   C12323451   4.350   7.075   5.573 -0.3551 -0.4348  0.7418
  145MOL   N12423452   4.204   7.047   5.563  0.0181  0.1031  0.3486
  145MOL   H12523453   4.372   6.884   5.689 -1.3169  0.9368 -1.3161
  145MOL   H12623454   4.345   7.035   5.779  0.2365  0.0165  0.7117
  145MOL   H12723455   4.397   7.050   5.478 -2.4288 -1.3117 -0.0715
  145MOL   H12823456   4.188   6.948   5.554  0.8596  0.1318 -2.1362
  145MOL   H12923457   4.191   7.076   5.658  0.5173 -0.4706  0.5981
  145MOL   C13023458   4.374   7.225   5.593 -0.5921  0.0903 -0.3159
  145MOL   C13123459   4.312   0.043   5.490 -0.3048 -0.3502 -0.3060
  145MOL   N13223460   4.166   0.056   5.500  0.0487  0.3695 -0.1058
  145MOL   H13323461   4.352   7.250   5.697  0.9869  1.3016 -0.2549
  145MOL   H13423462   4.482   7.235   5.586 -0.2675 -2.2799  0.9030
  145MOL   H13523463   4.333   7.269   5.395  0.1739 -1.3262  0.3019
  145MOL   H13623464   4.130   0.068   5.407  1.1915 -0.2249 -0.6276
  145MOL   H13723465   4.132   7.241   5.528  0.7979  0.5755  1.5269
  145MOL   C13823466   4.361   0.194   5.499  0.7054  0.1434  0.2711
  145MOL   C13923467   4.507   0.208   5.472  0.2034 -0.6513  0.3151
  145MOL   N14023468   4.543   0.337   5.411 -0.4578 -0.5717  0.4064
  145MOL   H14123469   4.301   0.254   5.431 -0.1939  0.2945  1.1796
  145MOL   H14223470   4.331   0.234   5.596 -0.1233 -0.9113  0.4566
  145MOL   H14323471   4.529   0.126   5.405 -1.9317  0.6098 -2.0206
  145MOL   H14423472   4.469   0.369   5.350  0.7960  0.8550 -0.3871
  145MOL   H14523473   4.630   0.326   5.359  0.9618 -0.0723  2.6223
  145MOL   C14623474   4.588   0.210   5.600 -0.2094 -0.0294 -0.2372
  145MOL   C14723475   4.740   0.215   5.593 -0.6667 -0.3549  0.2165
  145MOL   N14823476   4.795   0.284   5.703  0.1022 -0.8169  0.5956
  145MOL   H14923477   4.566   0.300   5.658  1.4425 -0.3315  0.8943
  145MOL   H15023478   4.546   0.144   5.676  1.9786  0.4009  1.4093
  145MOL   H15123479   4.767   0.266   5.500 -1.4691  0.1564  0.2586
  145MOL   H15223480   4.779   0.233   5.789 -0.9462 -0.9385  0.3365
  145MOL   H15323481   4.896   0.284   5.697  0.0897  0.6356  0.3990
  145MOL   C15423482   4.805   0.076   5.605 -0.5543  0.2718  0.2345
  145MOL   C15523483   4.773   7.253   5.497 -0.0365 -0.1655  0.0172
  145MOL   N15623484   4.862   7.140   5.485 -0.5733 -0.4431 -0.4596
  145MOL   H15723485   4.913   0.085   5.603 -0.4453 -0.7130  1.1610
  145MOL   H15823486   4.786   0.044   5.707  0.8829  0.7049  0.6459
  145MOL   H15923487   4.750   0.020   5.399 -0.0310 -1.0105 -0.3572
  145MOL   H16023488   4.950   7.157   5.438  0.2196  0.9320  1.5064
  145MOL   H16123489   4.892   7.101   5.573  1.5631 -0.0983 -0.9878
  145MOL   H16223490   4.686   7.196   5.529  0.4567 -0.5361  0.6982
  146MOL     C123491   0.662   5.182   0.419  0.3754  0.5413 -0.2943
  146MOL     C223492   0.647   5.127   0.568  0.5269 -0.4354  0.2148
  146MOL     N323493   0.778   5.098   0.615  0.0849 -0.1319 -0.1854
  146MOL     H423494   0.726   5.270   0.422  0.4624  0.5872 -2.4939
  146MOL     H523495   0.572   5.224   0.374  0.7007  2.8868  1.1843
  146MOL     H623496   0.594   5.032   0.557  0.5202 -0.4624  0.4820
  146MOL     H723497   0.778   5.081   0.715  1.1373 -1.5327 -0.4167
  146MOL     H823498   0.827   5.186   0.622 -3.1581  1.9122 -2.0195
  146MOL     H923499   0.709   5.106   0.357  2.2996 -0.0767  1.8884
  146MOL    C1023500   0.585   5.229   0.662 -0.8794 -0.7141  0.1153
  146MOL    C1123501   0.436   5.269   0.630  0.8443 -0.2954  0.1011
  146MOL    N1223502   0.348   5.154   0.645 -0.3057  0.1532  0.1314
  146MOL    H1323503   0.584   5.194   0.765  0.3866 -1.6513 -0.1627
  146MOL    H1423504   0.650   5.316   0.672 -0.4540 -1.0760  0.5432
  146MOL    H1523505   0.429   5.306   0.528  1.7721 -0.5085 -0.0414
  146MOL    H1623506   0.290   5.164   0.562  1.9799  0.2513 -1.4939
  146MOL    H1723507   0.404   5.070   0.649 -0.0784  0.2741 -0.3666
  146MOL    C1823508   0.394   5.384   0.720  0.5938 -0.3929 -0.3988
  146MOL    C1923509   0.408   5.527   0.655 -0.5543 -0.3280  0.4591
  146MOL    N2023510   0.304   5.625   0.682 -0.1467 -0.8504  0.2658
  146MOL    H2123511   0.288   5.378   0.743  1.0162  1.1190  2.1569
  146MOL    H2223512   0.437   5.374   0.819 -2.3988 -0.3912  0.9459
  146MOL    H2323513   0.402   5.527   0.546  0.0445 -0.6764  0.4224
  146MOL    H2423514   0.214   5.581   0.669 -0.9226  0.0889  2.1935
  146MOL    H2523515   0.305   5.698   0.613 -0.4051  0.4502  1.6115
  146MOL    C2623516   0.543   5.597   0.706  0.3902  0.3634  0.1008
  146MOL    C2723517   0.617   5.682   0.595 -0.3575  0.0299 -0.0195
  146MOL    N2823518   0.701   5.775   0.663 -0.4609  0.3847  0.4362
  146MOL    H2923519   0.524   5.660   0.793  0.8365 -0.2796  0.6713
  146MOL    H3023520   0.617   5.525   0.742  1.2257  0.5842 -1.1292
  146MOL    H3123521   0.539   5.733   0.540 -0.5051  2.4071  2.2581
  146MOL    H3223522   0.733   5.822   0.579 -0.1429  0.7277  0.7465
  146MOL    H3323523   0.639   5.836   0.713 -1.5137 -0.3855  0.0832
  146MOL    C3423524   0.702   5.605   0.489  0.2682 -0.2955  0.1405
  146MOL    C3523525   0.716   5.682   0.356  0.0182 -0.5071  0.3185
  146MOL    N3623526   0.829   5.774   0.365 -0.7986 -0.1417 -0.0149
  146MOL    H3723527   0.797   5.569   0.528  0.6062  0.5129  0.0843
  146MOL    H3823528   0.648   5.513   0.464 -0.1731 -0.2061  0.7650
  146MOL    H3923529   0.628   5.736   0.323 -0.7218 -1.4061  0.8064
  146MOL    H4023530   0.800   5.871   0.373  1.5162  0.3889  2.8594
  146MOL    H4123531   0.861   5.777   0.269 -0.7610 -1.8748 -0.0684
  146MOL    C4223532   0.748   5.600   0.233  0.2359 -0.1500 -0.3153
  146MOL    C4323533   0.623   5.544   0.160 -0.1984 -0.1670 -0.5117
  146MOL    N4423534   0.538   5.657   0.117  0.8917  0.0104  0.0773
  146MOL    H4523535   0.815   5.655   0.166 -0.8665  2.7712  0.8898
  146MOL    H4623536   0.819   5.524   0.266 -2.9246 -4.0498 -2.0505
  146MOL    H4723537   0.564   5.487   0.232  0.9345 -1.1563 -0.3552
  146MOL    H4823538   0.578   5.739   0.073 -1.8285  0.7747 -1.0847
  146MOL    H4923539   0.454   5.635   0.065  1.1290 -1.3733  0.2807
  146MOL    C5023540   0.662   5.469   0.031  1.4437 -0.2314  0.7995
  146MOL    C5123541   0.721   5.328   0.059  0.3705 -0.8256 -0.0429
  146MOL    N5223542   0.623   5.227   0.089 -0.3439  0.3900  0.6669
  146MOL    H5323543   0.577   5.455   7.239  1.4037  1.0441  0.5633
  146MOL    H5423544   0.730   5.534   7.250 -0.2329  0.9761  0.1067
  146MOL    H5523545   0.783   5.350   0.146 -0.7608  1.8703  0.1464
  146MOL    H5623546   0.538   5.272   0.118  0.0516  1.3049  0.4417
  146MOL    H5723547   0.591   5.195   7.274 -3.0711  0.6199  1.5149
  146MOL    C5823548   0.788   5.278   7.204 -0.2963  0.2560 -0.2357
  146MOL    C5923549   0.922   5.338   7.185 -0.6016  0.2778 -0.4135
  146MOL    N6023550   1.019   5.254   7.250  0.1161  0.3705 -0.2182
  146MOL    H6123551   0.797   5.170   7.203  0.4266  0.2976  0.7673
  146MOL    H6223552   0.720   5.293   7.120  1.8453  1.1619 -1.8784
  146MOL    H6323553   0.920   5.435   7.234  2.1674 -0.9441  2.2467
  146MOL    H6423554   1.112   5.294   7.246 -0.0956  1.1113  1.6025
  146MOL    H6523555   1.004   5.274   0.073  1.3403 -1.6337  0.4178
  146MOL    C6623556   0.946   5.375   7.037 -1.3837 -0.0249  0.3822
  146MOL    C6723557   0.909   5.265   6.936  0.7362  0.5975  0.1531
  146MOL    N6823558   0.802   5.313   6.853 -0.1353  0.1668  0.1349
  146MOL    H6923559   0.885   5.464   7.024  1.4541  1.6529 -1.8223
  146MOL    H7023560   1.045   5.410   7.009 -1.8011 -1.2390 -2.7833
  146MOL    H7123561   0.882   5.173   6.988 -0.5449  0.9216  0.0695
  146MOL    H7223562   0.718   5.303   6.908 -0.7760 -1.4879 -1.1261
  146MOL    H7323563   0.794   5.251   6.774  0.4090 -0.1598  0.3342
  146MOL    C7423564   1.034   5.213   6.850  0.2588 -0.4857 -0.7529
  146MOL    C7523565   1.028   5.057   6.807  0.1147  0.2173  0.4220
  146MOL    N7623566   1.081   5.044   6.671  0.7490 -0.2610 -0.1883
  146MOL    H7723567   1.055   5.278   6.765 -0.9548  0.4145 -0.3648
  146MOL    H7823568   1.122   5.225   6.912  0.2644 -1.8766 -0.4717
  146MOL    H7923569   0.925   5.033   6.778  0.2139 -1.1230  1.1440
  146MOL    H8023570   1.181   5.061   6.666  0.9772 -1.3590  0.3916
  146MOL    H8123571   1.074   4.944   6.658 -1.2263 -0.3700  1.4339
  146MOL    C8223572   1.095   4.955   6.897  0.4608  0.6182 -0.4138
  146MOL    C8323573   1.010   4.829   6.922  0.5036 -0.1640 -0.3839
  146MOL    N8423574   1.009   4.744   6.806  0.1139  0.4027 -0.6321
  146MOL    H8523575   1.201   4.937   6.881  0.3607  0.9214 -1.4377
  146MOL    H8623576   1.093   5.006   6.993 -1.9174  1.9542 -1.1132
  146MOL    H8723577   0.903   4.841   6.940  0.3355 -3.6192  1.4381
  146MOL    H8823578   0.936   4.676   6.818 -0.0405  1.1280  3.1808
  146MOL    H8923579   0.982   4.802   6.727  0.8235  0.9892 -0.4552
  146MOL    C9023580   1.057   4.757   7.052 -0.5248 -0.7031  0.1203
  146MOL    C9123581   0.989   4.811   7.182  0.1656 -0.0884 -0.5469
  146MOL    N9223582   0.858   4.752   7.188 -0.5158 -0.0657  0.1801
  146MOL    H9323583   1.055   4.649   7.035  0.6490 -0.8186  0.6494
  146MOL    H9423584   1.165   4.767   7.066 -0.5044  0.1875 -0.6095
  146MOL    H9523585   0.986   4.920   7.185 -0.0472 -0.0905 -0.6138
  146MOL    H9623586   0.813   4.802   7.113 -0.4384  0.5778  0.5616
  146MOL    H9723587   0.804   4.788   7.265  0.3775 -0.9287  1.2086
  146MOL    C9823588   1.059   4.771   0.035 -0.0405 -0.4140  0.3418
  146MOL    C9923589   1.188   4.849   0.065 -0.4485 -0.6792  0.1756
  146MOL   N10023590   1.155   4.985   0.111  0.6238  0.1009 -0.4199
  146MOL   H10123591   0.996   4.787   0.123  0.7366  2.6290  0.4109
  146MOL   H10223592   1.085   4.666   0.033  1.7878  0.0352 -0.3814
  146MOL   H10323593   1.250   4.871   7.254 -0.6676  1.1655  0.4468
  146MOL   H10423594   1.113   5.038   0.035 -0.5953 -0.5819 -0.2212
  146MOL   H10523595   1.084   4.985   0.182 -0.3977  0.6929 -1.4208
  146MOL   C10623596   1.283   4.776   0.167 -0.0821  0.0674 -0.7261
  146MOL   C10723597   1.334   4.640   0.114 -0.6573 -0.3263  0.2100
  146MOL   N10823598   1.425   4.663   0.000 -0.1952  0.2524  0.7395
  146MOL   H10923599   1.361   4.841   0.206 -1.2024  1.7027 -1.1426
  146MOL   H11023600   1.227   4.752   0.257  1.1197  0.3551  0.0961
  146MOL   H11123601   1.259   4.567   0.082  0.5118 -1.4301 -0.0774
  146MOL   H11223602   1.392   4.736   7.214 -1.1059 -0.1556  0.7368
  146MOL   H11323603   1.516   4.699   0.025  0.0103  0.9493 -0.9388
  146MOL   C11423604   1.411   4.562   0.226 -0.2917 -0.3048  0.1092
  146MOL   C11523605   1.323   4.465   0.319  0.6253  0.1214 -0.4457
  146MOL   N11623606   1.273   4.340   0.260 -0.1987 -0.2227 -0.0353
  146MOL   H11723607   1.478   4.492   0.177 -0.8979 -0.2981 -0.7391
  146MOL   H11823608   1.487   4.618   0.281  0.6848 -0.8365 -0.6691
  146MOL   H11923609   1.236   4.527   0.342  0.4161 -0.4159  0.2230
  146MOL   H12023610   1.330   4.261   0.285 -1.8325 -0.9973  1.2727
  146MOL   H12123611   1.282   4.345   0.159 -0.7491 -1.2838 -0.1432
  146MOL   C12223612   1.398   4.419   0.451 -0.0233 -0.6639 -0.0442
  146MOL   C12323613   1.439   4.540   0.547 -0.1418 -0.1978  0.7722
  146MOL   N12423614   1.329   4.571   0.631 -0.6793  0.6574  0.4141
  146MOL   H12523615   1.337   4.349   0.508 -1.2799 -0.5948 -1.2789
  146MOL   H12623616   1.492   4.372   0.420  1.5122  1.9419  0.5051
  146MOL   H12723617   1.465   4.629   0.489  0.1568 -0.3721  0.6389
  146MOL   H12823618   1.288   4.487   0.669 -0.8171 -0.8446 -2.9380
  146MOL   H12923619   1.255   4.611   0.575 -0.5256 -2.8821 -2.4451
  146MOL   C13023620   1.560   4.506   0.640  0.0923 -0.0416  0.2861
  146MOL   C13123621   1.687   4.477   0.553  0.1792  0.2185 -0.1823
  146MOL   N13223622   1.734   4.615   0.526 -0.0066 -0.3273  0.0035
  146MOL   H13323623   1.584   4.584   0.712  1.3870  0.5405 -0.7584
  146MOL   H13423624   1.540   4.420   0.703 -1.1910  0.1744  0.1977
  146MOL   H13523625   1.674   4.428   0.456 -1.7622  1.0762 -0.3743
  146MOL   H13623626   1.766   4.647   0.617  0.1733  3.1829 -1.2052
  146MOL   H13723627   1.654   4.673   0.507 -1.2758 -2.1622 -0.3355
  146MOL   C13823628   1.798   4.406   0.623 -0.1310  0.3071 -0.3755
  146MOL   C13923629   1.797   4.252   0.621  0.6938  0.4689  0.4051
  146MOL   N14023630   1.927   4.200   0.645 -0.7754  0.3881 -0.1526
  146MOL   H14123631   1.892   4.426   0.572  0.5702 -2.2069 -0.1146
  146MOL   H14223632   1.807   4.453   0.721 -1.3932 -0.4335  0.0954
  146MOL   H14323633   1.756   4.226   0.524  0.7424  0.0547  0.4949
  146MOL   H14423634   1.921   4.100   0.657 -1.0129  0.6194  1.6844
  146MOL   H14523635   1.951   4.241   0.734  0.8485  1.0188 -0.8527
  146MOL   C14623636   1.718   4.181   0.731  0.0378  0.6835  0.0558
  146MOL   C14723637   1.692   4.033   0.696 -0.0589  0.2588  0.4116
  146MOL   N14823638   1.713   3.966   0.824 -0.9262  0.4381 -0.0071
  146MOL   H14923639   1.766   4.198   0.827 -1.1511 -0.1216  0.8200
  146MOL   H15023640   1.623   4.234   0.746  0.5307  1.2063  1.3949
  146MOL   H15123641   1.744   3.989   0.610  0.3028 -2.1333  1.8003
  146MOL   H15223642   1.812   3.971   0.843 -0.3946  1.7659 -2.8573
  146MOL   H15323643   1.674   4.037   0.884  2.5806  0.9671  1.7721
  146MOL   C15423644   1.540   4.003   0.657  0.6112  0.0779 -0.0803
  146MOL   C15523645   1.507   4.029   0.504 -1.0083 -0.2763 -0.3817
  146MOL   N15623646   1.371   3.985   0.480  0.3250  0.2532  0.0084
  146MOL   H15723647   1.519   3.901   0.688 -1.6908  0.1575 -1.2696
  146MOL   H15823648   1.475   4.070   0.713  1.0586  0.4513 -0.0036
  146MOL   H15923649   1.579   3.973   0.443 -0.8295 -2.8932  2.0925
  146MOL   H16023650   1.335   3.987   0.386 -1.0689 -0.8687  0.4950
  146MOL   H16123651   1.306   4.039   0.535  0.9332 -0.3045  1.3164
  146MOL   H16223652   1.528   4.133   0.482  0.5899 -0.4957 -0.0094
  147MOL     C123653   3.858   5.303   4.045 -0.6086 -0.2578  0.3759
  147MOL     C223654   3.938   5.301   3.915  0.3319  0.1576  0.6842
  147MOL     N323655   4.067   5.374   3.932 -0.3565 -0.1924  1.3789
  147MOL     H423656   3.792   5.216   4.054 -0.4530 -0.6043 -1.7133
  147MOL     H523657   3.799   5.394   4.055 -1.8621 -0.9290 -0.8324
  147MOL     H623658   3.881   5.354   3.838  0.1884  2.3852  2.2831
  147MOL     H723659   4.114   5.372   3.842  0.9090  2.1470  1.9285
  147MOL     H823660   4.048   5.471   3.954  0.4371  0.1749  0.4908
  147MOL     H923661   3.923   5.296   4.132 -1.1743  1.8786  1.0088
  147MOL    C1023662   3.959   5.156   3.872  0.3900  0.3319  0.4960
  147MOL    C1123663   3.845   5.087   3.792 -0.1521  0.2933 -0.2976
  147MOL    N1223664   3.857   5.115   3.651 -0.1702 -0.0537  0.1080
  147MOL    H1323665   4.054   5.155   3.818  0.4921 -2.8488  0.6292
  147MOL    H1423666   3.987   5.111   3.967  2.9403 -0.8784 -0.7684
  147MOL    H1523667   3.751   5.135   3.818  0.8055  2.6099 -0.9775
  147MOL    H1623668   3.899   5.206   3.656  1.3864 -0.8486  2.1870
  147MOL    H1723669   3.928   5.062   3.602  0.8671  0.9403  0.5066
  147MOL    C1823670   3.842   4.928   3.794  1.1108  0.5587  0.2758
  147MOL    C1923671   3.771   4.857   3.913 -0.4744 -0.1781  0.0853
  147MOL    N2023672   3.762   4.711   3.883 -0.7718 -0.6736 -0.7162
  147MOL    H2123673   3.779   4.893   3.712  2.2920 -0.4397 -0.2025
  147MOL    H2223674   3.945   4.897   3.778  1.3566  2.2576 -1.7205
  147MOL    H2323675   3.676   4.905   3.936  0.9030  4.2833 -2.8289
  147MOL    H2423676   3.852   4.667   3.893 -1.1795 -1.7738 -1.7356
  147MOL    H2523677   3.749   4.701   3.783 -0.5528  0.9402 -0.9165
  147MOL    C2623678   3.855   4.864   4.043  0.5091 -0.2970 -0.3496
  147MOL    C2723679   3.785   4.827   4.173  0.5776 -0.4344 -0.0264
  147MOL    N2823680   3.887   4.790   4.268  0.3250 -0.0020  0.5784
  147MOL    H2923681   3.944   4.803   4.030  1.2843  0.7845 -0.1941
  147MOL    H3023682   3.903   4.960   4.061  0.8653 -0.4771 -0.3459
  147MOL    H3123683   3.722   4.741   4.148  0.6568 -0.7114  0.6920
  147MOL    H3223684   3.926   4.877   4.301  1.6949 -0.6372  0.6506
  147MOL    H3323685   3.965   4.749   4.220 -0.5088  0.7907 -1.4810
  147MOL    C3423686   3.720   4.946   4.243  0.0723  0.6092 -0.9338
  147MOL    C3523687   3.629   4.913   4.372 -0.0797  0.4821  0.4871
  147MOL    N3623688   3.631   5.039   4.446 -0.0906 -0.0200 -0.6802
  147MOL    H3723689   3.791   5.026   4.260 -1.2665  1.3573  1.3527
  147MOL    H3823690   3.662   4.988   4.160  0.7835  3.4764 -0.0053
  147MOL    H3923691   3.687   4.837   4.425 -0.7337 -0.0966  0.3704
  147MOL    H4023692   3.728   5.061   4.466 -0.2826  0.8278 -0.6737
  147MOL    H4123693   3.584   5.025   4.534 -2.3550 -2.9296 -2.2670
  147MOL    C4223694   3.483   4.873   4.334 -0.2579 -0.1313  0.5225
  147MOL    C4323695   3.463   4.730   4.286  0.0520 -0.1974  0.8913
  147MOL    N4423696   3.521   4.638   4.374  0.1464 -0.2478  0.0778
  147MOL    H4523697   3.421   4.870   4.424  1.5270  0.7314  1.8119
  147MOL    H4623698   3.439   4.945   4.265  2.3342  0.6029 -0.4120
  147MOL    H4723699   3.520   4.719   4.193  1.0360  1.2041  1.3134
  147MOL    H4823700   3.622   4.639   4.386  0.0441  1.2074  0.9857
  147MOL    H4923701   3.504   4.548   4.333  1.9504  0.7701 -3.0622
  147MOL    C5023702   3.314   4.702   4.252  0.4154 -0.1138  0.6567
  147MOL    C5123703   3.301   4.567   4.179  0.3307  1.4059 -0.4993
  147MOL    N5223704   3.176   4.504   4.221  0.3358 -0.2890 -0.3920
  147MOL    H5323705   3.265   4.695   4.348 -0.2911 -0.0430  0.3041
  147MOL    H5423706   3.269   4.780   4.191  2.4476  1.1812  0.7557
  147MOL    H5523707   3.383   4.502   4.210 -1.5212 -1.1687 -0.8608
  147MOL    H5623708   3.158   4.481   4.317 -0.0823 -1.0251 -0.6446
  147MOL    H5723709   3.159   4.419   4.169 -0.0805  0.6535 -1.8597
  147MOL    C5823710   3.300   4.586   4.029  0.3777 -0.5128  0.1504
  147MOL    C5923711   3.416   4.654   3.951  0.2166 -0.8000  0.0480
  147MOL    N6023712   3.530   4.569   3.973 -0.2104 -0.4625 -0.2768
  147MOL    H6123713   3.296   4.482   3.997 -1.6131 -0.1229 -0.9831
  147MOL    H6223714   3.207   4.631   3.993  0.4199  1.4418  2.3611
  147MOL    H6323715   3.423   4.757   3.987 -2.4245 -0.3272 -0.7042
  147MOL    H6423716   3.557   4.584   4.069 -0.8501 -1.3469  0.0454
  147MOL    H6523717   3.612   4.608   3.929 -0.8998  1.5803  0.1944
  147MOL    C6623718   3.383   4.648   3.801 -0.5405 -0.6132  0.3439
  147MOL    C6723719   3.261   4.729   3.756 -0.0486 -0.6153 -0.2275
  147MOL    N6823720   3.305   4.846   3.683  0.2325 -0.3462  0.4996
  147MOL    H6923721   3.469   4.683   3.743 -0.0500 -0.9214  0.8757
  147MOL    H7023722   3.354   4.547   3.774 -2.1828  0.6395 -2.7439
  147MOL    H7123723   3.213   4.786   3.836 -1.0556  0.6844 -1.7097
  147MOL    H7223724   3.377   4.824   3.615 -1.9873 -0.5393 -1.8662
  147MOL    H7323725   3.349   4.902   3.754  0.2372  0.2043  0.0709
  147MOL    C7423726   3.157   4.646   3.677 -0.6674  0.0131  0.1836
  147MOL    C7523727   3.082   4.536   3.744  0.0313  0.2344 -0.2087
  147MOL    N7623728   2.981   4.590   3.831  0.0042 -0.2028  0.5359
  147MOL    H7723729   3.087   4.711   3.626 -2.1090  0.8052  3.0879
  147MOL    H7823730   3.214   4.603   3.594 -0.6403 -0.1669  0.2938
  147MOL    H7923731   3.149   4.477   3.807 -0.1985  0.0424 -0.1451
  147MOL    H8023732   2.940   4.520   3.891  0.7388 -0.8607  0.2753
  147MOL    H8123733   3.029   4.654   3.893 -0.2571 -0.2612  0.7973
  147MOL    C8223734   3.025   4.433   3.646  0.1651  0.5696  0.0921
  147MOL    C8323735   3.019   4.285   3.686 -0.6374 -0.1986 -0.0085
  147MOL    N8423736   2.928   4.222   3.599  0.3030  0.2426  0.5218
  147MOL    H8523737   2.926   4.462   3.610 -0.2354 -1.0288 -0.1133
  147MOL    H8623738   3.076   4.431   3.550  0.6922 -1.1025  0.3875
  147MOL    H8723739   2.986   4.283   3.790 -0.2892 -1.6741  0.0790
  147MOL    H8823740   2.946   4.249   3.503 -0.9799  1.9793  0.7394
  147MOL    H8923741   2.949   4.124   3.603  2.3363  0.5628 -1.3185
  147MOL    C9023742   3.159   4.207   3.680  0.9813  0.3929  0.2252
  147MOL    C9123743   3.220   4.130   3.805  0.1498  0.1164 -0.4457
  147MOL    N9223744   3.348   4.077   3.768  0.4489 -0.4493 -0.4402
  147MOL    H9323745   3.153   4.136   3.598  1.2869 -0.8480  1.2714
  147MOL    H9423746   3.238   4.271   3.640  0.8506  0.7766  0.5763
  147MOL    H9523747   3.170   4.035   3.823  0.5277  0.1353  0.8105
  147MOL    H9623748   3.341   4.003   3.699  2.2288 -0.8920 -0.1833
  147MOL    H9723749   3.409   4.138   3.714  0.4556 -0.6571 -0.6709
  147MOL    C9823750   3.238   4.220   3.925 -0.7298  0.1578  0.4627
  147MOL    C9923751   3.289   4.166   4.058  0.4188 -0.2462  0.2557
  147MOL   N10023752   3.376   4.266   4.121  0.2186 -0.6207  0.2487
  147MOL   H10123753   3.318   4.289   3.902 -0.3144  1.6381  5.6293
  147MOL   H10223754   3.152   4.284   3.947 -0.1005  0.1231  3.1715
  147MOL   H10323755   3.348   4.076   4.040  0.2936 -0.1590 -0.6086
  147MOL   H10423756   3.428   4.306   4.044 -1.3773  0.2476 -0.3935
  147MOL   H10523757   3.327   4.339   4.172 -1.8512 -0.6746 -1.6127
  147MOL   C10623758   3.176   4.138   4.161 -0.0149 -0.1557  0.6345
  147MOL   C10723759   3.085   4.015   4.122 -0.3388 -0.7201  0.9532
  147MOL   N10823760   3.124   3.896   4.189  0.2714  0.0288 -0.6538
  147MOL   H10923761   3.226   4.121   4.256  1.0811  0.0039  0.1012
  147MOL   H11023762   3.121   4.232   4.172 -1.8113 -1.2558  1.1202
  147MOL   H11123763   3.088   3.992   4.016 -0.3872  1.7182  0.3984
  147MOL   H11223764   3.091   3.803   4.165 -0.2359 -0.1933  0.8490
  147MOL   H11323765   3.225   3.891   4.191  0.2111 -2.7506 -1.8369
  147MOL   C11423766   2.937   4.053   4.163  0.2941  0.6361  0.0950
  147MOL   C11523767   2.881   4.150   4.067  0.2412 -0.4097 -0.0300
  147MOL   N11623768   2.820   4.085   3.947  0.0782  0.3398  0.1060
  147MOL   H11723769   2.864   3.972   4.157 -0.1425  1.0573 -0.3588
  147MOL   H11823770   2.929   4.106   4.258 -3.1765  0.5462 -0.0914
  147MOL   H11923771   2.960   4.216   4.031 -0.8526  0.6589 -0.4631
  147MOL   H12023772   2.815   4.148   3.869 -0.6022  1.0483  0.7118
  147MOL   H12123773   2.875   4.006   3.916  1.4679  1.8905 -1.4471
  147MOL   C12223774   2.769   4.231   4.133  1.0511  0.4423  0.3094
  147MOL   C12323775   2.822   4.360   4.199 -0.0216  0.0008  0.0834
  147MOL   N12423776   2.882   4.452   4.102 -0.0972  0.1729 -0.2145
  147MOL   H12523777   2.699   4.256   4.054  0.8688  1.5745  0.8162
  147MOL   H12623778   2.714   4.168   4.203  0.2299 -0.3934 -1.0657
  147MOL   H12723779   2.909   4.336   4.260 -0.9121  0.2824  1.5066
  147MOL   H12823780   2.812   4.526   4.104 -0.4242 -0.1378 -0.1516
  147MOL   H12923781   2.953   4.502   4.154 -0.3298  0.4345 -0.1442
  147MOL   C13023782   2.722   4.437   4.292 -0.8030 -0.2402  0.6320
  147MOL   C13123783   2.685   4.368   4.431  0.2893 -0.5972  0.3774
  147MOL   N13223784   2.669   4.479   4.526  0.1549  0.0807 -0.2772
  147MOL   H13323785   2.759   4.538   4.306  0.3323 -0.2373 -2.0981
  147MOL   H13423786   2.633   4.455   4.232 -0.0016  0.5619 -0.3389
  147MOL   H13523787   2.772   4.312   4.466  0.6883 -1.8311 -2.4502
  147MOL   H13623788   2.570   4.501   4.522  0.4287  1.9389  1.9066
  147MOL   H13723789   2.676   4.461   4.625  0.2230  1.8162  0.0370
  147MOL   C13823790   2.556   4.280   4.433  0.1647 -0.1489  0.2413
  147MOL   C13923791   2.518   4.185   4.562  0.2425 -0.4049  0.3775
  147MOL   N14023792   2.371   4.170   4.562  0.1808 -0.2270  0.1926
  147MOL   H14123793   2.475   4.348   4.406  0.9833  0.7232 -0.0514
  147MOL   H14223794   2.543   4.222   4.341  2.0656  0.6692 -0.5634
  147MOL   H14323795   2.560   4.229   4.652  0.9829 -0.4172  0.0430
  147MOL   H14423796   2.342   4.088   4.613  1.2184  0.3905  1.8179
  147MOL   H14523797   2.338   4.243   4.624  0.0608  2.0370 -2.4499
  147MOL   C14623798   2.583   4.042   4.548  0.5317 -0.4786  0.3207
  147MOL   C14723799   2.738   4.027   4.535  0.5682 -0.2206 -0.2039
  147MOL   N14823800   2.791   4.098   4.651  0.0301 -0.6302  0.7007
  147MOL   H14923801   2.551   3.978   4.630 -2.5440  1.4942  0.7287
  147MOL   H15023802   2.528   3.988   4.471 -0.1686  0.6797  0.0063
  147MOL   H15123803   2.773   4.070   4.441 -0.9059  1.9124  0.1856
  147MOL   H15223804   2.789   4.199   4.657 -1.2227 -0.5367 -0.8968
  147MOL   H15323805   2.887   4.070   4.669 -0.1209 -1.0262  0.8881
  147MOL   C15423806   2.774   3.880   4.546  0.3361  0.3771  0.5228
  147MOL   C15523807   2.905   3.834   4.485 -0.0516 -0.7097  0.4135
  147MOL   N15623808   2.937   3.695   4.515 -0.0016  0.8361  0.1735
  147MOL   H15723809   2.759   3.853   4.651 -1.4730 -2.4763 -0.4056
  147MOL   H15823810   2.710   3.816   4.485  1.0533  0.3600 -0.2223
  147MOL   H15923811   2.991   3.893   4.518 -1.7116  1.5500  0.7486
  147MOL   H16023812   3.030   3.677   4.478 -0.2359 -0.4029  0.1546
  147MOL   H16123813   2.957   3.688   4.614 -2.4508 -1.7064  0.5510
  147MOL   H16223814   2.893   3.854   4.378  2.3839  0.0765  0.2531
  148MOL     C123815   3.603   1.770   2.433 -0.3635 -0.4192  0.0058
  148MOL     C223816   3.466   1.747   2.505 -0.3088  0.0248  0.2529
  148MOL     N323817   3.366   1.840   2.459  0.1686  0.1939 -0.2251
  148MOL     H423818   3.593   1.770   2.325 -1.1834  2.6822  0.0430
  148MOL     H523819   3.673   1.695   2.470  2.8478  2.0975 -0.7765
  148MOL     H623820   3.480   1.757   2.613  0.1430  1.0899  0.1073
  148MOL     H723821   3.366   1.858   2.359 -1.1828 -0.5344 -0.3752
  148MOL     H823822   3.277   1.797   2.481  0.2028 -0.8632 -2.0479
  148MOL     H923823   3.634   1.871   2.458 -1.3555 -0.5975  2.0822
  148MOL    C1023824   3.421   1.608   2.464  0.8276  0.8062  0.1272
  148MOL    C1123825   3.297   1.548   2.540  0.6547 -0.3773 -0.2365
  148MOL    N1223826   3.263   1.423   2.472 -0.1969  0.3708 -0.1326
  148MOL    H1323827   3.405   1.608   2.356  1.3835  0.4216  0.0455
  148MOL    H1423828   3.498   1.534   2.485  1.5354  1.0597 -1.4854
  148MOL    H1523829   3.226   1.629   2.525  0.4803  0.2247  3.3676
  148MOL    H1623830   3.339   1.359   2.455 -0.7906  0.0259 -1.5655
  148MOL    H1723831   3.201   1.366   2.527  0.1817  1.1403  1.1265
  148MOL    C1823832   3.324   1.517   2.684  0.1553  1.1035 -0.6863
  148MOL    C1923833   3.206   1.523   2.786 -0.4098 -0.0899  0.1609
  148MOL    N2023834   3.262   1.462   2.904  0.1465  0.2913  0.1376
  148MOL    H2123835   3.370   1.418   2.677 -0.2930  1.0405 -3.2057
  148MOL    H2223836   3.400   1.589   2.713  0.7063  0.8746 -1.5458
  148MOL    H2323837   3.124   1.456   2.758 -1.1259  0.7395  0.2306
  148MOL    H2423838   3.204   1.427   2.979  3.7707 -2.0505  1.9616
  148MOL    H2523839   3.297   1.375   2.867  0.5983 -0.3107  1.9219
  148MOL    C2623840   3.148   1.665   2.802 -0.0910  0.5629 -0.5335
  148MOL    C2723841   3.009   1.691   2.743  0.0498  0.5519  0.4067
  148MOL    N2823842   2.906   1.686   2.845 -0.4491  0.2182 -0.3767
  148MOL    H2923843   3.147   1.686   2.909 -0.9856  0.6061 -0.5447
  148MOL    H3023844   3.226   1.736   2.775  3.3077 -1.3220  3.7081
  148MOL    H3123845   2.988   1.604   2.682  1.0942  0.5036  0.1128
  148MOL    H3223846   2.827   1.629   2.817 -1.5409  1.9475 -0.9216
  148MOL    H3323847   2.943   1.624   2.915 -1.4948  0.6802  0.6089
  148MOL    C3423848   3.000   1.814   2.647  0.6335 -0.1066 -0.3876
  148MOL    C3523849   2.961   1.782   2.497  0.6641  0.6097 -0.6170
  148MOL    N3623850   2.819   1.779   2.500  0.0028  0.9085 -0.2088
  148MOL    H3723851   2.933   1.887   2.692 -0.6953 -1.6478  0.1681
  148MOL    H3823852   3.096   1.864   2.655  1.5539 -2.2218  2.4346
  148MOL    H3923853   2.997   1.683   2.467  0.1455  0.8674 -2.1500
  148MOL    H4023854   2.803   1.679   2.506  1.2994  0.7736  1.5099
  148MOL    H4123855   2.774   1.794   2.411 -0.5052 -3.0036 -0.7140
  148MOL    C4223856   3.015   1.885   2.395  0.5932  0.7768 -0.3893
  148MOL    C4323857   3.024   1.844   2.247  0.4749  0.2661 -0.5001
  148MOL    N4423858   3.070   1.946   2.162 -0.1813 -0.4006  0.2465
  148MOL    H4523859   2.963   1.981   2.394  4.2417  2.8650 -0.9022
  148MOL    H4623860   3.117   1.914   2.424  0.1874  0.9304  0.9256
  148MOL    H4723861   2.921   1.830   2.216  1.0235  0.1281 -2.3166
  148MOL    H4823862   2.987   1.997   2.135  0.0353  0.3971  1.0648
  148MOL    H4923863   3.094   1.904   2.073  0.4899 -3.1617  1.6841
  148MOL    C5023864   3.118   1.717   2.219 -0.1456  0.4981 -0.3933
  148MOL    C5123865   3.078   1.618   2.104  0.1222  0.3388 -0.0603
  148MOL    N5223866   3.183   1.597   2.011  0.4753 -0.6130  0.7948
  148MOL    H5323867   3.217   1.761   2.206  0.0251  0.1513 -0.2705
  148MOL    H5423868   3.132   1.650   2.305 -1.3097  1.7470  0.7989
  148MOL    H5523869   2.998   1.668   2.049 -1.9072 -2.4336  0.2368
  148MOL    H5623870   3.263   1.543   2.042  0.6410 -0.3403  0.8424
  148MOL    H5723871   3.157   1.554   1.924  1.0379  0.8679 -0.1324
  148MOL    C5823872   3.020   1.477   2.141 -0.3007  0.3153  0.3553
  148MOL    C5923873   2.887   1.493   2.215  0.0598  0.0788  0.6726
  148MOL    N6023874   2.789   1.513   2.100  0.1224 -0.3918 -0.1876
  148MOL    H6123875   3.025   1.414   2.052 -0.7302 -0.4662  0.8759
  148MOL    H6223876   3.085   1.420   2.208  0.3584  0.0559 -0.5017
  148MOL    H6323877   2.885   1.585   2.274  0.3143  1.3198 -1.2124
  148MOL    H6423878   2.721   1.579   2.136 -0.8311 -1.1317 -0.6178
  148MOL    H6523879   2.825   1.584   2.037 -1.1345  0.4437  0.0172
  148MOL    C6623880   2.845   1.374   2.299 -0.4355 -0.8743 -0.1779
  148MOL    C6723881   2.887   1.398   2.450 -0.4365  0.9321  0.2783
  148MOL    N6823882   2.791   1.495   2.508  0.0518 -0.3983  0.4784
  148MOL    H6923883   2.736   1.369   2.295 -0.4452  0.3326 -2.8410
  148MOL    H7023884   2.885   1.284   2.252  0.0625 -0.2619 -0.9522
  148MOL    H7123885   2.983   1.449   2.458 -0.9606  2.1733 -1.1338
  148MOL    H7223886   2.696   1.463   2.496 -0.0577 -0.8497  2.4524
  148MOL    H7323887   2.791   1.492   2.608  0.1241 -1.0663  0.4646
  148MOL    C7423888   2.886   1.273   2.527 -0.8958  0.5318  0.3643
  148MOL    C7523889   3.014   1.191   2.514 -0.2731  0.3206  0.0422
  148MOL    N7623890   3.097   1.209   2.630  1.0487 -0.1675  0.7086
  148MOL    H7723891   2.874   1.298   2.633  0.2874 -3.4146  1.5280
  148MOL    H7823892   2.798   1.211   2.509 -0.5164  0.4198 -1.1509
  148MOL    H7923893   3.062   1.237   2.428 -1.5698  2.1119  0.2615
  148MOL    H8023894   3.054   1.186   2.718  0.7301 -0.0236  0.5935
  148MOL    H8123895   3.167   1.137   2.625 -1.3924 -2.5015 -1.1691
  148MOL    C8223896   2.990   1.043   2.499 -0.4448  0.6725  0.5970
  148MOL    C8323897   2.910   0.976   2.382 -0.1574  0.1481 -0.6647
  148MOL    N8423898   2.978   1.006   2.264  0.1110  0.3701  0.3339
  148MOL    H8523899   3.082   0.985   2.501 -1.4506 -0.9750 -0.1420
  148MOL    H8623900   2.934   1.008   2.585 -0.8623 -0.9095 -0.2871
  148MOL    H8723901   2.818   1.032   2.392 -0.0583  0.2088 -0.0562
  148MOL    H8823902   2.902   1.011   2.197 -0.5504 -0.2306  1.0296
  148MOL    H8923903   3.011   1.101   2.267 -0.1974  0.5328 -0.9666
  148MOL    C9023904   2.895   0.822   2.410 -0.4130 -0.0240  0.6123
  148MOL    C9123905   2.764   0.745   2.369 -0.1275 -0.4573 -0.5724
  148MOL    N9223906   2.800   0.608   2.377 -0.0935 -0.2330  0.3067
  148MOL    H9323907   2.987   0.778   2.373 -0.3584 -0.1781  0.9259
  148MOL    H9423908   2.908   0.800   2.516  0.1281 -2.4851  0.0612
  148MOL    H9523909   2.726   0.780   2.273 -3.7738  0.6327  1.1541
  148MOL    H9623910   2.884   0.591   2.324 -0.5906 -0.3034 -0.4692
  148MOL    H9723911   2.728   0.550   2.337  0.8158 -1.8233  0.9274
  148MOL    C9823912   2.648   0.773   2.476 -0.3152 -0.3323  0.3872
  148MOL    C9923913   2.518   0.695   2.457 -0.6271  0.1037  0.6870
  148MOL   N10023914   2.429   0.736   2.560  0.0794 -0.4510 -0.3058
  148MOL   H10123915   2.696   0.754   2.573  1.6522 -1.3586 -0.7458
  148MOL   H10223916   2.620   0.878   2.470  0.9051 -0.0825 -1.1712
  148MOL   H10323917   2.534   0.588   2.473 -0.5173 -0.0944 -0.6424
  148MOL   H10423918   2.386   0.825   2.542  1.0777  0.3237  1.0128
  148MOL   H10523919   2.487   0.758   2.641  1.0430 -2.0637 -0.5193
  148MOL   C10623920   2.460   0.710   2.312 -0.1054  0.0751 -0.4510
  148MOL   C10723921   2.328   0.628   2.282 -0.4303  0.0901  0.1870
  148MOL   N10823922   2.218   0.721   2.258 -0.3038 -0.1135 -0.6261
  148MOL   H10923923   2.456   0.817   2.291 -0.6389 -0.4544 -3.1763
  148MOL   H11023924   2.534   0.677   2.239 -0.5173 -0.6854 -0.5224
  148MOL   H11123925   2.297   0.569   2.369  0.3166 -1.5162 -0.6153
  148MOL   H11223926   2.138   0.659   2.258  0.7350 -1.4730  1.4927
  148MOL   H11323927   2.209   0.776   2.343 -0.1406 -0.0684 -0.6388
  148MOL   C11423928   2.331   0.538   2.158  0.8350  0.3923  0.4031
  148MOL   C11523929   2.406   0.399   2.184 -0.6158  0.1515  0.1317
  148MOL   N11623930   2.340   0.297   2.094 -0.1339  0.1561 -0.7349
  148MOL   H11723931   2.229   0.509   2.133  0.7282  1.5353 -0.5263
  148MOL   H11823932   2.366   0.588   2.068  0.1571  1.6354  0.8226
  148MOL   H11923933   2.390   0.355   2.283 -0.4141  0.0234  0.1052
  148MOL   H12023934   2.266   0.248   2.143  0.1564 -1.5062 -1.9178
  148MOL   H12123935   2.400   0.220   2.071 -1.4411 -1.4163  0.9843
  148MOL   C12223936   2.559   0.406   2.156 -1.1414 -0.7701  0.6310
  148MOL   C12323937   2.658   0.292   2.201 -0.3399  0.2160 -0.3813
  148MOL   N12423938   2.794   0.289   2.150 -0.2043  0.0116  0.0312
  148MOL   H12523939   2.561   0.404   2.047 -0.5704 -0.7715  0.6429
  148MOL   H12623940   2.601   0.503   2.181 -1.9682 -0.2218 -0.0592
  148MOL   H12723941   2.613   0.204   2.153  1.2733 -1.4690  1.1317
  148MOL   H12823942   2.847   0.364   2.190 -1.0770  0.0164  1.2268
  148MOL   H12923943   2.786   0.316   2.053 -1.2266  0.5007  0.2404
  148MOL   C13023944   2.660   0.259   2.344  0.1928  0.3426  0.3416
  148MOL   C13123945   2.680   0.104   2.372  0.0972  0.5477  0.3048
  148MOL   N13223946   2.717   0.077   2.507 -0.1332  0.2505  0.0098
  148MOL   H13323947   2.741   0.313   2.394 -0.1243  2.1055 -1.0090
  148MOL   H13423948   2.565   0.275   2.395 -0.3024  1.6829 -0.9581
  148MOL   H13523949   2.759   0.071   2.304  0.9553  2.3163  0.4383
  148MOL   H13623950   2.745   7.256   2.520  2.6581  0.9510 -0.4527
  148MOL   H13723951   2.789   0.140   2.541  0.1345  0.2440 -0.5499
  148MOL   C13823952   2.544   0.037   2.350  0.2823  1.1086 -0.4109
  148MOL   C13923953   2.564   7.185   2.273  0.5265 -0.1908 -0.5211
  148MOL   N14023954   2.441   7.113   2.265 -0.2382 -0.2391  0.2308
  148MOL   H14123955   2.480   0.020   2.437 -0.5863 -2.1579 -1.5963
  148MOL   H14223956   2.481   0.094   2.281 -1.1261 -0.3845 -0.3935
  148MOL   H14323957   2.629   7.117   2.328  1.1483  0.3513 -0.5847
  148MOL   H14423958   2.433   7.082   2.361 -2.9694  0.1736  0.1641
  148MOL   H14523959   2.448   7.026   2.213 -1.6543  0.5986 -1.3994
  148MOL   C14623960   2.631   7.191   2.134 -0.3121 -0.2069  0.0099
  148MOL   C14723961   2.736   7.077   2.102  0.1512 -0.6101  0.5547
  148MOL   N14823962   2.744   7.083   1.960 -0.4105  0.5064 -0.2436
  148MOL   H14923963   2.553   7.188   2.058 -0.4340  1.0446  0.0733
  148MOL   H15023964   2.682   0.010   2.121  0.8292 -0.6715  1.0803
  148MOL   H15123965   2.694   6.977   2.116  1.2375 -0.9513  1.4725
  148MOL   H15223966   2.653   7.062   1.922  0.0978  1.2959 -1.9090
  148MOL   H15323967   2.802   7.007   1.927 -1.7406 -0.6909  0.1516
  148MOL   C15423968   2.867   7.094   2.166 -0.9213  0.1595 -0.2668
  148MOL   C15523969   2.958   6.975   2.152  0.2350  0.6493  0.3049
  148MOL   N15623970   3.076   6.979   2.233 -0.2225  0.2571  0.3764
  148MOL   H15723971   2.922   7.180   2.125 -1.3756 -0.0346 -1.3109
  148MOL   H15823972   2.849   7.110   2.272  3.9489  0.2078  0.6727
  148MOL   H15923973   2.984   6.967   2.047  1.3022  1.4370  0.4968
  148MOL   H16023974   3.033   6.958   2.322 -0.1689  1.5981  0.7365
  148MOL   H16123975   3.131   6.895   2.221  1.2921  0.9874  1.9946
  148MOL   H16223976   2.906   6.884   2.182  1.8384 -0.7523 -1.0870
  149MOL     C123977   4.833   2.479   1.879 -0.1171 -0.1583 -0.1599
  149MOL     C223978   4.690   2.498   1.921 -0.3025 -0.1811 -0.2106
  149MOL     N323979   4.672   2.608   2.014  0.3419  0.2182 -0.3553
  149MOL     H423980   4.862   2.558   1.810 -1.6226 -0.1473 -0.8028
  149MOL     H523981   4.852   2.390   1.820 -0.4905 -1.0533  1.0569
  149MOL     H623982   4.657   2.411   1.978  1.2208 -1.5175 -1.2944
  149MOL     H723983   4.766   2.638   2.034 -0.5136  3.1753 -0.5147
  149MOL     H823984   4.641   2.680   1.951  0.9029  0.7045 -0.0851
  149MOL     H923985   4.907   2.464   1.957 -1.4436 -0.3240  1.0966
  149MOL    C1023986   4.603   2.506   1.793  0.1386  0.5002 -0.2682
  149MOL    C1123987   4.458   2.474   1.818 -0.4692 -0.1959 -0.4159
  149MOL    N1223988   4.376   2.515   1.705 -0.4676 -0.5466 -0.0351
  149MOL    H1323989   4.619   2.611   1.768  2.7653 -0.0718 -1.1241
  149MOL    H1423990   4.640   2.443   1.712 -1.2746  0.4678 -0.9004
  149MOL    H1523991   4.421   2.535   1.901 -0.1792  0.6569 -0.9016
  149MOL    H1623992   4.306   2.442   1.700 -0.9641 -0.0890  0.1105
  149MOL    H1723993   4.434   2.506   1.623 -0.8509  1.3035 -0.5406
  149MOL    C1823994   4.439   2.322   1.827 -0.0008 -0.6922 -0.0372
  149MOL    C1923995   4.301   2.284   1.883 -0.2320  0.5553 -0.0672
  149MOL    N2023996   4.290   2.137   1.848  0.1455  0.3139 -0.6399
  149MOL    H2123997   4.459   2.272   1.732 -0.3270  0.4784 -0.7305
  149MOL    H2223998   4.510   2.276   1.896  0.1930 -0.3422 -0.0062
  149MOL    H2323999   4.219   2.329   1.828  0.0681 -0.0548 -1.0150
  149MOL    H2424000   4.353   2.076   1.899 -0.6129 -0.8741 -1.0993
  149MOL    H2524001   4.324   2.121   1.754  1.2403 -1.0973 -0.0210
  149MOL    C2624002   4.291   2.296   2.035  0.3369  0.0153  0.0028
  149MOL    C2724003   4.164   2.239   2.100  0.1140 -0.3210  0.2405
  149MOL    N2824004   4.173   2.212   2.246 -0.2778  0.4667 -0.7310
  149MOL    H2924005   4.377   2.243   2.076  0.3780 -0.3869 -0.5987
  149MOL    H3024006   4.301   2.403   2.056  1.8284  0.0536 -0.8284
  149MOL    H3124007   4.155   2.139   2.056  0.3553  0.2202 -1.0620
  149MOL    H3224008   4.180   2.302   2.291  0.8151 -0.5338  1.2027
  149MOL    H3324009   4.258   2.161   2.269 -0.3296  0.1385 -1.2675
  149MOL    C3424010   4.036   2.313   2.061  0.8821  0.3683  0.1856
  149MOL    C3524011   3.905   2.231   2.080 -0.1036 -0.5466 -0.2987
  149MOL    N3624012   3.783   2.318   2.068 -0.5765 -0.4530  0.1340
  149MOL    H3724013   4.038   2.408   2.114 -0.7933 -0.2751  1.4593
  149MOL    H3824014   4.038   2.345   1.957 -2.4099 -1.5941 -0.5670
  149MOL    H3924015   3.904   2.192   2.181 -0.8911 -0.4256 -0.2575
  149MOL    H4024016   3.743   2.313   2.161  0.0822  4.1056  0.7577
  149MOL    H4124017   3.720   2.280   1.999 -1.8511 -0.7046  1.3956
  149MOL    C4224018   3.884   2.100   1.991  0.2815  0.0401 -0.5741
  149MOL    C4324019   3.925   1.969   2.072 -0.5103 -0.6799  0.3956
  149MOL    N4424020   3.821   1.934   2.169  0.2035  0.5567  0.2253
  149MOL    H4524021   3.777   2.090   1.975  0.1807  1.7870 -1.0329
  149MOL    H4624022   3.919   2.112   1.889 -0.9676 -0.2924 -1.0540
  149MOL    H4724023   4.018   1.986   2.125 -0.2481 -1.4592  0.1927
  149MOL    H4824024   3.850   1.853   2.221 -2.5795  1.3713  3.2751
  149MOL    H4924025   3.796   2.000   2.242  2.2010  0.9876  0.5501
  149MOL    C5024026   3.954   1.854   1.970 -0.4222  0.2150  0.2373
  149MOL    C5124027   4.076   1.873   1.878  0.9153 -0.0890 -0.0732
  149MOL    N5224028   4.201   1.858   1.959 -0.2308 -0.3065  0.5497
  149MOL    H5324029   3.974   1.766   2.031 -1.4123 -0.2519 -0.0972
  149MOL    H5424030   3.870   1.843   1.901  1.0030  2.2897 -1.8949
  149MOL    H5524031   4.067   1.971   1.830  0.7412 -0.3273 -0.5321
  149MOL    H5624032   4.274   1.856   1.889 -0.7292 -0.4878  0.0329
  149MOL    H5724033   4.211   1.949   2.000 -2.3448 -0.4254  1.4218
  149MOL    C5824034   4.077   1.776   1.757  0.1926 -0.5890 -0.0967
  149MOL    C5924035   3.967   1.791   1.647  0.0134  0.3830 -0.0048
  149MOL    N6024036   3.995   1.911   1.564  0.1279  0.0855 -0.2530
  149MOL    H6124037   4.173   1.773   1.706  0.1603 -0.5858 -0.1585
  149MOL    H6224038   4.094   1.673   1.788 -2.1955 -1.0327 -0.1761
  149MOL    H6324039   3.874   1.824   1.695  0.2511 -1.0501  1.4938
  149MOL    H6424040   4.059   1.893   1.488 -1.3020  3.0655 -2.2749
  149MOL    H6524041   3.909   1.913   1.512  0.2771  1.8039 -0.4638
  149MOL    C6624042   3.947   1.669   1.556 -0.6950  0.0533 -0.3139
  149MOL    C6724043   3.828   1.588   1.584  0.2831  0.6709 -0.4718
  149MOL    N6824044   3.721   1.644   1.496  0.0809  0.0579  0.4747
  149MOL    H6924045   3.954   1.698   1.451  0.8774  2.8644  0.5145
  149MOL    H7024046   4.037   1.612   1.581 -0.9427 -0.0936  0.2398
  149MOL    H7124047   3.791   1.594   1.686 -3.1143 -0.5205 -1.5879
  149MOL    H7224048   3.632   1.598   1.505 -0.4166  1.1968  1.5031
  149MOL    H7324049   3.702   1.741   1.516  0.3776  0.3576 -0.6657
  149MOL    C7424050   3.843   1.438   1.541  0.3433 -0.3254  0.4056
  149MOL    C7524051   3.853   1.342   1.667  0.3865 -0.2125  0.3148
  149MOL    N7624052   3.862   1.206   1.618 -0.8439 -0.4708 -0.3098
  149MOL    H7724053   3.766   1.401   1.473  0.9420 -3.2478  1.2305
  149MOL    H7824054   3.931   1.421   1.480 -0.8476  1.9637 -2.0226
  149MOL    H7924055   3.760   1.348   1.724 -0.0738  3.1219 -0.6979
  149MOL    H8024056   3.940   1.173   1.563 -0.5889  2.6742 -1.9717
  149MOL    H8124057   3.862   1.141   1.695 -2.6848  0.8359  0.8615
  149MOL    C8224058   3.976   1.370   1.763  0.4334  0.4354  0.1811
  149MOL    C8324059   3.941   1.343   1.911  0.0935 -0.1030 -0.4558
  149MOL    N8424060   4.056   1.332   1.990 -0.2887 -0.5828 -0.3417
  149MOL    H8524061   4.058   1.305   1.733  0.1212  0.0152  0.2369
  149MOL    H8624062   4.012   1.472   1.751 -1.1650  0.7647 -2.2536
  149MOL    H8724063   3.898   1.243   1.918  0.8011 -0.3967 -0.2955
  149MOL    H8824064   4.114   1.262   1.947 -1.4168 -2.2788  0.8187
  149MOL    H8924065   4.100   1.423   1.986 -0.4560 -0.5329 -1.0188
  149MOL    C9024066   3.839   1.440   1.976  0.1084  0.4622 -0.5747
  149MOL    C9124067   3.762   1.379   2.090 -0.5687 -0.2818 -0.2100
  149MOL    N9224068   3.863   1.338   2.189  0.8991  0.4106 -0.6592
  149MOL    H9324069   3.896   1.529   2.002  1.0201 -0.6282  1.2434
  149MOL    H9424070   3.775   1.479   1.897 -2.6985 -2.6519  0.0832
  149MOL    H9524071   3.712   1.289   2.054  0.5000 -2.3263  3.1960
  149MOL    H9624072   3.849   1.247   2.229  3.3781 -1.3538 -3.5898
  149MOL    H9724073   3.945   1.330   2.131  1.4268  1.1107 -0.0278
  149MOL    C9824074   3.658   1.460   2.164 -0.1851 -0.8656  0.2460
  149MOL    C9924075   3.517   1.468   2.099  0.3281 -0.2093  0.7676
  149MOL   N10024076   3.532   1.546   1.978 -0.4119  0.7443  0.6081
  149MOL   H10124077   3.638   1.423   2.265 -0.4246 -1.0475  0.1311
  149MOL   H10224078   3.692   1.558   2.196 -1.2434  0.3852 -2.3458
  149MOL   H10324079   3.469   1.534   2.171  2.7538  1.5850  0.7893
  149MOL   H10424080   3.603   1.616   1.990  1.2978 -0.6401 -1.0820
  149MOL   H10524081   3.448   1.590   1.944 -0.4641  0.4777  0.3834
  149MOL   C10624082   3.441   1.345   2.050  0.6691  0.1534  0.3230
  149MOL   C10724083   3.390   1.240   2.161 -1.0673 -0.0716 -0.5499
  149MOL   N10824084   3.269   1.170   2.116  0.2880 -0.3015  0.0762
  149MOL   H10924085   3.357   1.378   1.990  0.1302 -0.5119  0.7005
  149MOL   H11024086   3.504   1.275   1.995 -0.6786 -1.5992  0.9380
  149MOL   H11124087   3.352   1.289   2.251 -1.5342  0.1436 -0.8607
  149MOL   H11224088   3.248   1.096   2.181  0.2025  1.8938  2.6474
  149MOL   H11324089   3.188   1.230   2.120  0.2568 -0.3497  0.1788
  149MOL   C11424090   3.506   1.143   2.197  1.0462 -0.5521 -0.3515
  149MOL   C11524091   3.520   1.130   2.351 -0.2470 -1.2196 -0.1272
  149MOL   N11624092   3.402   1.080   2.419 -0.2903 -0.9713 -0.2915
  149MOL   H11724093   3.473   1.042   2.171 -0.4895 -0.2549  0.4061
  149MOL   H11824094   3.604   1.163   2.153  2.2306 -0.9006  1.9987
  149MOL   H11924095   3.539   1.228   2.393 -0.9474 -1.2275  0.2046
  149MOL   H12024096   3.368   0.998   2.370  1.2794 -2.0122  0.3318
  149MOL   H12124097   3.429   1.058   2.513  0.9465 -2.6432 -1.0127
  149MOL   C12224098   3.638   1.046   2.396  0.0712  0.1938  0.5298
  149MOL   C12324099   3.714   1.096   2.526 -0.3005 -0.0637 -0.7282
  149MOL   N12424100   3.771   0.987   2.606 -0.2456  0.0636 -0.5435
  149MOL   H12524101   3.608   0.942   2.406 -1.5714  0.4885 -1.1543
  149MOL   H12624102   3.709   1.039   2.314 -2.8412  0.5578 -2.1096
  149MOL   H12724103   3.641   1.141   2.593  0.2973 -2.3906  1.5823
  149MOL   H12824104   3.871   0.996   2.610 -0.5718  3.5205  1.5785
  149MOL   H12924105   3.758   0.912   2.540  0.1373 -0.3909 -0.1071
  149MOL   C13024106   3.832   1.192   2.501 -0.3535 -0.0020  0.2103
  149MOL   C13124107   3.869   1.271   2.627  0.1456  0.6160 -0.6652
  149MOL   N13224108   3.995   1.328   2.597 -0.4304  0.1396  0.1416
  149MOL   H13324109   3.914   1.131   2.465 -0.0943  0.6454 -0.2960
  149MOL   H13424110   3.806   1.270   2.430  0.7941 -0.4827 -0.7389
  149MOL   H13524111   3.883   1.211   2.718 -1.4385  2.1854  0.6443
  149MOL   H13624112   3.994   1.379   2.510 -2.1838  0.7386  0.5000
  149MOL   H13724113   4.006   1.406   2.660 -3.0479 -0.2364  1.1103
  149MOL   C13824114   3.770   1.386   2.671 -0.2172  0.8946  0.5551
  149MOL   C13924115   3.809   1.462   2.806  0.0835  0.1847 -0.1374
  149MOL   N14024116   3.757   1.599   2.812  0.3790 -0.1142 -0.0765
  149MOL   H14124117   3.760   1.453   2.585  1.9729 -3.6753 -3.5676
  149MOL   H14224118   3.671   1.341   2.682  0.4287 -0.9255 -0.7520
  149MOL   H14324119   3.914   1.485   2.786  0.3748 -0.9552  0.0307
  149MOL   H14424120   3.797   1.649   2.891 -1.6266  0.4322  0.6292
  149MOL   H14524121   3.783   1.644   2.726 -1.2961  2.1640  0.5567
  149MOL   C14624122   3.789   1.381   2.936 -0.4197 -0.0892  0.2705
  149MOL   C14724123   3.654   1.349   2.992 -0.0815  0.3778  0.4025
  149MOL   N14824124   3.599   1.241   2.914  0.2205 -1.1631  0.3385
  149MOL   H14924125   3.839   1.286   2.916  0.1688  0.4689 -0.9860
  149MOL   H15024126   3.860   1.418   3.010  1.0937 -0.3970 -0.9915
  149MOL   H15124127   3.597   1.440   2.972  1.1827  1.3873  1.2733
  149MOL   H15224128   3.536   1.281   2.846  1.4819 -2.2981 -1.5591
  149MOL   H15324129   3.665   1.203   2.847  0.9095  0.6471 -0.0410
  149MOL   C15424130   3.659   1.305   3.144 -0.2500 -0.4599 -0.1978
  149MOL   C15524131   3.690   1.430   3.240 -0.7995 -0.2264  0.4373
  149MOL   N15624132   3.658   1.397   3.379 -0.5954 -0.3107  0.1427
  149MOL   H15724133   3.562   1.257   3.155 -0.9461  0.7698 -0.8278
  149MOL   H15824134   3.726   1.221   3.162 -0.2751 -0.2574  0.8215
  149MOL   H15924135   3.615   1.502   3.207 -0.3864 -0.6498 -1.4662
  149MOL   H16024136   3.562   1.372   3.398 -0.7385  1.1468  1.4691
  149MOL   H16124137   3.677   1.463   3.453 -2.2236  0.1975  0.1397
  149MOL   H16224138   3.790   1.474   3.241  0.1970 -2.4224  0.8725
  150MOL     C124139   0.471   1.171   6.440  0.5959  0.6405 -0.0729
  150MOL     C224140   0.463   1.136   6.594 -0.1116  0.3350  0.1256
  150MOL     N324141   0.503   1.254   6.671  0.0232  0.3606  0.3070
  150MOL     H424142   0.409   1.257   6.415 -1.8884 -1.2881 -0.7837
  150MOL     H524143   0.443   1.084   6.380 -0.5367  0.9851 -0.0497
  150MOL     H624144   0.520   1.044   6.607 -0.8617 -0.1330  0.1757
  150MOL     H724145   0.560   1.224   6.749 -0.9282 -0.9679  0.5008
  150MOL     H824146   0.425   1.292   6.723 -1.5232 -1.8768 -0.3081
  150MOL     H924147   0.573   1.201   6.417  1.4743 -3.3716 -1.9951
  150MOL    C1024148   0.319   1.108   6.636 -0.5223 -0.4051 -0.2198
  150MOL    C1124149   0.271   0.966   6.581 -0.2598 -0.0974  0.4400
  150MOL    N1224150   0.237   0.873   6.698  0.2915  0.2544  0.0770
  150MOL    H1324151   0.322   1.114   6.744 -0.0694  0.3073 -0.2617
  150MOL    H1424152   0.249   1.188   6.613  0.3369  0.3305 -0.3222
  150MOL    H1524153   0.349   0.908   6.532  0.0183  0.8201 -0.2244
  150MOL    H1624154   0.144   0.894   6.731  0.4319  0.4242  0.3723
  150MOL    H1724155   0.296   0.883   6.779 -0.3120 -2.0068  0.8416
  150MOL    C1824156   0.156   0.968   6.486 -0.5148 -0.1523  1.2014
  150MOL    C1924157   0.134   0.844   6.397 -0.7568 -1.0910 -0.8813
  150MOL    N2024158   0.080   0.730   6.479 -0.2211  0.6169  0.6043
  150MOL    H2124159   0.061   0.990   6.534 -1.1969  0.6766 -0.4758
  150MOL    H2224160   0.177   1.060   6.431  0.3823 -1.2278 -0.3114
  150MOL    H2324161   0.230   0.822   6.351 -1.1153 -2.0934 -1.1511
  150MOL    H2424162   7.259   0.714   6.455 -1.0147  1.5860  3.0460
  150MOL    H2524163   0.072   0.752   6.577 -0.0688 -2.4980  1.3972
  150MOL    C2624164   0.041   0.868   6.276 -0.1811  0.4562 -0.0278
  150MOL    C2724165   0.065   0.756   6.168 -0.0820 -0.0930  0.3846
  150MOL    N2824166   7.223   0.740   6.079 -0.0278 -0.5249  0.0030
  150MOL    H2924167   7.212   0.885   6.302 -0.1781 -0.1354  0.3880
  150MOL    H3024168   0.066   0.964   6.232 -0.1830 -0.4584 -2.0758
  150MOL    H3124169   0.079   0.666   6.228  0.6491  0.3273  0.8529
  150MOL    H3224170   7.142   0.699   6.124 -0.9682  0.1686 -1.0436
  150MOL    H3324171   7.254   0.666   6.018  3.8025 -1.3985  2.7952
  150MOL    C3424172   0.193   0.769   6.082 -0.1067 -0.4711  0.1609
  150MOL    C3524173   0.304   0.675   6.126 -0.4644 -0.2576 -0.4227
  150MOL    N3624174   0.269   0.538   6.099  0.0734  0.1200  0.1123
  150MOL    H3724175   0.177   0.747   5.977 -1.1910 -2.3984  0.6945
  150MOL    H3824176   0.213   0.876   6.088 -2.7371  0.1870 -1.9507
  150MOL    H3924177   0.302   0.679   6.235  0.2531 -0.9052 -0.3834
  150MOL    H4024178   0.178   0.510   6.134 -0.0943  1.8285  1.1202
  150MOL    H4124179   0.332   0.473   6.144 -0.9932 -0.7999  0.3095
  150MOL    C4224180   0.437   0.713   6.059  0.1928 -0.0799  0.6393
  150MOL    C4324181   0.561   0.692   6.147 -0.2322  0.2734  0.9494
  150MOL    N4424182   0.682   0.706   6.063 -0.1737  0.1878 -0.0807
  150MOL    H4524183   0.455   0.650   5.972  1.3613  2.2773 -0.8658
  150MOL    H4624184   0.431   0.817   6.029 -1.0844 -0.7108 -1.3684
  150MOL    H4724185   0.558   0.591   6.188  0.4769  0.5219  1.6324
  150MOL    H4824186   0.763   0.669   6.110 -0.0467 -0.8116 -1.0581
  150MOL    H4924187   0.698   0.806   6.062  1.3179  0.0181  2.6196
  150MOL    C5024188   0.562   0.799   6.260 -0.2648  0.7190 -1.0048
  150MOL    C5124189   0.669   0.778   6.364 -0.1139  0.3486  0.0624
  150MOL    N5224190   0.705   0.905   6.421 -0.3452  0.3471 -0.0460
  150MOL    H5324191   0.579   0.889   6.201  1.5351  1.3927  0.4840
  150MOL    H5424192   0.467   0.817   6.310  0.9134 -0.0483  1.5574
  150MOL    H5524193   0.762   0.738   6.323 -0.8512 -1.5657  0.2010
  150MOL    H5624194   0.766   0.873   6.494 -1.9537  0.2036  1.2657
  150MOL    H5724195   0.630   0.938   6.480 -0.7667 -0.9538  0.1619
  150MOL    C5824196   0.608   0.683   6.465  0.0922  0.2543 -0.9263
  150MOL    C5924197   0.703   0.577   6.520  0.5050  0.0359  0.9667
  150MOL    N6024198   0.684   0.556   6.665 -0.3803  0.2929  1.0220
  150MOL    H6124199   0.551   0.726   6.546 -0.8245  0.1931 -1.5318
  150MOL    H6224200   0.525   0.627   6.421 -0.1544 -0.5183  0.5036
  150MOL    H6324201   0.806   0.610   6.511  0.2463  0.8096  0.8349
  150MOL    H6424202   0.770   0.530   6.711  0.8301 -0.7644 -1.6945
  150MOL    H6524203   0.629   0.472   6.674 -0.8986  0.5107 -0.0133
  150MOL    C6624204   0.710   0.439   6.458  0.2222  0.2547  0.0977
  150MOL    C6724205   0.769   0.437   6.312  0.2023  0.4376  0.0583
  150MOL    N6824206   0.914   0.441   6.311 -0.0567 -0.5833 -0.0707
  150MOL    H6924207   0.765   0.367   6.520  0.0849  0.4766  0.4773
  150MOL    H7024208   0.616   0.384   6.452  0.5574 -0.4088  0.7943
  150MOL    H7124209   0.724   0.514   6.250  0.0457  0.2700 -0.0346
  150MOL    H7224210   0.950   0.350   6.286 -0.2592 -0.3424 -1.2668
  150MOL    H7324211   0.953   0.511   6.249  1.1352  0.3510  1.6979
  150MOL    C7424212   0.732   0.300   6.242 -0.1562 -0.5374  0.6314
  150MOL    C7524213   0.577   0.290   6.203 -0.5592 -0.3555 -0.4449
  150MOL    N7624214   0.564   0.339   6.069 -0.5173 -0.8188  0.7235
  150MOL    H7724215   0.787   0.285   6.150 -1.4470 -1.3535 -0.0172
  150MOL    H7824216   0.773   0.225   6.310  1.2941  1.1900  1.7077
  150MOL    H7924217   0.516   0.351   6.270 -0.1197  1.4072 -1.6135
  150MOL    H8024218   0.471   0.319   6.035 -1.7403  0.2256  3.3381
  150MOL    H8124219   0.582   0.436   6.052 -0.7354 -0.6667  1.3646
  150MOL    C8224220   0.524   0.145   6.215  0.2959  0.0142 -0.7058
  150MOL    C8324221   0.519   0.092   6.368 -0.1343 -0.0049  0.4072
  150MOL    N8424222   0.395   0.021   6.377 -0.1974 -0.7985 -0.0705
  150MOL    H8524223   0.426   0.141   6.169 -0.4630  0.7053  0.8223
  150MOL    H8624224   0.582   0.078   6.151  1.6669  1.6817 -1.2543
  150MOL    H8724225   0.523   0.182   6.429  0.7998  1.7105 -2.0937
  150MOL    H8824226   0.328   0.067   6.437 -0.7377 -0.1407 -1.1695
  150MOL    H8924227   0.410   7.214   6.433 -1.9372 -0.8146  0.4042
  150MOL    C9024228   0.631   7.267   6.410 -0.4068  0.2651 -0.1117
  150MOL    C9124229   0.644   7.244   6.558 -0.4543  0.6207 -0.2477
  150MOL    N9224230   0.743   7.142   6.581 -0.5883  1.1509  0.2787
  150MOL    H9324231   0.608   7.174   6.358 -0.4182  1.1756 -1.7705
  150MOL    H9424232   0.727   0.029   6.376  1.4154 -2.5930  1.6821
  150MOL    H9524233   0.556   7.204   6.608  1.2528 -1.8725  0.8613
  150MOL    H9624234   0.725   7.054   6.536  0.4480  0.9690  0.2145
  150MOL    H9724235   0.824   7.185   6.537  0.0627  0.2944  0.6315
  150MOL    C9824236   0.695   0.099   6.630 -0.5939  0.1658  0.3380
  150MOL    C9924237   0.679   0.114   6.782  0.0096  0.4758  0.2930
  150MOL   N10024238   0.730   0.247   6.820 -0.0131 -0.1594  0.4596
  150MOL   H10124239   0.802   0.107   6.612 -0.8320  1.0523 -0.7320
  150MOL   H10224240   0.645   0.187   6.589  0.3246  1.4590  1.9282
  150MOL   H10324241   0.729   0.028   6.827  0.1465 -1.0091 -2.5757
  150MOL   H10424242   0.712   0.241   6.919  0.5859 -1.0676  0.5211
  150MOL   H10524243   0.830   0.259   6.817  0.0971 -1.2571 -0.8787
  150MOL   C10624244   0.536   0.102   6.846  0.3823  0.4159  0.2797
  150MOL   C10724245   0.458   7.239   6.853  1.0162 -0.9457 -0.5631
  150MOL   N10824246   0.546   7.139   6.900 -0.9366 -0.6809  0.4813
  150MOL   H10924247   0.551   0.135   6.948  1.7245 -0.7054  0.4533
  150MOL   H11024248   0.482   0.191   6.811 -0.8109 -0.6677 -0.6875
  150MOL   H11124249   0.428   7.206   6.753  0.0993  1.2066 -1.0309
  150MOL   H11224250   0.620   7.121   6.834  0.7332  0.2148  2.0451
  150MOL   H11324251   0.488   7.056   6.899  1.0484 -2.1321  1.4738
  150MOL   C11424252   0.339   7.248   6.956 -0.3020  0.6871  0.0755
  150MOL   C11524253   0.204   7.270   6.874 -0.1313 -0.5106  0.4274
  150MOL   N11624254   0.097   7.233   6.959  0.1796 -0.3773 -0.1000
  150MOL   H11724255   0.324   7.154   7.010  0.2042  0.3901 -0.2981
  150MOL   H11824256   0.359   0.049   7.032  1.9588 -1.7565  2.0535
  150MOL   H11924257   0.195   7.192   6.798  2.0676  0.7617 -1.1799
  150MOL   H12024258   0.105   7.142   7.003  0.1769 -0.1198  0.4335
  150MOL   H12124259   0.102   0.013   7.044  1.9305  0.2566 -0.5978
  150MOL   C12224260   0.165   0.132   6.817 -0.3050 -0.4383 -0.4218
  150MOL   C12324261   0.218   0.150   6.669 -0.5042  0.1835 -0.2901
  150MOL   N12424262   0.137   0.067   6.583 -0.0479  0.5657 -0.0711
  150MOL   H12524263   0.056   0.138   6.826 -0.3371 -1.4959  0.0029
  150MOL   H12624264   0.203   0.213   6.879  1.9987 -1.4367 -0.4965
  150MOL   H12724265   0.320   0.114   6.659 -1.3075 -2.4944  0.7676
  150MOL   H12824266   0.101   0.002   6.652 -0.7183 -1.5201 -2.2946
  150MOL   H12924267   0.054   0.125   6.574 -1.5268 -1.1215  2.0716
  150MOL   C13024268   0.200   0.294   6.618  0.1849 -0.3148  0.2688
  150MOL   C13124269   0.318   0.386   6.660  0.3559  0.2971 -0.7710
  150MOL   N13224270   0.340   0.479   6.548 -0.2401 -0.1754  0.0716
  150MOL   H13324271   0.188   0.279   6.510 -1.5118 -0.8192  0.5125
  150MOL   H13424272   0.104   0.333   6.653 -0.4208 -0.8104 -0.7867
  150MOL   H13524273   0.409   0.329   6.677 -0.7743 -1.8996 -1.8766
  150MOL   H13624274   0.422   0.533   6.569 -2.3688  2.6115  1.6705
  150MOL   H13724275   0.270   0.552   6.543 -1.4234 -1.4595 -3.6315
  150MOL   C13824276   0.284   0.491   6.774  0.3703 -0.1558  0.3064
  150MOL   C13924277   0.413   0.549   6.859  0.3950  0.3667 -0.1245
  150MOL   N14024278   0.464   0.666   6.796 -0.1051  0.7824 -0.1347
  150MOL   H14124279   0.210   0.566   6.747  1.6867  0.4811 -1.6994
  150MOL   H14224280   0.228   0.434   6.848 -0.1151  0.4806  0.4277
  150MOL   H14324281   0.487   0.469   6.853  1.6346  1.4298  0.8275
  150MOL   H14424282   0.388   0.721   6.758 -0.3875  1.2842  1.1157
  150MOL   H14524283   0.532   0.641   6.727  0.2270 -1.3578  0.9300
  150MOL   C14624284   0.378   0.573   7.006  0.0621 -0.1494  0.3110
  150MOL   C14724285   0.503   0.621   7.078  0.0954  0.1727  0.1830
  150MOL   N14824286   0.463   0.669   7.209  0.4815 -0.4951  0.6640
  150MOL   H14924287   0.295   0.644   7.012 -0.3172 -0.5789  0.2116
  150MOL   H15024288   0.336   0.487   7.058  0.7750 -0.6148  0.1257
  150MOL   H15124289   0.547   0.706   7.025 -0.4989  1.2225  1.3620
  150MOL   H15224290   0.385   0.732   7.208 -0.9204 -2.1756 -1.0338
  150MOL   H15324291   0.538   0.725   7.247 -0.3029  2.1890 -1.6037
  150MOL   C15424292   0.615   0.515   7.085 -0.5019  0.2091 -0.8985
  150MOL   C15524293   0.565   0.371   7.117 -0.1103  1.2742  0.4626
  150MOL   N15624294   0.681   0.283   7.136  0.3575 -1.0058  0.0945
  150MOL   H15724295   0.666   0.511   6.989 -1.3725  0.1552 -1.3643
  150MOL   H15824296   0.690   0.538   7.160 -2.1739  1.9275  0.3011
  150MOL   H15924297   0.520   0.333   7.025  0.8171 -1.3572  1.0508
  150MOL   H16024298   0.644   0.196   7.172  1.2594 -0.9165  1.2774
  150MOL   H16124299   0.736   0.317   7.214 -0.3671  2.4006 -0.8135
  150MOL   H16224300   0.504   0.373   7.207  0.8389  0.4572  1.1302
  151MOL     C124301   6.908   4.474   2.951 -0.4466  0.2844 -0.3382
  151MOL     C224302   6.921   4.608   2.874  0.0152 -0.7348 -0.2859
  151MOL     N324303   7.061   4.634   2.873 -0.3082 -0.8568  0.1173
  151MOL     H424304   6.948   4.481   3.052 -1.6993 -0.4616  0.2234
  151MOL     H524305   6.947   4.387   2.900  1.0344  1.4070 -1.1601
  151MOL     H624306   6.872   4.689   2.927 -0.0638 -1.2770  0.4732
  151MOL     H724307   7.087   4.654   2.968 -1.2183  0.5230  0.0805
  151MOL     H824308   7.101   4.544   2.850  0.3936 -0.3257 -0.8093
  151MOL     H924309   6.803   4.455   2.975 -0.2025 -1.5511 -0.6456
  151MOL    C1024310   6.852   4.602   2.738 -0.1523 -0.3225 -0.1578
  151MOL    C1124311   6.689   4.626   2.728 -0.1341  0.3551  0.0099
  151MOL    N1224312   6.658   4.674   2.592 -0.4627 -0.0368 -0.1436
  151MOL    H1324313   6.900   4.680   2.680  0.9063 -1.3080 -0.6227
  151MOL    H1424314   6.887   4.511   2.689 -1.4519 -1.9895  1.8702
  151MOL    H1524315   6.663   4.706   2.798 -0.3665  0.5245 -0.2706
  151MOL    H1624316   6.715   4.750   2.559 -1.2399  0.2670 -0.7852
  151MOL    H1724317   6.678   4.595   2.533 -0.1028 -1.7340  2.1834
  151MOL    C1824318   6.603   4.494   2.761  0.2749  0.0417 -0.4564
  151MOL    C1924319   6.459   4.483   2.703  0.3028 -0.3692  0.2404
  151MOL    N2024320   6.406   4.352   2.726  0.1427 -0.3127 -0.1926
  151MOL    H2124321   6.670   4.417   2.723  1.4252 -0.0151  1.6533
  151MOL    H2224322   6.595   4.484   2.869 -0.0871 -0.2021 -0.5030
  151MOL    H2324323   6.463   4.500   2.595  1.2824 -2.7259 -0.1232
  151MOL    H2424324   6.311   4.337   2.696  0.6106 -0.7261 -1.4663
  151MOL    H2524325   6.460   4.289   2.669 -1.4946 -2.5921  0.6850
  151MOL    C2624326   6.370   4.595   2.770 -0.4719  0.1400  0.0426
  151MOL    C2724327   6.220   4.606   2.725 -0.1885  1.1702  0.6113
  151MOL    N2824328   6.136   4.647   2.837  0.2589  0.3247  0.2970
  151MOL    H2924329   6.368   4.571   2.876  1.6656  0.0142  0.0822
  151MOL    H3024330   6.418   4.692   2.758 -1.9904  0.8088 -0.7510
  151MOL    H3124331   6.196   4.504   2.692 -0.8452  0.6864  2.4967
  151MOL    H3224332   6.169   4.739   2.863  0.8058  0.6822 -1.5785
  151MOL    H3324333   6.050   4.674   2.791 -0.3480  1.2011  1.8733
  151MOL    C3424334   6.201   4.712   2.606  0.0619  0.4410  1.2011
  151MOL    C3524335   6.254   4.672   2.466  0.1918  0.9247  0.0430
  151MOL    N3624336   6.189   4.550   2.417  0.0481  0.6774 -0.1532
  151MOL    H3724337   6.097   4.742   2.598 -0.3984 -1.2597  0.6641
  151MOL    H3824338   6.248   4.805   2.637 -0.5231  1.1588 -0.0209
  151MOL    H3924339   6.362   4.655   2.467 -0.1233 -1.1658 -0.5301
  151MOL    H4024340   6.236   4.528   2.330  0.2801  1.3034 -0.1819
  151MOL    H4124341   6.204   4.472   2.480 -1.4850  0.8890  0.5009
  151MOL    C4224342   6.228   4.779   2.363 -0.0038  0.2870 -0.4503
  151MOL    C4324343   6.284   4.918   2.384  0.0496 -0.6581  0.9939
  151MOL    N4424344   6.319   4.970   2.255  0.5144  0.2727  0.7055
  151MOL    H4524345   6.264   4.748   2.265  1.8005  1.2063 -0.1049
  151MOL    H4624346   6.120   4.790   2.356 -0.0361 -0.6254 -1.5068
  151MOL    H4724347   6.370   4.885   2.442  0.5784 -1.7195 -0.3672
  151MOL    H4824348   6.349   5.065   2.273  1.2168  0.1863  0.0495
  151MOL    H4924349   6.404   4.935   2.213 -0.1438 -0.2810 -0.1951
  151MOL    C5024350   6.186   5.016   2.442  0.2956  0.8494 -0.7798
  151MOL    C5124351   6.246   5.156   2.474 -0.1246 -0.3371 -1.2852
  151MOL    N5224352   6.242   5.241   2.356  0.3401 -0.3930  0.6263
  151MOL    H5324353   6.103   5.026   2.372  1.5412  0.7332 -2.3015
  151MOL    H5424354   6.144   4.967   2.529 -1.3731  1.6804 -1.0922
  151MOL    H5524355   6.352   5.151   2.498 -0.5269  1.9025  1.2993
  151MOL    H5624356   6.270   5.329   2.396 -0.8113 -0.6194  2.0125
  151MOL    H5724357   6.151   5.264   2.317  1.3095  2.3664 -0.1330
  151MOL    C5824358   6.190   5.249   2.587 -0.0643  0.1493  0.2326
  151MOL    C5924359   6.241   5.229   2.737 -0.4684 -0.6990  0.1841
  151MOL    N6024360   6.209   5.348   2.817 -0.2239  0.0562  0.0479
  151MOL    H6124361   6.209   5.351   2.556 -0.8333  0.4019  0.5643
  151MOL    H6224362   6.082   5.229   2.587 -0.2051  0.8856 -0.2625
  151MOL    H6324363   6.349   5.215   2.740 -0.3973  0.1187  1.5852
  151MOL    H6424364   6.109   5.358   2.803  0.1955  3.1230 -1.1801
  151MOL    H6524365   6.255   5.424   2.769 -1.4416  2.0750  1.9963
  151MOL    C6624366   6.194   5.097   2.803 -0.3220  0.1372  0.1839
  151MOL    C6724367   6.242   5.046   2.945  0.8514 -0.5483  0.4199
  151MOL    N6824368   6.131   4.972   3.003 -0.5390  0.7403  0.2194
  151MOL    H6924369   6.085   5.097   2.799 -0.3163 -0.2440  0.0274
  151MOL    H7024370   6.242   5.026   2.735  0.5996  0.2848  0.6664
  151MOL    H7124371   6.262   5.136   3.003 -1.1913 -0.5432  1.1805
  151MOL    H7224372   6.156   4.933   3.092 -0.4987 -2.7094 -1.2236
  151MOL    H7324373   6.068   5.047   3.028  0.6397  1.7690  0.1766
  151MOL    C7424374   6.381   4.978   2.950  0.2684 -0.2653 -0.2279
  151MOL    C7524375   6.500   5.072   2.952  0.1597 -0.4138 -0.1002
  151MOL    N7624376   6.511   5.146   3.078 -0.7395  0.4696  0.0378
  151MOL    H7724377   6.384   4.916   3.039 -0.4172  0.5770  0.3915
  151MOL    H7824378   6.389   4.905   2.870  1.2186  2.3065 -2.5760
  151MOL    H7924379   6.483   5.146   2.874 -1.7393  1.3063  1.8843
  151MOL    H8024380   6.476   5.084   3.149  1.6111 -1.5206 -0.4631
  151MOL    H8124381   6.454   5.229   3.082 -1.0036  0.3577 -1.4363
  151MOL    C8224382   6.633   5.001   2.906  0.5312  0.3987 -0.4773
  151MOL    C8324383   6.678   5.001   2.761  0.3825 -0.6230  0.1184
  151MOL    N8424384   6.565   4.962   2.676 -0.4618 -0.4198  0.6508
  151MOL    H8524385   6.710   5.037   2.974  1.6388 -2.6033 -0.1109
  151MOL    H8624386   6.615   4.897   2.934 -1.8929  1.0430  0.5689
  151MOL    H8724387   6.754   4.923   2.758 -0.1201 -1.1996  1.8962
  151MOL    H8824388   6.573   5.002   2.583 -2.2151  2.9683  1.8710
  151MOL    H8924389   6.574   4.861   2.678 -2.4366 -0.5910  1.7198
  151MOL    C9024390   6.739   5.128   2.715  1.0877 -0.4518  0.7883
  151MOL    C9124391   6.881   5.155   2.775  0.4106 -0.0721 -0.9571
  151MOL    N9224392   6.977   5.058   2.722 -0.4305 -0.1184  0.4919
  151MOL    H9324393   6.760   5.123   2.609  1.5361  2.2386  0.7247
  151MOL    H9424394   6.682   5.218   2.736  0.9186 -0.0629 -1.3229
  151MOL    H9524395   6.883   5.145   2.884 -0.6245 -2.5679 -1.1422
  151MOL    H9624396   6.964   4.966   2.762  2.9413 -1.3205 -0.9849
  151MOL    H9724397   6.959   5.042   2.623  2.2009  1.3232 -0.2527
  151MOL    C9824398   6.942   5.293   2.753 -0.4739  0.6023 -0.2515
  151MOL    C9924399   6.868   5.407   2.823 -0.2642 -0.3732 -0.3297
  151MOL   N10024400   6.971   5.495   2.877  0.4582 -0.1136  0.4480
  151MOL   H10124401   7.045   5.286   2.789 -0.7068 -0.3206  0.2596
  151MOL   H10224402   6.948   5.329   2.650 -0.6120 -0.3070 -0.5778
  151MOL   H10324403   6.824   5.362   2.912  1.3196 -3.0842 -0.8523
  151MOL   H10424404   6.927   5.580   2.912 -0.1425  0.3385 -1.3676
  151MOL   H10524405   7.008   5.460   2.964  3.1892  1.5103 -0.0131
  151MOL   C10624406   6.766   5.483   2.734  0.1000 -0.1681 -0.0646
  151MOL   C10724407   6.656   5.552   2.820 -0.0605 -0.0576  0.7599
  151MOL   N10824408   6.570   5.629   2.729 -0.4503 -0.6760  0.2816
  151MOL   H10924409   6.822   5.559   2.679  0.9380 -2.4305 -2.5021
  151MOL   H11024410   6.720   5.426   2.653 -1.2660  1.6944 -0.6384
  151MOL   H11124411   6.698   5.614   2.900  1.2997 -1.1060  0.8711
  151MOL   H11224412   6.617   5.718   2.716 -0.0338 -0.9586 -0.1654
  151MOL   H11324413   6.492   5.657   2.787  0.9677 -1.1093  2.4313
  151MOL   C11424414   6.564   5.441   2.885 -0.2361  0.0143 -0.5836
  151MOL   C11524415   6.469   5.499   2.991 -0.2815  0.6180 -0.5879
  151MOL   N11624416   6.385   5.396   3.030  0.6607  0.3850  0.0141
  151MOL   H11724417   6.502   5.405   2.802  1.1443 -1.6646 -0.9242
  151MOL   H11824418   6.614   5.358   2.935 -0.3554  0.8049  0.8745
  151MOL   H11924419   6.412   5.569   2.929 -2.0225  1.0306  1.4195
  151MOL   H12024420   6.320   5.412   3.105 -1.5087 -0.7146 -1.5711
  151MOL   H12124421   6.326   5.370   2.953  0.1239  0.2401  0.4759
  151MOL   C12224422   6.539   5.574   3.111  0.2301 -0.4845 -0.7446
  151MOL   C12324423   6.465   5.594   3.246 -0.6210 -0.4624  0.0877
  151MOL   N12424424   6.559   5.628   3.349 -0.5775  0.1410  0.7687
  151MOL   H12524425   6.637   5.533   3.138  0.5401  1.2559  0.8113
  151MOL   H12624426   6.570   5.673   3.080  1.9462 -1.1412 -1.2024
  151MOL   H12724427   6.432   5.496   3.279 -1.0262 -0.0480  0.9484
  151MOL   H12824428   6.507   5.662   3.428  0.3343  0.3073  1.2962
  151MOL   H12924429   6.621   5.704   3.326 -0.4263 -0.0850  0.4161
  151MOL   C13024430   6.357   5.708   3.237  0.4739  0.1351  0.1390
  151MOL   C13124431   6.270   5.745   3.361  0.1168  0.3118 -1.0964
  151MOL   N13224432   6.167   5.832   3.303  0.0454  0.0965 -0.0280
  151MOL   H13324433   6.402   5.795   3.190  1.6671 -0.6647 -0.2136
  151MOL   H13424434   6.284   5.665   3.168 -0.6331 -0.3063  1.5303
  151MOL   H13524435   6.337   5.799   3.428  0.8495  0.6330 -2.0758
  151MOL   H13624436   6.116   5.870   3.382 -0.2495  1.4477 -0.8584
  151MOL   H13724437   6.219   5.908   3.263  0.9961 -0.7844 -0.4973
  151MOL   C13824438   6.200   5.633   3.443  0.6005 -0.0856  0.0407
  151MOL   C13924439   6.290   5.573   3.551 -0.6881 -0.8079 -0.1994
  151MOL   N14024440   6.337   5.679   3.643  0.1040  0.1648  0.4807
  151MOL   H14124441   6.105   5.670   3.483 -0.1508 -1.6887 -0.2040
  151MOL   H14224442   6.161   5.558   3.374 -1.3635  0.7120  0.2530
  151MOL   H14324443   6.377   5.527   3.506 -0.0304  0.2991 -0.0795
  151MOL   H14424444   6.254   5.724   3.680  2.3176  2.0825  3.2887
  151MOL   H14524445   6.370   5.638   3.730  0.6577 -0.6467 -0.1022
  151MOL   C14624446   6.219   5.467   3.638 -0.1128  0.0801 -0.2969
  151MOL   C14724447   6.266   5.314   3.616  0.0369 -0.5149 -0.2503
  151MOL   N14824448   6.235   5.242   3.743 -0.1947 -0.5839  0.3495
  151MOL   H14924449   6.247   5.492   3.741  1.9077 -2.1939 -0.2400
  151MOL   H15024450   6.111   5.474   3.634 -0.0966  0.8401  0.3837
  151MOL   H15124451   6.375   5.313   3.609 -0.0353 -0.5841 -1.4496
  151MOL   H15224452   6.279   5.151   3.735 -2.0483 -1.7012  2.2209
  151MOL   H15324453   6.279   5.291   3.820  0.0134  2.7534 -1.8028
  151MOL   C15424454   6.205   5.249   3.491 -1.0340 -0.0017  0.5596
  151MOL   C15524455   6.280   5.258   3.362  0.9612 -0.3627 -0.4237
  151MOL   N15624456   6.214   5.165   3.269 -0.2168 -0.2914 -0.5733
  151MOL   H15724457   6.209   5.142   3.511 -0.9881  0.0315  0.7275
  151MOL   H15824458   6.097   5.261   3.481 -1.5290 -3.7416  0.6769
  151MOL   H15924459   6.380   5.215   3.368  0.6689 -0.9666  0.1692
  151MOL   H16024460   6.251   5.075   3.294  3.1344  1.6643  2.1437
  151MOL   H16124461   6.259   5.171   3.179 -0.1097  1.0005 -0.4449
  151MOL   H16224462   6.280   5.361   3.327 -2.1334  0.1402  0.8761
  152MOL     C124463   4.111   1.507   4.174 -0.1083  0.0505 -0.1511
  152MOL     C224464   4.182   1.592   4.286  0.0798 -0.6771  0.4699
  152MOL     N324465   4.308   1.638   4.231  0.7152 -0.3288  0.0784
  152MOL     H424466   4.005   1.528   4.177 -0.4149 -1.0290 -2.1813
  152MOL     H524467   4.137   1.402   4.182  0.2710  0.2338  1.1467
  152MOL     H624468   4.192   1.546   4.384  0.9734 -1.1387  0.1655
  152MOL     H724469   4.350   1.553   4.197  0.8031  0.5571 -2.0377
  152MOL     H824470   4.283   1.682   4.144 -2.7497  0.4933  1.4173
  152MOL     H924471   4.142   1.532   4.072  0.3083  0.1467 -0.0037
  152MOL    C1024472   4.102   1.721   4.308  0.0387  0.3693  0.5324
  152MOL    C1124473   4.011   1.695   4.429 -0.3351  0.1877  0.3355
  152MOL    N1224474   3.949   1.823   4.466  0.6413  0.0708 -0.0136
  152MOL    H1324475   4.172   1.800   4.336  0.6587  0.0972 -0.2089
  152MOL    H1424476   4.048   1.750   4.218 -1.7663  0.2091  1.5583
  152MOL    H1524477   4.072   1.662   4.513 -2.3151  0.6284  1.9949
  152MOL    H1624478   3.882   1.838   4.392 -0.3362 -0.8876  0.6624
  152MOL    H1724479   4.026   1.888   4.460  1.6319 -1.1025 -0.4863
  152MOL    C1824480   3.895   1.589   4.404  0.2150 -0.6993 -0.0240
  152MOL    C1924481   3.787   1.565   4.514 -0.4124 -0.4704  1.2753
  152MOL    N2024482   3.689   1.483   4.462 -0.1866  0.2610 -0.0926
  152MOL    H2124483   3.845   1.622   4.313 -1.9932  1.3582  1.8620
  152MOL    H2224484   3.937   1.491   4.379  0.4785 -0.0301 -2.3223
  152MOL    H2324485   3.731   1.654   4.539 -0.6032 -0.2976  0.2463
  152MOL    H2424486   3.676   1.524   4.371 -1.6611 -1.6221 -0.7598
  152MOL    H2524487   3.605   1.494   4.516  0.5168  0.2855  1.0065
  152MOL    C2624488   3.851   1.495   4.643 -0.6495 -0.3677 -0.2930
  152MOL    C2724489   3.751   1.480   4.764  0.3029 -0.4179  0.4617
  152MOL    N2824490   3.800   1.362   4.843  0.1344  0.1703  0.4022
  152MOL    H2924491   3.869   1.392   4.611  2.0388  0.2859 -1.0603
  152MOL    H3024492   3.946   1.540   4.674 -1.6880  1.8067 -0.2227
  152MOL    H3124493   3.648   1.456   4.738  0.0512  2.4602 -1.4376
  152MOL    H3224494   3.885   1.388   4.892  0.2338 -1.2978  1.0236
  152MOL    H3324495   3.807   1.285   4.778 -1.3371  1.9753 -1.9777
  152MOL    C3424496   3.750   1.604   4.860  0.4708  0.3042 -0.1232
  152MOL    C3524497   3.700   1.751   4.820  0.3203  0.0042  0.0122
  152MOL    N3624498   3.554   1.750   4.803 -0.7920  0.5918  0.3414
  152MOL    H3724499   3.695   1.570   4.948  1.1129  0.6371  0.4114
  152MOL    H3824500   3.849   1.611   4.906  0.4465 -0.3297  0.0358
  152MOL    H3924501   3.744   1.791   4.728  1.9042 -0.8607  0.3931
  152MOL    H4024502   3.533   1.704   4.715  1.0463 -2.2759  1.3388
  152MOL    H4124503   3.500   1.696   4.868 -1.0429 -1.1267 -1.2287
  152MOL    C4224504   3.742   1.841   4.942 -0.3270  0.2089  0.2513
  152MOL    C4324505   3.729   1.990   4.921  0.3018  0.2580 -0.2551
  152MOL    N4424506   3.742   2.058   5.042 -0.2816 -0.3655  0.0449
  152MOL    H4524507   3.682   1.809   5.028 -2.7082 -0.1919 -1.5163
  152MOL    H4624508   3.844   1.817   4.972 -0.2391  2.0203  1.4337
  152MOL    H4724509   3.634   2.025   4.879  1.0609  1.4372 -1.0173
  152MOL    H4824510   3.836   2.057   5.077 -0.0383  1.9746 -0.5069
  152MOL    H4924511   3.733   2.152   5.009  1.0508  0.4534  1.9348
  152MOL    C5024512   3.847   2.026   4.829 -0.6498  0.2530  0.6286
  152MOL    C5124513   3.836   2.160   4.749  0.0154 -0.1973 -0.1579
  152MOL    N5224514   3.967   2.207   4.718 -0.2512  0.2165 -0.0774
  152MOL    H5324515   3.942   2.026   4.883 -0.8681 -0.8993  1.0134
  152MOL    H5424516   3.859   1.948   4.754 -0.6553  0.5085  0.3594
  152MOL    H5524517   3.784   2.232   4.812 -1.7647 -0.8349 -0.8750
  152MOL    H5624518   3.973   2.292   4.664  0.1674 -0.2694 -0.8021
  152MOL    H5724519   4.035   2.209   4.792  1.9904 -1.8014 -1.9834
  152MOL    C5824520   3.759   2.149   4.619  0.2120  0.2389 -0.7876
  152MOL    C5924521   3.615   2.088   4.625 -0.4542 -0.3671 -0.2974
  152MOL    N6024522   3.528   2.180   4.691  0.4576 -0.3007 -0.0453
  152MOL    H6124523   3.767   2.245   4.568  0.4619 -1.2511 -3.6244
  152MOL    H6224524   3.812   2.081   4.552 -1.8850  0.3582 -2.6169
  152MOL    H6324525   3.609   1.990   4.674  0.0469 -0.8262 -1.1246
  152MOL    H6424526   3.442   2.129   4.707 -0.3986  1.5716  1.4587
  152MOL    H6524527   3.569   2.185   4.783 -0.7214 -1.1581  0.5366
  152MOL    C6624528   3.562   2.073   4.487 -0.4476  0.1627  0.4047
  152MOL    C6724529   3.593   1.934   4.419 -0.2094  0.4327 -0.6051
  152MOL    N6824530   3.504   1.830   4.459  1.0119  0.3525  0.0379
  152MOL    H6924531   3.453   2.078   4.482 -0.3871 -0.0902 -2.5730
  152MOL    H7024532   3.602   2.155   4.425  0.1240 -0.5942 -0.2398
  152MOL    H7124533   3.693   1.904   4.450  0.4367  0.8232 -2.2181
  152MOL    H7224534   3.412   1.852   4.424  1.7058  0.1383 -1.9761
  152MOL    H7324535   3.501   1.814   4.559 -0.2224  0.1474 -0.0262
  152MOL    C7424536   3.607   1.939   4.267 -0.5539  0.1886 -0.1831
  152MOL    C7524537   3.725   2.024   4.214  0.4391  0.5010  0.0251
  152MOL    N7624538   3.835   1.930   4.207  0.6795  0.0096 -0.3865
  152MOL    H7724539   3.624   1.840   4.225 -0.8857  1.0310 -2.4220
  152MOL    H7824540   3.510   1.974   4.230 -1.3819 -3.4945 -1.7329
  152MOL    H7924541   3.758   2.098   4.286 -1.7042 -0.0179  1.6064
  152MOL    H8024542   3.926   1.975   4.200  0.6273  0.2378  0.4507
  152MOL    H8124543   3.812   1.871   4.128  1.6190  1.5608 -1.8491
  152MOL    C8224544   3.707   2.093   4.076 -0.1579  0.2398 -0.5667
  152MOL    C8324545   3.678   2.249   4.095  0.4123  0.1511  0.0613
  152MOL    N8424546   3.699   2.310   3.970  0.0522  0.3367  0.1181
  152MOL    H8524547   3.789   2.077   4.005 -1.1968  0.4487 -1.8284
  152MOL    H8624548   3.629   2.043   4.019  0.3585 -0.2292 -0.8751
  152MOL    H8724549   3.753   2.290   4.162  0.6978  1.3440 -0.9655
  152MOL    H8824550   3.660   2.262   3.890 -0.6086 -1.2506  1.3564
  152MOL    H8924551   3.797   2.302   3.945  0.3236 -1.1830  1.5445
  152MOL    C9024552   3.535   2.294   4.136 -0.4072 -0.2053  0.1379
  152MOL    C9124553   3.527   2.433   4.191  0.0832  0.1886  0.4271
  152MOL    N9224554   3.524   2.533   4.079  0.0826 -0.2193  0.3620
  152MOL    H9324555   3.454   2.276   4.066 -1.5507  0.8063  1.1838
  152MOL    H9424556   3.504   2.232   4.220 -0.1617  0.0921  0.4484
  152MOL    H9524557   3.614   2.456   4.252 -1.7535  0.5194  3.0365
  152MOL    H9624558   3.600   2.597   4.093 -0.4846  0.1308  1.9135
  152MOL    H9724559   3.549   2.485   3.994  0.8867  1.4010 -0.3239
  152MOL    C9824560   3.399   2.459   4.276 -0.3525 -0.5905 -0.0145
  152MOL    C9924561   3.394   2.380   4.415  0.0482  1.2350 -0.1717
  152MOL   N10024562   3.517   2.406   4.492  0.0335  0.7090 -0.0693
  152MOL   H10124563   3.387   2.564   4.304  0.8082 -0.7388  1.0975
  152MOL   H10224564   3.310   2.441   4.215 -1.5505  3.4443  0.3803
  152MOL   H10324565   3.399   2.274   4.390  0.0739  1.2435 -0.2020
  152MOL   H10424566   3.526   2.496   4.536 -0.0008  0.4602  0.4634
  152MOL   H10524567   3.511   2.339   4.568 -2.3526  0.1247 -0.7183
  152MOL   C10624568   3.282   2.415   4.514  0.1014 -0.1724 -0.4931
  152MOL   C10724569   3.147   2.347   4.473  0.4551 -0.4280  0.2252
  152MOL   N10824570   3.163   2.207   4.486  0.1265  0.4018 -0.0730
  152MOL   H10924571   3.296   2.365   4.610  1.1843 -0.9762 -1.0742
  152MOL   H11024572   3.265   2.523   4.520 -1.5628 -0.5715  3.6019
  152MOL   H11124573   3.130   2.367   4.367 -0.9366  0.3323  0.5706
  152MOL   H11224574   3.198   2.184   4.578 -0.8392  0.5655  0.3366
  152MOL   H11324575   3.243   2.163   4.442  1.7539  1.2877  1.9066
  152MOL   C11424576   3.020   2.401   4.565 -0.0987  0.2980  0.0326
  152MOL   C11524577   2.994   2.557   4.557  0.4966 -0.3565 -0.8007
  152MOL   N11624578   2.947   2.590   4.427  0.5889  0.2848 -0.0551
  152MOL   H11724579   2.929   2.347   4.537  0.2085 -0.0179 -0.3884
  152MOL   H11824580   3.041   2.375   4.668 -0.8876 -0.5185 -0.0011
  152MOL   H11924581   3.086   2.614   4.566 -0.1307  0.5249  0.1055
  152MOL   H12024582   2.930   2.690   4.421 -0.4758  0.1092 -0.1267
  152MOL   H12124583   3.020   2.560   4.365  0.5458 -1.2857  0.6537
  152MOL   C12224584   2.912   2.618   4.679 -0.1591  0.1874  0.3332
  152MOL   C12324585   2.764   2.559   4.695 -1.4143  0.5326  0.2045
  152MOL   N12424586   2.715   2.606   4.824 -0.2867  0.2913 -0.2272
  152MOL   H12524587   2.964   2.593   4.772 -1.3578 -0.4556  0.8461
  152MOL   H12624588   2.913   2.727   4.667  0.0763  0.2364  0.7989
  152MOL   H12724589   2.768   2.450   4.696 -2.6623  0.4751  1.6676
  152MOL   H12824590   2.729   2.531   4.891 -0.7848  1.0206  0.6938
  152MOL   H12924591   2.616   2.622   4.829 -0.6876 -1.9913 -0.2250
  152MOL   C13024592   2.670   2.601   4.581  0.0990  0.1813 -0.1335
  152MOL   C13124593   2.541   2.515   4.570  0.3324  0.2473  0.4198
  152MOL   N13224594   2.462   2.575   4.464  0.2442 -0.4253  0.6952
  152MOL   H13324595   2.647   2.707   4.584  0.7673  0.3086  1.1358
  152MOL   H13424596   2.718   2.596   4.483  0.0854  2.5216 -0.2900
  152MOL   H13524597   2.477   2.517   4.658  1.5907  1.3012  1.3242
  152MOL   H13624598   2.498   2.572   4.369  0.7566  0.2419  0.8665
  152MOL   H13724599   2.381   2.516   4.451 -0.5735  0.1062  3.2409
  152MOL   C13824600   2.556   2.369   4.528 -0.4243 -0.3106 -0.0832
  152MOL   C13924601   2.462   2.276   4.592 -0.1220 -0.1972  0.0140
  152MOL   N14024602   2.325   2.316   4.559  0.5459  0.4131 -0.3577
  152MOL   H14124603   2.571   2.338   4.424 -2.8126 -0.6445 -0.3482
  152MOL   H14224604   2.654   2.339   4.567 -1.0187 -0.3239  1.4018
  152MOL   H14324605   2.469   2.289   4.700  0.2352 -2.2976  0.2563
  152MOL   H14424606   2.312   2.405   4.605  0.5181  0.1782  0.0917
  152MOL   H14524607   2.272   2.249   4.613  0.2377  1.2208  0.3487
  152MOL   C14624608   2.486   2.129   4.553 -0.0757 -0.4543  0.2263
  152MOL   C14724609   2.583   2.058   4.648 -0.9160  0.2225  0.1238
  152MOL   N14824610   2.516   1.947   4.718  0.5307 -0.2009  0.2491
  152MOL   H14924611   2.392   2.078   4.575  0.4924 -1.3002  0.7335
  152MOL   H15024612   2.509   2.113   4.447  1.0387 -0.3562  0.4469
  152MOL   H15124613   2.615   2.129   4.724 -1.6047 -0.5058  1.1048
  152MOL   H15224614   2.438   1.984   4.770  2.1760  1.4804  1.6187
  152MOL   H15324615   2.476   1.882   4.652  1.1135 -2.3568  1.9531
  152MOL   C15424616   2.700   1.993   4.567 -0.3481 -0.0706 -0.2718
  152MOL   C15524617   2.806   2.091   4.516  0.2665  0.1732  0.4391
  152MOL   N15624618   2.934   2.040   4.478  0.4186 -0.5011  0.0749
  152MOL   H15724619   2.741   1.916   4.632 -0.7160  0.7610  0.9786
  152MOL   H15824620   2.657   1.947   4.478  1.3138 -0.6874 -0.7543
  152MOL   H15924621   2.841   2.147   4.602  1.6085 -2.9900  2.0397
  152MOL   H16024622   2.989   2.124   4.464  0.1679 -0.3460  0.0089
  152MOL   H16124623   2.967   1.993   4.561  2.8991  1.3036  0.1826
  152MOL   H16224624   2.767   2.164   4.444  0.3039 -0.6563 -0.4371
  153MOL     C124625   5.466   0.143   1.379 -0.1242 -0.3056  0.0646
  153MOL     C224626   5.478   7.271   1.342  0.2679 -0.1916 -1.0829
  153MOL     N324627   5.428   7.263   1.204 -0.1596  0.1764  0.0810
  153MOL     H424628   5.462   0.159   1.486 -0.4230 -0.8513  0.1350
  153MOL     H524629   5.377   0.187   1.333  1.9261  0.5475 -3.2755
  153MOL     H624630   5.410   7.224   1.413  0.8119  4.0064  2.3589
  153MOL     H724631   5.446   7.171   1.168  0.6583 -0.0679  1.1184
  153MOL     H824632   5.328   0.004   1.201  0.0572  1.5854  0.2096
  153MOL     H924633   5.556   0.189   1.338 -0.6863  0.4565 -0.3170
  153MOL    C1024634   5.619   7.212   1.366  0.1697  0.4483  0.2588
  153MOL    C1124635   5.680   7.234   1.509  0.1468 -0.3444  0.9662
  153MOL    N1224636   5.613   7.137   1.597  0.2022 -0.5202 -0.2641
  153MOL    H1324637   5.613   7.105   1.348  2.3884 -0.3366  3.7504
  153MOL    H1424638   5.692   7.250   1.294  0.3540  2.1793  1.3112
  153MOL    H1524639   5.658   0.058   1.545  3.0394  1.0226 -0.8509
  153MOL    H1624640   5.665   7.139   1.684  0.2762  1.2619 -0.3411
  153MOL    H1724641   5.532   7.185   1.634 -1.1493 -1.9257 -1.3260
  153MOL    C1824642   5.836   7.222   1.517 -0.0980  0.1376  0.5707
  153MOL    C1924643   5.911   0.065   1.454  1.0169 -0.3483 -0.3173
  153MOL    N2024644   5.896   0.176   1.549  0.4407 -0.0943  0.7424
  153MOL    H2124645   5.862   7.204   1.622 -0.5240  1.9628  0.9941
  153MOL    H2224646   5.864   7.129   1.468  0.8963  1.9631 -2.4072
  153MOL    H2324647   5.861   0.099   1.363  0.3705  0.5794  0.3776
  153MOL    H2424648   5.800   0.206   1.558  0.5548  0.9910 -1.4377
  153MOL    H2524649   5.915   0.137   1.640 -3.6936 -2.5128  0.6639
  153MOL    C2624650   6.059   0.033   1.418 -0.4884 -0.4908 -0.0260
  153MOL    C2724651   6.079   7.230   1.282 -0.2519  0.3935 -0.4560
  153MOL    N2824652   6.031   0.029   1.172 -0.0201  0.0670 -0.5187
  153MOL    H2924653   6.111   0.128   1.407 -1.0726 -0.1083  0.4647
  153MOL    H3024654   6.102   7.248   1.498 -2.4836 -1.3938  0.4130
  153MOL    H3124655   6.030   7.133   1.290  0.1288  0.2476  0.2396
  153MOL    H3224656   5.931   0.028   1.186 -0.2163  1.6844 -1.6751
  153MOL    H3324657   6.047   7.243   1.094 -1.0989 -2.0784  0.8937
  153MOL    C3424658   6.223   7.191   1.242 -0.0063 -0.3504  0.1276
  153MOL    C3524659   6.278   7.087   1.340 -0.1279  0.6501  0.3330
  153MOL    N3624660   6.222   6.956   1.308  0.0555 -0.4062 -0.1142
  153MOL    H3724661   6.210   7.166   1.137  0.5710  0.7959 -0.2274
  153MOL    H3824662   6.287   0.004   1.237  1.3278 -1.0929  2.8520
  153MOL    H3924663   6.250   7.111   1.442  0.9816 -1.3164  1.1303
  153MOL    H4024664   6.122   6.941   1.307  0.2238 -1.5683 -0.6876
  153MOL    H4124665   6.249   6.922   1.216 -3.7771 -3.3071 -0.2989
  153MOL    C4224666   6.439   7.078   1.351  0.3960  0.2196  0.4163
  153MOL    C4324667   6.489   7.096   1.494  0.2163 -0.0683 -0.0148
  153MOL    N4424668   6.601   7.013   1.516  0.3856 -0.3174 -0.7076
  153MOL    H4524669   6.481   6.993   1.298 -0.8217 -0.3379  0.3375
  153MOL    H4624670   6.477   7.167   1.301 -3.9115  1.4288 -0.9280
  153MOL    H4724671   6.418   7.056   1.567  1.6857  1.1230  2.1228
  153MOL    H4824672   6.673   7.026   1.447  2.2291 -1.5976  0.9084
  153MOL    H4924673   6.634   7.048   1.606 -0.1142 -1.4708 -0.0664
  153MOL    C5024674   6.533   7.239   1.528  0.1694  0.5825  0.2424
  153MOL    C5124675   6.410   0.059   1.521 -0.0101 -0.5968  0.6938
  153MOL    N5224676   6.319   0.040   1.634  0.4704  0.3054  0.1871
  153MOL    H5324677   6.601   7.252   1.613  0.1263  0.9172  0.2239
  153MOL    H5424678   6.598   7.263   1.443 -1.2952  1.5277 -0.6166
  153MOL    H5524679   6.345   0.042   1.436 -1.0843  1.7834  0.9917
  153MOL    H5624680   6.223   0.072   1.630  0.7604  1.0520 -4.8962
  153MOL    H5724681   6.359   0.048   1.726 -0.1678  0.4314  0.4530
  153MOL    C5824682   6.448   0.210   1.513 -0.3550  0.0152  0.6235
  153MOL    C5924683   6.406   0.268   1.375  0.0485  0.3044  0.2247
  153MOL    N6024684   6.427   0.409   1.382 -0.5464 -0.5865  0.0022
  153MOL    H6124685   6.391   0.259   1.592 -0.1455  0.5980  0.4224
  153MOL    H6224686   6.554   0.228   1.534 -0.3368 -0.7604  1.2054
  153MOL    H6324687   6.298   0.254   1.364  0.0922 -0.5251  0.8274
  153MOL    H6424688   6.386   0.449   1.465  1.4474  0.3746  0.5610
  153MOL    H6524689   6.366   0.445   1.310  0.2845  0.0104 -0.4079
  153MOL    C6624690   6.486   0.196   1.264 -0.9737  0.1477  0.3435
  153MOL    C6724691   6.424   0.213   1.120  0.1042  0.2687 -0.1391
  153MOL    N6824692   6.475   0.339   1.076  1.2751 -0.2532  0.1597
  153MOL    H6924693   6.585   0.242   1.270 -1.0798  0.6215 -1.4995
  153MOL    H7024694   6.529   0.096   1.272  1.9019  1.4364  1.8227
  153MOL    H7124695   6.316   0.220   1.135 -0.1576  0.9087 -2.2225
  153MOL    H7224696   6.575   0.332   1.067  1.0321 -1.6853 -1.8284
  153MOL    H7324697   6.483   0.397   1.158  0.5081  1.0268 -0.6388
  153MOL    C7424698   6.465   0.095   1.029 -0.0922  0.1762  0.3789
  153MOL    C7524699   6.379   0.080   0.901 -0.0836  0.0022  1.0798
  153MOL    N7624700   6.394   0.195   0.819 -0.6204 -0.1323  0.4950
  153MOL    H7724701   6.568   0.103   0.995  0.3442 -0.0700  1.6090
  153MOL    H7824702   6.452   0.011   1.098 -1.8345  0.0974 -0.0073
  153MOL    H7924703   6.276   0.078   0.937 -1.3403 -1.6682 -2.4442
  153MOL    H8024704   6.299   0.219   0.794 -0.1090  0.8878 -0.5081
  153MOL    H8124705   6.409   0.271   0.883 -1.9464  1.0393 -0.5497
  153MOL    C8224706   6.421   7.231   0.807 -0.9422 -0.1742  0.0623
  153MOL    C8324707   6.400   7.092   0.866  0.3644  0.1033  0.0665
  153MOL    N8424708   6.383   7.002   0.758 -0.3454  0.6037 -0.2846
  153MOL    H8524709   6.372   7.241   0.710  0.4235 -0.2096 -0.6526
  153MOL    H8624710   6.526   7.253   0.785 -0.9130 -0.4613 -0.0914
  153MOL    H8724711   6.300   7.082   0.907  0.7846  3.6070  2.1425
  153MOL    H8824712   6.350   6.911   0.788  0.8596  0.2179 -0.1182
  153MOL    H8924713   6.313   7.038   0.695  0.4492 -0.8883 -2.0587
  153MOL    C9024714   6.509   7.041   0.962  0.2028 -0.0930 -0.4329
  153MOL    C9124715   6.545   6.888   0.971 -0.4267 -0.6101  0.7741
  153MOL    N9224716   6.660   6.875   1.061  1.1760 -0.2774 -1.3696
  153MOL    H9324717   6.597   7.094   0.928  0.9378 -2.2006 -1.9467
  153MOL    H9424718   6.487   7.079   1.062 -0.9527 -0.8066 -0.3999
  153MOL    H9524719   6.576   6.849   0.874 -3.0518  0.6753 -0.6177
  153MOL    H9624720   6.723   6.798   1.046 -1.3408 -2.3991 -1.3092
  153MOL    H9724721   6.613   6.874   1.150 -0.6638  1.8650 -2.2603
  153MOL    C9824722   6.417   6.818   1.025  0.6673 -0.7509  0.8314
  153MOL    C9924723   6.410   6.664   1.016 -0.2260  0.0190 -0.1005
  153MOL   N10024724   6.285   6.617   1.084  0.6075 -0.3758 -0.8503
  153MOL   H10124725   6.402   6.844   1.130  0.6898  0.6657  0.4913
  153MOL   H10224726   6.332   6.850   0.965  0.8734 -2.0107 -0.1553
  153MOL   H10324727   6.498   6.626   1.068  0.2341  0.4287 -0.5767
  153MOL   H10424728   6.265   6.527   1.043 -0.9735  0.5987 -2.2846
  153MOL   H10524729   6.212   6.683   1.062  0.5472 -0.0456  0.2705
  153MOL   C10624730   6.405   6.617   0.871 -0.8264 -0.2987  0.1361
  153MOL   C10724731   6.515   6.506   0.845  0.6228  0.0905  0.0642
  153MOL   N10824732   6.462   6.439   0.727 -0.3252  0.1544 -0.1756
  153MOL   H10924733   6.311   6.570   0.842  0.0557 -1.3251 -1.1218
  153MOL   H11024734   6.420   6.705   0.809  1.9491  0.6999  2.1241
  153MOL   H11124735   6.498   6.430   0.922 -3.3687  1.6244  0.8167
  153MOL   H11224736   6.522   6.365   0.693  0.0855  0.1779  0.4929
  153MOL   H11324737   6.384   6.379   0.751 -0.8613  1.3730  1.1341
  153MOL   C11424738   6.658   6.566   0.812  0.0459 -0.5341  0.1548
  153MOL   C11524739   6.769   6.473   0.758 -0.4504  0.0239 -0.5751
  153MOL   N11624740   6.858   6.561   0.686 -0.3264  0.7529 -0.1417
  153MOL   H11724741   6.653   6.650   0.743 -0.4616 -0.0651  0.7535
  153MOL   H11824742   6.685   6.619   0.904 -0.7855  1.5217 -0.7641
  153MOL   H11924743   6.722   6.406   0.686 -0.0052 -0.2508 -0.6091
  153MOL   H12024744   6.862   6.645   0.741  1.5518  1.9175 -2.0055
  153MOL   H12124745   6.842   6.591   0.591  0.3813  2.0092  0.1231
  153MOL   C12224746   6.836   6.377   0.865  0.3975  0.4585 -0.4720
  153MOL   C12324747   6.887   6.248   0.806 -0.0908 -0.0189 -0.1361
  153MOL   N12424748   7.008   6.273   0.733  0.6717  0.6473 -0.3207
  153MOL   H12524749   6.914   6.428   0.921  0.2559  0.0300  0.1104
  153MOL   H12624750   6.753   6.342   0.926  1.5138  1.3233  1.5737
  153MOL   H12724751   6.818   6.207   0.732  1.1614 -0.2916 -1.1719
  153MOL   H12824752   6.991   6.365   0.694 -1.1118 -0.4447 -2.1825
  153MOL   H12924753   7.002   6.214   0.651 -0.0685 -0.5445  0.5814
  153MOL   C13024754   6.929   6.130   0.907 -0.2072  0.3076  1.2214
  153MOL   C13124755   6.836   6.005   0.900 -0.3790 -0.3574  0.7143
  153MOL   N13224756   6.896   5.898   0.976 -0.6130  0.1004  0.1454
  153MOL   H13324757   7.031   6.095   0.892 -0.3801  0.3699 -0.1560
  153MOL   H13424758   6.942   6.171   1.007 -1.8715  2.7233  0.4725
  153MOL   H13524759   6.840   5.977   0.795  0.6876  1.5386  0.2305
  153MOL   H13624760   6.839   5.815   0.971 -0.3625 -0.1347  1.1314
  153MOL   H13724761   6.986   5.868   0.942 -0.6554  0.9769 -0.7507
  153MOL   C13824762   6.691   6.041   0.953  0.1114 -0.4864 -0.2943
  153MOL   C13924763   6.572   5.976   0.877 -0.1705  0.8789  0.4160
  153MOL   N14024764   6.464   5.965   0.968  0.3956 -0.0342 -0.0489
  153MOL   H14124765   6.682   6.035   1.061 -1.9647 -0.9589 -0.4693
  153MOL   H14224766   6.682   6.147   0.927 -1.0268 -0.5307 -0.1043
  153MOL   H14324767   6.606   5.875   0.857  0.4114  0.9082  1.2303
  153MOL   H14424768   6.472   5.879   1.021 -0.9436 -0.7090 -0.9176
  153MOL   H14524769   6.487   6.035   1.038 -1.0836 -1.4875  1.9702
  153MOL   C14624770   6.538   6.045   0.746  0.2538 -0.0437  0.1550
  153MOL   C14724771   6.456   5.957   0.646 -0.4515 -0.0304  0.3005
  153MOL   N14824772   6.389   6.033   0.542  0.2332  0.3280 -0.4648
  153MOL   H14924773   6.492   6.138   0.779  2.7779  0.3028  2.9264
  153MOL   H15024774   6.634   6.072   0.702  0.5161  0.8672  1.2623
  153MOL   H15124775   6.383   5.904   0.708 -1.0579  1.3118  0.7565
  153MOL   H15224776   6.350   5.970   0.474  0.0499 -0.1903  0.1258
  153MOL   H15324777   6.304   6.061   0.588 -0.1377 -0.0437 -0.9246
  153MOL   C15424778   6.547   5.860   0.568  0.1696  0.5935  0.1335
  153MOL   C15524779   6.483   5.771   0.452  0.3699 -0.6248 -0.8629
  153MOL   N15624780   6.589   5.703   0.381  0.5053  0.1470 -0.1599
  153MOL   H15724781   6.638   5.906   0.530  1.7670 -2.3620  0.2507
  153MOL   H15824782   6.583   5.787   0.639 -1.9593 -1.4496 -0.8284
  153MOL   H15924783   6.423   5.826   0.378  2.7338 -0.1629 -2.4962
  153MOL   H16024784   6.642   5.638   0.436  0.7616  0.7981  0.3726
  153MOL   H16124785   6.653   5.772   0.343  0.2645  1.6312  2.0002
  153MOL   H16224786   6.422   5.687   0.485  0.9536 -0.2038  1.3491
  154MOL     C124787   4.532   5.054   0.624 -0.4967 -0.2142  0.8127
  154MOL     C224788   4.550   5.072   0.780  0.6190  0.2578  0.1400
  154MOL     N324789   4.604   5.207   0.812 -0.6872  0.3766  0.1461
  154MOL     H424790   4.445   5.112   0.594  0.4419 -0.7091 -3.0990
  154MOL     H524791   4.515   4.951   0.593  1.3555  0.5054 -2.8261
  154MOL     H624792   4.623   4.995   0.806  0.6190  0.0360 -0.4917
  154MOL     H724793   4.695   5.224   0.772 -0.0856 -1.3658  0.7580
  154MOL     H824794   4.621   5.219   0.910  1.7053 -1.1370 -0.0524
  154MOL     H924795   4.619   5.086   0.567 -0.3691 -0.6656  0.7487
  154MOL    C1024796   4.416   5.052   0.858 -0.3052  0.2397  0.2461
  154MOL    C1124797   4.381   4.911   0.919 -0.2852  0.6239  0.2168
  154MOL    N1224798   4.253   4.923   0.982 -0.2273  0.5561  0.2305
  154MOL    H1324799   4.415   5.127   0.937 -0.1308 -1.2210  1.6634
  154MOL    H1424800   4.329   5.098   0.811 -0.9734  2.1514  3.2236
  154MOL    H1524801   4.460   4.900   0.993  1.2892  1.0563 -1.3475
  154MOL    H1624802   4.253   4.992   1.056 -1.1155  0.8571 -0.0404
  154MOL    H1724803   4.227   4.835   1.025  0.9697  0.2809  0.3968
  154MOL    C1824804   4.383   4.796   0.820  0.1561  0.3341 -0.2903
  154MOL    C1924805   4.442   4.660   0.872  0.0496 -0.0955  0.0900
  154MOL    N2024806   4.434   4.553   0.773  0.4089  0.1898  0.6581
  154MOL    H2124807   4.285   4.772   0.778  0.4977  0.5629 -1.2455
  154MOL    H2224808   4.442   4.809   0.729  0.5772 -0.1316 -0.0829
  154MOL    H2324809   4.382   4.629   0.957  1.3236  0.9471  1.3864
  154MOL    H2424810   4.341   4.544   0.737  0.6393  1.5074 -0.3308
  154MOL    H2524811   4.447   4.466   0.821  1.5311 -0.3247 -0.5384
  154MOL    C2624812   4.588   4.676   0.920  0.3851  0.9864 -0.3541
  154MOL    C2724813   4.634   4.589   1.040 -0.1093 -0.0585  0.0052
  154MOL    N2824814   4.781   4.576   1.045  0.4795  0.0972  0.1879
  154MOL    H2924815   4.647   4.646   0.833  0.7688 -0.0720  0.2593
  154MOL    H3024816   4.615   4.780   0.939  0.1265  1.2174 -1.2366
  154MOL    H3124817   4.609   4.486   1.016 -0.6003  0.2968 -1.0329
  154MOL    H3224818   4.819   4.664   1.076  0.5226 -0.2772  1.2283
  154MOL    H3324819   4.805   4.577   0.947  0.8837 -0.6108  0.2777
  154MOL    C3424820   4.568   4.629   1.175 -0.4779 -0.1059 -0.1914
  154MOL    C3524821   4.578   4.517   1.285  0.2560 -0.6607 -0.0288
  154MOL    N3624822   4.710   4.527   1.345  0.3105 -0.3303 -0.2098
  154MOL    H3724823   4.614   4.714   1.225 -1.6756  0.0266  0.6827
  154MOL    H3824824   4.461   4.634   1.158 -0.5195  0.5008  0.2456
  154MOL    H3924825   4.577   4.414   1.251 -0.8385 -0.8339  0.4800
  154MOL    H4024826   4.735   4.439   1.387  1.6522 -0.4293 -1.1734
  154MOL    H4124827   4.772   4.537   1.266  1.1179 -1.9367  0.2015
  154MOL    C4224828   4.484   4.551   1.406  0.3596  0.4872  0.4760
  154MOL    C4324829   4.340   4.506   1.375 -0.2789 -0.4785  0.9843
  154MOL    N4424830   4.319   4.375   1.440 -0.6356 -0.9999  0.0074
  154MOL    H4524831   4.512   4.520   1.506  1.4430 -0.6632 -0.1633
  154MOL    H4624832   4.484   4.658   1.428 -2.0092  0.3640  1.1043
  154MOL    H4724833   4.309   4.512   1.271 -1.2129  0.1235  1.2938
  154MOL    H4824834   4.240   4.338   1.388 -0.2926  1.2363 -2.1802
  154MOL    H4924835   4.281   4.388   1.533  0.0814  3.0181 -0.1933
  154MOL    C5024836   4.237   4.606   1.444  0.1952 -0.5698  0.2498
  154MOL    C5124837   4.215   4.744   1.388 -1.1481  0.2194  0.2234
  154MOL    N5224838   4.159   4.730   1.252  0.0574  0.7164  0.4656
  154MOL    H5324839   4.139   4.559   1.453 -0.3263  0.8627  2.3373
  154MOL    H5424840   4.286   4.610   1.542  1.5404 -0.7461 -0.3956
  154MOL    H5524841   4.310   4.796   1.376 -0.1653 -1.6078 -0.0036
  154MOL    H5624842   4.069   4.683   1.250 -1.0241  2.7294  0.0623
  154MOL    H5724843   4.142   4.821   1.210  0.2206  1.2456  1.5290
  154MOL    C5824844   4.127   4.835   1.470  0.4226 -0.4520  0.1286
  154MOL    C5924845   4.174   4.913   1.591 -0.5073  0.3534  0.9847
  154MOL    N6024846   4.231   5.035   1.536 -0.0498  0.7831 -0.2171
  154MOL    H6124847   4.063   4.897   1.407  1.2555 -0.7333 -1.0206
  154MOL    H6224848   4.057   4.758   1.503  1.2613 -1.4491 -0.4072
  154MOL    H6324849   4.248   4.864   1.653 -1.0542 -0.1816  1.2191
  154MOL    H6424850   4.327   5.021   1.508 -0.0416  0.9469 -0.2655
  154MOL    H6524851   4.246   5.091   1.618  1.3975  0.2565 -0.1041
  154MOL    C6624852   4.055   4.969   1.680 -0.1417  0.0292  0.5680
  154MOL    C6724853   4.095   4.998   1.822  0.0212  0.2709  0.2619
  154MOL    N6824854   4.068   5.139   1.865 -0.3987  0.1031 -0.0183
  154MOL    H6924855   4.002   5.050   1.630 -1.0577  0.1535  1.7200
  154MOL    H7024856   3.973   4.898   1.678  0.7468 -1.0399  1.4941
  154MOL    H7124857   4.203   4.993   1.812 -0.0906 -2.0992 -0.0437
  154MOL    H7224858   4.079   5.148   1.965  0.5545  1.5132 -0.2365
  154MOL    H7324859   3.971   5.159   1.850 -0.2694  0.9729  0.2799
  154MOL    C7424860   4.054   4.898   1.935  0.1599  0.0036  0.0880
  154MOL    C7524861   4.128   4.756   1.941 -0.3048  0.2695 -0.5344
  154MOL    N7624862   4.079   4.696   2.067 -0.5321  0.2121  0.7642
  154MOL    H7724863   4.068   4.957   2.026  1.2750  0.0367 -0.0956
  154MOL    H7824864   3.948   4.875   1.936 -0.4029  2.4473  0.9583
  154MOL    H7924865   4.237   4.768   1.941 -0.1298 -1.1507 -1.4504
  154MOL    H8024866   4.136   4.736   2.140  0.4572  1.3138 -0.5814
  154MOL    H8124867   4.089   4.596   2.058  0.0809  0.3252  0.1369
  154MOL    C8224868   4.106   4.663   1.820 -0.3732 -0.1839 -0.0444
  154MOL    C8324869   4.122   4.508   1.837  0.5127 -0.6804 -0.0197
  154MOL    N8424870   4.057   4.440   1.720 -0.2587 -0.2376 -0.0953
  154MOL    H8524871   4.009   4.682   1.772 -0.3212 -2.1066 -0.9538
  154MOL    H8624872   4.176   4.694   1.742  2.1466 -0.0120  2.2280
  154MOL    H8724873   4.070   4.476   1.927  2.4000 -0.8135  1.0515
  154MOL    H8824874   3.971   4.399   1.753 -0.7261  0.6479 -0.2233
  154MOL    H8924875   4.038   4.502   1.644 -0.3802  1.2770  1.1502
  154MOL    C9024876   4.263   4.455   1.842 -0.3650  0.0069 -0.1721
  154MOL    C9124877   4.339   4.485   1.974  0.5416  0.3309  0.2253
  154MOL    N9224878   4.285   4.395   2.076 -0.0190 -0.0739  0.0716
  154MOL    H9324879   4.271   4.346   1.838 -1.2867 -0.0519 -0.5236
  154MOL    H9424880   4.317   4.497   1.757 -1.0505 -0.0508 -0.6410
  154MOL    H9524881   4.312   4.585   2.009 -1.3122 -0.7833  2.1107
  154MOL    H9624882   4.197   4.351   2.053  0.8998 -1.0178 -1.6875
  154MOL    H9724883   4.352   4.319   2.077 -2.1839 -2.0715 -2.1376
  154MOL    C9824884   4.486   4.464   1.953  0.3804  0.9571 -0.3936
  154MOL    C9924885   4.573   4.586   1.924 -0.2492  0.1048 -0.7030
  154MOL   N10024886   4.691   4.599   2.008  0.1277  1.2740  0.0239
  154MOL   H10124887   4.525   4.402   2.034 -1.6945  1.1620  0.7838
  154MOL   H10224888   4.504   4.390   1.874 -1.2819 -0.4562  0.5377
  154MOL   H10324889   4.509   4.674   1.930 -1.0510 -0.3308 -2.3986
  154MOL   H10424890   4.708   4.696   2.029  1.3140  0.7952  1.3202
  154MOL   H10524891   4.676   4.547   2.093 -1.6950 -0.6636 -1.4082
  154MOL   C10624892   4.611   4.589   1.774 -0.3084 -0.1900 -0.4834
  154MOL   C10724893   4.649   4.731   1.726  0.1334 -0.5178  0.2837
  154MOL   N10824894   4.726   4.721   1.604 -0.2292  0.5105  0.3896
  154MOL   H10924895   4.693   4.521   1.754  0.7026  0.2635  2.0294
  154MOL   H11024896   4.525   4.556   1.715 -1.4199  2.0487 -0.1925
  154MOL   H11124897   4.707   4.780   1.804 -1.3338 -0.0365  1.0809
  154MOL   H11224898   4.669   4.684   1.529 -0.0852  0.9729  0.0481
  154MOL   H11324899   4.807   4.662   1.620 -2.5099 -3.4229 -1.7934
  154MOL   C11424900   4.518   4.810   1.704 -0.1340 -0.5023  0.6509
  154MOL   C11524901   4.546   4.961   1.728 -0.4292 -0.1202  0.1092
  154MOL   N11624902   4.573   4.991   1.870 -0.5281  0.1849 -0.0447
  154MOL   H11724903   4.473   4.790   1.606 -1.7673 -1.5012  1.5626
  154MOL   H11824904   4.441   4.786   1.778  1.1631 -1.6683  1.6347
  154MOL   H11924905   4.452   5.008   1.701 -0.1834 -0.2146 -0.9055
  154MOL   H12024906   4.490   4.975   1.925 -0.1004  0.3558  0.6466
  154MOL   H12124907   4.596   5.086   1.892  0.4774  0.0043 -0.2854
  154MOL   C12224908   4.664   5.032   1.650 -0.4993 -0.4836  0.0464
  154MOL   C12324909   4.671   5.032   1.495 -0.3922 -0.5129  0.0653
  154MOL   N12424910   4.549   5.087   1.433 -0.2957 -0.3993 -0.7675
  154MOL   H12524911   4.690   5.127   1.695  2.0856 -1.6887  1.2228
  154MOL   H12624912   4.756   4.982   1.678 -0.3595  0.3993  1.1822
  154MOL   H12724913   4.691   4.933   1.455 -1.1641 -1.0564  0.9918
  154MOL   H12824914   4.562   5.186   1.419  1.4796 -0.8253 -2.2145
  154MOL   H12924915   4.539   5.053   1.339 -1.7283  1.0883 -1.1832
  154MOL   C13024916   4.796   5.113   1.452  0.0985 -0.1899 -0.1625
  154MOL   C13124917   4.846   5.088   1.304 -0.0648  0.5016 -0.2379
  154MOL   N13224918   4.858   5.222   1.253 -0.1330  0.5964 -0.3011
  154MOL   H13324919   4.770   5.217   1.471  0.4190  0.3065 -2.3353
  154MOL   H13424920   4.875   5.094   1.524 -1.1312  1.7497  1.7413
  154MOL   H13524921   4.776   5.040   1.236  2.3869  0.4908 -2.8720
  154MOL   H13624922   4.916   5.217   1.170  1.9147  0.0995  1.1115
  154MOL   H13724923   4.911   5.275   1.320 -0.9515 -1.7506  2.2891
  154MOL   C13824924   4.975   5.015   1.283 -0.4759  0.0212  0.4792
  154MOL   C13924925   4.988   4.869   1.339  0.0588  0.2850 -0.1414
  154MOL   N14024926   4.877   4.798   1.290  0.3202  0.1065  0.0321
  154MOL   H14124927   5.009   5.016   1.180 -1.7865  3.0163  0.0117
  154MOL   H14224928   5.055   5.069   1.332  0.0052  1.4760 -1.8284
  154MOL   H14324929   4.977   4.858   1.447  0.5729 -0.2081 -0.1339
  154MOL   H14424930   4.797   4.847   1.328  0.7629  1.6987 -1.0641
  154MOL   H14524931   4.865   4.705   1.329  0.3283  1.5248  3.6625
  154MOL   C14624932   5.121   4.805   1.289 -0.5214 -0.4773  0.2743
  154MOL   C14724933   5.240   4.847   1.375  0.4396 -0.0378 -1.1285
  154MOL   N14824934   5.246   4.766   1.498 -0.4607 -0.0721  0.3580
  154MOL   H14924935   5.111   4.697   1.294  0.4652 -0.5767  0.2370
  154MOL   H15024936   5.130   4.833   1.184  1.4452  0.7100  0.7371
  154MOL   H15124937   5.240   4.951   1.404 -0.3825 -0.6097  0.9794
  154MOL   H15224938   5.328   4.785   1.553  1.0744 -1.5819 -1.3317
  154MOL   H15324939   5.173   4.788   1.563 -1.4466 -1.2281 -0.3448
  154MOL   C15424940   5.372   4.818   1.303 -0.1847  0.1471 -0.3686
  154MOL   C15524941   5.427   4.931   1.207 -0.2882  0.2899 -0.0089
  154MOL   N15624942   5.563   4.900   1.157 -0.2796 -0.0635 -0.0030
  154MOL   H15724943   5.456   4.804   1.372 -1.7807 -0.4290  1.5013
  154MOL   H15824944   5.373   4.719   1.257  1.4246  0.6299 -1.3961
  154MOL   H15924945   5.428   5.021   1.268  0.0135  0.7006 -0.6093
  154MOL   H16024946   5.594   4.975   1.096  1.6033 -1.2374 -0.5162
  154MOL   H16124947   5.575   4.817   1.101  3.3439  0.4609 -0.1097
  154MOL   H16224948   5.362   4.949   1.121 -1.0121 -2.0676  0.0300
  155MOL     C124949   6.614   4.697   6.297  0.1684 -0.1391 -0.3955
  155MOL     C224950   6.638   4.822   6.205 -0.3570  0.3217 -0.4236
  155MOL     N324951   6.714   4.781   6.094 -0.2032 -0.0845  0.0466
  155MOL     H424952   6.561   4.729   6.386  1.4614  1.7524 -0.2827
  155MOL     H524953   6.701   4.645   6.338  0.0316  1.1357  1.5732
  155MOL     H624954   6.702   4.887   6.264  3.3179 -1.3463 -2.3860
  155MOL     H724955   6.785   4.714   6.119 -0.1607  0.2200  0.7641
  155MOL     H824956   6.767   4.862   6.064 -0.7658 -0.0687 -0.9231
  155MOL     H924957   6.552   4.625   6.243 -0.7823 -0.8563  1.5879
  155MOL    C1024958   6.512   4.899   6.174  0.2860 -0.5029 -0.4504
  155MOL    C1124959   6.423   4.959   6.286 -0.0338  0.4301  0.0344
  155MOL    N1224960   6.443   5.107   6.300  0.1098  0.6172  0.0352
  155MOL    H1324961   6.527   4.982   6.105  1.4422 -0.3279 -0.0154
  155MOL    H1424962   6.443   4.847   6.107 -0.8945  0.5753 -0.0864
  155MOL    H1524963   6.447   4.910   6.380 -1.4981 -3.0719 -1.3384
  155MOL    H1624964   6.532   5.135   6.338  0.7273  0.1890 -1.0696
  155MOL    H1724965   6.448   5.143   6.206  0.2605  1.1885  0.2620
  155MOL    C1824966   6.275   4.923   6.253  0.1472  0.3833  0.1668
  155MOL    C1924967   6.231   4.773   6.242 -0.5677 -0.2788  0.5677
  155MOL    N2024968   6.164   4.727   6.362  0.9520 -0.2889  0.8091
  155MOL    H2124969   6.214   4.956   6.337  0.2971 -2.2762  1.3870
  155MOL    H2224970   6.255   4.985   6.166 -0.3913 -0.4345 -0.3053
  155MOL    H2324971   6.322   4.714   6.245 -0.7876 -0.5664  2.0820
  155MOL    H2424972   6.075   4.774   6.366 -0.5261 -2.6902 -1.6787
  155MOL    H2524973   6.158   4.626   6.359 -0.0870 -0.2232  0.6442
  155MOL    C2624974   6.146   4.743   6.116 -0.3382  0.2902  0.3158
  155MOL    C2724975   6.225   4.746   5.987 -0.2732  0.4692  0.3735
  155MOL    N2824976   6.317   4.635   5.990 -0.5216 -0.2675 -0.1561
  155MOL    H2924977   6.110   4.640   6.120 -1.0168  0.5528  1.0320
  155MOL    H3024978   6.059   4.809   6.119  1.3804  2.7153 -0.9938
  155MOL    H3124979   6.275   4.843   5.976 -0.2566  0.4704  0.4566
  155MOL    H3224980   6.350   4.634   5.894  4.2710  0.8187  1.3780
  155MOL    H3324981   6.397   4.665   6.043 -0.8808  0.9464 -0.2888
  155MOL    C3424982   6.134   4.748   5.862  0.3191 -0.1241 -0.0762
  155MOL    C3524983   6.165   4.857   5.757 -0.3603  0.2611 -0.3390
  155MOL    N3624984   6.113   4.820   5.631 -0.9647 -0.4127 -0.6082
  155MOL    H3724985   6.127   4.657   5.802  3.8094  0.8320 -2.0729
  155MOL    H3824986   6.031   4.762   5.896  0.7740  0.0314  1.2502
  155MOL    H3924987   6.274   4.857   5.749 -0.4358  2.2121 -1.5605
  155MOL    H4024988   6.133   4.726   5.601  0.1844 -0.0696 -0.9812
  155MOL    H4124989   6.152   4.877   5.557 -0.5586 -0.3757 -0.3680
  155MOL    C4224990   6.115   4.999   5.797 -0.4286  0.2776  0.5497
  155MOL    C4324991   6.232   5.104   5.787 -0.4054 -0.4982 -0.2747
  155MOL    N4424992   6.170   5.232   5.754  0.1033 -0.3014  0.0015
  155MOL    H4524993   6.028   5.036   5.744 -1.7682 -1.1483  1.7341
  155MOL    H4624994   6.078   4.992   5.899  0.4642 -1.1549  0.7902
  155MOL    H4724995   6.301   5.084   5.705 -0.1653  0.8520 -0.4157
  155MOL    H4824996   6.134   5.254   5.846  0.8219 -0.3720  0.2990
  155MOL    H4924997   6.090   5.233   5.692 -0.7079  0.5587  1.0496
  155MOL    C5024998   6.308   5.132   5.918 -0.2949  0.2224  0.0433
  155MOL    C5124999   6.427   5.235   5.899 -0.6179 -0.2351 -0.4211
  155MOL    N5225000   6.459   5.280   6.034  0.4134  0.1107  0.1515
  155MOL    H5325001   6.233   5.171   5.987 -1.3693  0.2657 -1.1224
  155MOL    H5425002   6.352   5.038   5.951  2.0040  2.1083  2.4859
  155MOL    H5525003   6.396   5.327   5.848 -0.9909 -0.7654 -1.1543
  155MOL    H5625004   6.409   5.364   6.059 -0.0661 -0.2276  0.3241
  155MOL    H5725005   6.558   5.302   6.038  0.1614  1.2845  0.2349
  155MOL    C5825006   6.549   5.191   5.823  0.3929 -0.4017 -0.1063
  155MOL    C5925007   6.649   5.305   5.787  0.7527  0.4153 -0.0794
  155MOL    N6025008   6.763   5.237   5.724 -0.7189  0.5692 -0.3513
  155MOL    H6125009   6.590   5.112   5.886 -0.7548 -2.1559 -1.5075
  155MOL    H6225010   6.524   5.131   5.735 -0.0471 -1.6781  0.8644
  155MOL    H6325011   6.684   5.371   5.866 -0.3751  0.3061  0.5151
  155MOL    H6425012   6.787   5.148   5.765 -0.8046  0.3659 -0.7409
  155MOL    H6525013   6.740   5.221   5.627  1.0868 -1.3842 -0.4836
  155MOL    C6625014   6.604   5.416   5.688  0.3565  0.0353 -0.0142
  155MOL    C6725015   6.689   5.550   5.682 -0.0333 -0.6333 -0.7645
  155MOL    N6825016   6.739   5.563   5.546  1.0502  0.0103  0.2610
  155MOL    H6925017   6.582   5.366   5.593  0.1539  1.7603 -0.8984
  155MOL    H7025018   6.503   5.446   5.717  0.9015  0.8391  1.0778
  155MOL    H7125019   6.773   5.541   5.751  1.4936 -0.0751 -2.5109
  155MOL    H7225020   6.753   5.470   5.510 -0.3498  0.5556 -1.8049
  155MOL    H7325021   6.831   5.607   5.547  0.4504  1.4219 -2.3165
  155MOL    C7425022   6.606   5.676   5.704 -0.4980 -0.0350 -0.2372
  155MOL    C7525023   6.568   5.711   5.847 -0.0246  0.1261  0.1833
  155MOL    N7625024   6.490   5.835   5.845  0.1362 -0.0080 -0.2027
  155MOL    H7725025   6.656   5.764   5.663 -0.1576  0.4764  1.2772
  155MOL    H7825026   6.514   5.644   5.653  0.9994 -2.5485 -1.4278
  155MOL    H7925027   6.658   5.715   5.908 -0.7256 -0.3532  1.2643
  155MOL    H8025028   6.448   5.861   5.932  0.0539  2.3547 -0.9091
  155MOL    H8125029   6.560   5.906   5.829  1.9040 -2.1367 -2.3380
  155MOL    C8225030   6.474   5.611   5.923 -0.3041 -0.4015  0.0218
  155MOL    C8325031   6.444   5.647   6.069  0.3649 -0.4975  0.5279
  155MOL    N8425032   6.331   5.579   6.129 -0.1451  0.0692  0.3826
  155MOL    H8525033   6.380   5.592   5.870  0.0123 -0.1586 -0.6292
  155MOL    H8625034   6.527   5.516   5.926 -2.5577 -1.8283 -2.8483
  155MOL    H8725035   6.412   5.751   6.075 -0.0312 -0.5178 -1.0192
  155MOL    H8825036   6.255   5.645   6.122  1.3045  1.8426  1.0012
  155MOL    H8925037   6.358   5.567   6.225 -1.4820 -0.0629  0.7513
  155MOL    C9025038   6.550   5.615   6.166  0.4551  0.5094  0.9006
  155MOL    C9125039   6.638   5.739   6.188 -0.2670 -0.4785  1.0505
  155MOL    N9225040   6.588   5.829   6.293 -0.0500 -0.1877  0.0134
  155MOL    H9325041   6.515   5.597   6.268 -2.1320  1.8519  0.2978
  155MOL    H9425042   6.605   5.526   6.136 -0.9617 -0.4896  1.2086
  155MOL    H9525043   6.658   5.790   6.093 -0.8502 -0.0208  1.1723
  155MOL    H9625044   6.661   5.898   6.303  3.0717 -2.9329 -2.1306
  155MOL    H9725045   6.508   5.871   6.249 -0.9610 -0.9529  0.9213
  155MOL    C9825046   6.782   5.705   6.240  0.6155 -0.1551 -0.2544
  155MOL    C9925047   6.874   5.660   6.127 -0.3234 -0.2907  0.3868
  155MOL   N10025048   6.934   5.766   6.062 -0.4163 -0.1389  0.7203
  155MOL   H10125049   6.836   5.786   6.289  1.3281 -1.4593  1.1522
  155MOL   H10225050   6.768   5.632   6.319 -0.4428  0.8901  0.5467
  155MOL   H10325051   6.820   5.600   6.053 -0.9231  1.4275 -0.6063
  155MOL   H10425052   7.024   5.788   6.104 -0.4116  0.5288  0.3751
  155MOL   H10525053   6.878   5.850   6.070 -0.1911  0.2351 -1.3422
  155MOL   C10625054   6.981   5.561   6.187 -0.4238  0.0921 -0.0853
  155MOL   C10725055   6.928   5.414   6.207 -0.3650  0.3173  0.3341
  155MOL   N10825056   6.956   5.348   6.077 -0.0808  0.5215  0.0733
  155MOL   H10925057   7.075   5.564   6.132 -0.1683 -1.0151  0.2749
  155MOL   H11025058   7.009   5.595   6.286  0.2410  0.2701 -0.3293
  155MOL   H11125059   6.823   5.410   6.237 -0.4387  0.7405  0.1422
  155MOL   H11225060   6.935   5.414   6.004  0.5434  1.4645  0.7348
  155MOL   H11325061   7.047   5.315   6.051  0.2929  1.0350  0.7258
  155MOL   C11425062   7.016   5.336   6.313  0.1915  0.0290 -0.1233
  155MOL   C11525063   6.938   5.259   6.424 -0.1875  0.0608 -0.0418
  155MOL   N11625064   7.016   5.145   6.465  0.4116  0.4729 -0.3244
  155MOL   H11725065   7.078   5.272   6.250  1.2627 -0.1704  1.1311
  155MOL   H11825066   7.094   5.390   6.365 -0.5877  0.2460  0.8425
  155MOL   H11925067   6.842   5.215   6.398  1.2687 -1.1233 -3.7289
  155MOL   H12025068   7.113   5.164   6.485  0.4967 -2.4735  2.5165
  155MOL   H12125069   6.990   5.120   6.560  0.9562 -0.5133 -0.4280
  155MOL   C12225070   6.903   5.351   6.542 -0.2561 -0.7544 -0.2693
  155MOL   C12325071   6.778   5.321   6.624  0.3503 -0.1876 -0.5341
  155MOL   N12425072   6.775   5.385   6.752 -0.2388  0.8559 -0.3348
  155MOL   H12525073   6.988   5.346   6.609 -0.1320 -2.4017 -0.5338
  155MOL   H12625074   6.921   5.453   6.508  1.0759 -0.9193 -0.0965
  155MOL   H12725075   6.773   5.212   6.631  1.2333 -0.2321 -0.5090
  155MOL   H12825076   6.867   5.373   6.793  0.2302  2.0416 -1.0234
  155MOL   H12925077   6.720   5.323   6.810 -0.5450  0.5958 -0.9042
  155MOL   C13025078   6.641   5.352   6.556 -0.6038 -0.5379  0.1383
  155MOL   C13125079   6.514   5.280   6.596  0.0812 -0.4863  0.1205
  155MOL   N13225080   6.404   5.319   6.508  0.2498 -0.3275  0.0521
  155MOL   H13325081   6.637   5.461   6.556  0.3223 -0.4960 -1.2242
  155MOL   H13425082   6.656   5.330   6.450  1.2024 -1.3487  0.5478
  155MOL   H13525083   6.478   5.321   6.690 -0.5446 -1.3510  0.2684
  155MOL   H13625084   6.319   5.309   6.562  2.0343 -2.2273  2.5897
  155MOL   H13725085   6.395   5.246   6.439 -1.5780  0.6090 -0.7393
  155MOL   C13825086   6.531   5.125   6.615  0.4786 -0.0973  0.3022
  155MOL   C13925087   6.408   5.037   6.642  0.7984 -0.5188 -0.6357
  155MOL   N14025088   6.447   4.900   6.617 -0.0187  0.3364  0.2697
  155MOL   H14125089   6.583   5.096   6.524 -1.6110  1.3208 -1.3845
  155MOL   H14225090   6.594   5.109   6.702  0.9445 -1.0347 -0.1986
  155MOL   H14325091   6.328   5.055   6.570 -0.4103  0.3094  0.8744
  155MOL   H14425092   6.462   4.895   6.517  1.2291  0.6099  0.4301
  155MOL   H14525093   6.358   4.856   6.630 -0.9100  2.3241  1.0844
  155MOL   C14625094   6.357   5.065   6.782 -0.7731  0.0081  0.1560
  155MOL   C14725095   6.206   5.051   6.800 -0.3841 -0.4153 -0.5094
  155MOL   N14825096   6.182   5.055   6.943  0.0837 -0.0857 -0.6762
  155MOL   H14925097   6.403   4.992   6.849  0.9130  0.0374 -0.9210
  155MOL   H15025098   6.391   5.160   6.822 -1.3737  0.5989 -0.7258
  155MOL   H15125099   6.170   4.957   6.759  0.5816 -1.0526  0.1213
  155MOL   H15225100   6.227   4.972   6.979  2.6160  1.5964  0.1600
  155MOL   H15325101   6.217   5.137   6.990 -2.7614 -0.0580  1.5752
  155MOL   C15425102   6.118   5.163   6.732 -0.2495  0.5310  0.4976
  155MOL   C15525103   6.098   5.155   6.583  0.1622 -0.1359  0.2007
  155MOL   N15625104   5.993   5.254   6.545  0.4707 -0.6225  0.7723
  155MOL   H15725105   6.019   5.155   6.777 -0.7361  0.6220 -0.5386
  155MOL   H15825106   6.147   5.263   6.764  0.5295  0.0206  1.4052
  155MOL   H15925107   6.089   5.056   6.538  0.1904  0.0113 -0.1296
  155MOL   H16025108   5.898   5.237   6.573 -0.2951  1.2594 -0.6270
  155MOL   H16125109   5.995   5.266   6.445  2.0761 -1.2679  0.6993
  155MOL   H16225110   6.182   5.200   6.530  0.2455 -2.5961 -1.8921
  156MOL     C125111   6.917   1.509   1.237  0.1935 -0.4430 -0.5977
  156MOL     C225112   6.919   1.574   1.099 -0.3287  0.3249 -0.6606
  156MOL     N325113   7.055   1.579   1.061  0.0713  0.2105  0.3317
  156MOL     H425114   6.935   1.401   1.238 -1.6696 -0.7716 -0.8308
  156MOL     H525115   6.820   1.519   1.285  0.3692  1.7968 -0.6554
  156MOL     H625116   6.890   1.678   1.115 -0.0992  0.3943 -0.6984
  156MOL     H725117   7.104   1.555   1.146 -0.3468 -0.5905  0.3474
  156MOL     H825118   7.085   1.674   1.043  1.9180 -0.1164  1.5129
  156MOL     H925119   7.002   1.558   1.284  0.9210 -2.0557 -0.1844
  156MOL    C1025120   6.829   1.511   0.989  0.2479  0.2273 -0.0043
  156MOL    C1125121   6.678   1.502   1.025 -0.0871 -0.7771  0.0727
  156MOL    N1225122   6.591   1.536   0.914 -0.2816  0.1349  0.0590
  156MOL    H1325123   6.843   1.578   0.903  0.0924  0.8258  0.4301
  156MOL    H1425124   6.866   1.414   0.957  0.5460 -0.2414  1.7233
  156MOL    H1525125   6.640   1.581   1.090 -1.1241 -0.6214 -0.7073
  156MOL    H1625126   6.588   1.636   0.923 -0.6044  0.0677  0.7627
  156MOL    H1725127   6.494   1.511   0.927 -0.0756 -1.1347 -0.7942
  156MOL    C1825128   6.630   1.351   1.055 -0.1188 -0.4402 -0.1959
  156MOL    C1925129   6.497   1.332   1.130  0.8471 -0.0230  0.6195
  156MOL    N2025130   6.460   1.191   1.122  0.6890 -0.1744  0.0569
  156MOL    H2125131   6.649   1.294   0.964 -2.4655 -1.4051 -0.1125
  156MOL    H2225132   6.708   1.311   1.120  0.2232  0.0901 -0.2795
  156MOL    H2325133   6.420   1.387   1.075  1.0875 -2.0958 -1.9089
  156MOL    H2425134   6.539   1.138   1.153  1.2138  0.8491  0.4947
  156MOL    H2525135   6.385   1.176   1.189 -0.3689 -1.8430 -1.4673
  156MOL    C2625136   6.498   1.383   1.274  0.5415  0.1641 -0.1684
  156MOL    C2725137   6.366   1.395   1.360  0.1116 -0.1736 -0.0154
  156MOL    N2825138   6.411   1.408   1.496  0.4139 -0.1123  0.9945
  156MOL    H2925139   6.579   1.330   1.326 -0.2650 -0.6105  0.3121
  156MOL    H3025140   6.546   1.481   1.267 -0.1381  0.6272  1.3933
  156MOL    H3125141   6.302   1.306   1.363  0.3209 -0.3892 -1.6940
  156MOL    H3225142   6.492   1.467   1.486  0.1893 -0.2948 -2.4665
  156MOL    H3325143   6.448   1.321   1.531  2.2465  0.7845  1.3347
  156MOL    C3425144   6.282   1.525   1.320 -0.2783  0.2309  0.2669
  156MOL    C3525145   6.180   1.499   1.206  0.5164  0.6706  0.5541
  156MOL    N3625146   6.075   1.418   1.272  0.2970 -0.3632 -0.2453
  156MOL    H3725147   6.238   1.572   1.408 -1.4909  1.2027 -0.8380
  156MOL    H3825148   6.350   1.603   1.286 -0.9189  0.5657 -0.2515
  156MOL    H3925149   6.229   1.439   1.130 -1.2650  1.0510 -0.9459
  156MOL    H4025150   6.034   1.364   1.198 -0.8647 -1.2414  1.0039
  156MOL    H4125151   6.131   1.360   1.333 -2.3614 -0.8858  1.7892
  156MOL    C4225152   6.115   1.639   1.162 -0.1206  0.5212  0.3571
  156MOL    C4325153   6.210   1.734   1.076 -0.6766 -0.2433  0.1816
  156MOL    N4425154   6.296   1.663   0.980  0.2197  0.3544  0.1774
  156MOL    H4525155   6.039   1.604   1.092  0.4155 -2.1705  1.0768
  156MOL    H4625156   6.078   1.694   1.248  0.3050  0.8033  0.3637
  156MOL    H4725157   6.283   1.777   1.144  0.5273 -0.2278 -1.0892
  156MOL    H4825158   6.245   1.619   0.905 -0.1010 -0.1954  0.7107
  156MOL    H4925159   6.347   1.731   0.926 -1.5972  2.3627  0.8760
  156MOL    C5025160   6.143   1.848   1.012 -0.2611  0.8512  0.2582
  156MOL    C5125161   6.093   1.967   1.103  0.2360 -0.2295 -0.1962
  156MOL    N5225162   6.089   2.089   1.023  0.3290 -0.2496 -0.2660
  156MOL    H5325163   6.211   1.893   0.940 -2.1181 -0.7276 -2.6266
  156MOL    H5425164   6.062   1.809   0.950 -0.3826  0.1671  0.8417
  156MOL    H5525165   6.161   1.974   1.188 -0.8483 -0.8498  0.7207
  156MOL    H5625166   6.059   2.160   1.087  0.1541  0.4243 -1.0896
  156MOL    H5725167   6.182   2.113   0.991  0.6557 -0.8117  0.2551
  156MOL    C5825168   5.952   1.951   1.154  0.2486 -0.0695 -0.4283
  156MOL    C5925169   5.911   2.042   1.273 -0.1470 -0.4271  0.0972
  156MOL    N6025170   5.895   2.183   1.226  0.2384 -0.3015 -0.8105
  156MOL    H6125171   5.885   1.956   1.069 -1.3942 -1.0750  0.7970
  156MOL    H6225172   5.953   1.849   1.192  3.6835  0.3441  0.7790
  156MOL    H6325173   5.984   2.042   1.354  1.7521  2.0233 -1.5527
  156MOL    H6425174   5.845   2.183   1.138 -2.3716  0.1833  0.6225
  156MOL    H6525175   5.836   2.229   1.293  2.2205  2.3911 -0.8462
  156MOL    C6625176   5.772   2.012   1.325 -1.0308 -0.1052 -0.2365
  156MOL    C6725177   5.755   1.869   1.384 -0.3593  0.1735 -0.2299
  156MOL    N6825178   5.827   1.870   1.505  0.0950  0.6420  0.1470
  156MOL    H6925179   5.755   2.089   1.400  1.2331  0.7070 -0.5156
  156MOL    H7025180   5.706   2.025   1.240 -0.4622 -0.1759 -0.6922
  156MOL    H7125181   5.786   1.791   1.314 -1.5306 -0.9856  0.5182
  156MOL    H7225182   5.926   1.869   1.485  0.0671  0.2601  0.0378
  156MOL    H7325183   5.815   1.960   1.550 -0.8821  0.4183  0.3356
  156MOL    C7425184   5.607   1.841   1.407  0.5645  0.2788 -0.2551
  156MOL    C7525185   5.516   1.810   1.284 -0.4205  0.2499 -0.7440
  156MOL    N7625186   5.502   1.673   1.279 -0.0199  0.1896 -0.2376
  156MOL    H7725187   5.601   1.764   1.484  0.6463  0.4930 -0.0305
  156MOL    H7825188   5.558   1.921   1.464  0.9280  0.0821  0.3368
  156MOL    H7925189   5.562   1.842   1.190  1.9106 -0.6229  0.0738
  156MOL    H8025190   5.594   1.638   1.253  0.9279  1.7452  0.9672
  156MOL    H8125191   5.445   1.664   1.196  1.6199 -0.0890 -1.3584
  156MOL    C8225192   5.370   1.865   1.297 -0.8374 -0.0005  0.7850
  156MOL    C8325193   5.352   2.001   1.233  0.6269  0.4397 -0.0927
  156MOL    N8425194   5.217   2.033   1.228  0.8781 -0.4464  0.3030
  156MOL    H8525195   5.301   1.802   1.240  0.8921 -1.6897  0.5031
  156MOL    H8625196   5.332   1.864   1.400  0.9946 -0.8481  1.4794
  156MOL    H8725197   5.396   1.997   1.134  1.2095 -0.8247  0.2077
  156MOL    H8825198   5.212   2.108   1.161 -0.7667 -1.4458 -0.7260
  156MOL    H8925199   5.165   1.961   1.180 -0.4081  0.2590  0.6212
  156MOL    C9025200   5.414   2.113   1.320  0.3110 -0.3206  0.2542
  156MOL    C9125201   5.428   2.260   1.269 -0.5735 -0.4159 -0.3034
  156MOL    N9225202   5.516   2.335   1.362  0.2224 -0.2221 -0.1527
  156MOL    H9325203   5.377   2.106   1.423  0.6515  1.5481  0.5284
  156MOL    H9425204   5.515   2.074   1.331  0.1172 -1.2973 -1.3092
  156MOL    H9525205   5.328   2.303   1.266  0.7364  2.9264  0.9771
  156MOL    H9625206   5.525   2.417   1.304 -2.0197 -1.1048 -1.8612
  156MOL    H9725207   5.471   2.382   1.439  0.7641 -1.0682  0.6904
  156MOL    C9825208   5.491   2.275   1.135 -0.1052 -0.1716  0.0031
  156MOL    C9925209   5.393   2.275   1.013  0.0271  0.4601  0.9610
  156MOL   N10025210   5.333   2.413   1.004  0.3282 -0.6894  0.6605
  156MOL   H10125211   5.536   2.374   1.128  0.1766 -0.2836  0.2705
  156MOL   H10225212   5.570   2.204   1.115  0.7191  0.6800  0.1982
  156MOL   H10325213   5.305   2.213   1.030  0.0879  0.0935 -0.0562
  156MOL   H10425214   5.235   2.421   0.982  0.3259 -1.3703  0.4194
  156MOL   H10525215   5.340   2.463   1.091  0.4246  0.3477  0.0593
  156MOL   C10625216   5.437   2.245   0.868 -0.1984  0.1688 -0.4034
  156MOL   C10725217   5.421   2.097   0.828 -0.6449 -0.2368 -0.1444
  156MOL   N10825218   5.405   2.085   0.684  0.3142  0.7810  0.1838
  156MOL   H10925219   5.370   2.297   0.799 -1.9566 -1.3257  0.1408
  156MOL   H11025220   5.533   2.288   0.839  0.0171 -1.2948 -1.9993
  156MOL   H11125221   5.326   2.061   0.868  0.1084 -0.7779  1.1969
  156MOL   H11225222   5.319   2.125   0.649 -0.2504 -2.6044 -2.6428
  156MOL   H11325223   5.467   2.153   0.645 -0.2088  2.0548  1.5341
  156MOL   C11425224   5.537   2.006   0.852 -0.4967 -0.0339  0.1114
  156MOL   C11525225   5.514   1.862   0.814  0.8895  0.6896 -0.5509
  156MOL   N11625226   5.636   1.794   0.816 -0.0298 -0.7510  0.1305
  156MOL   H11725227   5.627   2.051   0.811 -0.4489  0.0943  0.3577
  156MOL   H11825228   5.552   2.015   0.960 -2.0039 -1.4747  0.4709
  156MOL   H11925229   5.472   1.844   0.715 -1.5914  0.4879  0.5011
  156MOL   H12025230   5.687   1.817   0.900  0.5974  0.1387 -0.4776
  156MOL   H12125231   5.693   1.831   0.741 -2.2402 -1.3673 -1.9159
  156MOL   C12225232   5.411   1.792   0.915  0.1235  0.2852  0.1166
  156MOL   C12325233   5.387   1.644   0.874  0.5294  1.0257 -0.3876
  156MOL   N12425234   5.385   1.556   0.989  0.0093 -0.0345  0.6797
  156MOL   H12525235   5.468   1.792   1.008 -1.6760 -0.7411  1.2395
  156MOL   H12625236   5.317   1.845   0.932 -0.0381 -0.1195  0.4790
  156MOL   H12725237   5.461   1.607   0.802 -1.5532 -0.8946 -1.6034
  156MOL   H12825238   5.471   1.503   0.984 -1.0580 -1.7155 -0.3738
  156MOL   H12925239   5.311   1.488   0.985 -1.4980  1.6065  0.2153
  156MOL   C13025240   5.255   1.618   0.799  0.0046 -0.2655 -0.0875
  156MOL   C13125241   5.229   1.688   0.667 -0.1818 -0.0692  0.4797
  156MOL   N13225242   5.296   1.608   0.562 -0.6337 -0.0540  0.5200
  156MOL   H13325243   5.254   1.510   0.780 -0.1912  0.0893 -2.1941
  156MOL   H13425244   5.173   1.638   0.867 -1.0802  0.1742 -1.4983
  156MOL   H13525245   5.285   1.781   0.655 -3.0527  1.2649 -3.5087
  156MOL   H13625246   5.392   1.592   0.588 -0.8017 -3.3458 -0.7212
  156MOL   H13725247   5.311   1.657   0.474 -2.4513  1.5171  1.0315
  156MOL   C13825248   5.083   1.716   0.637 -0.1526  0.1717  0.8581
  156MOL   C13925249   5.020   1.836   0.709  0.2565  0.4350  0.1213
  156MOL   N14025250   5.093   1.959   0.672  0.1447  0.0346  0.1196
  156MOL   H14125251   5.067   1.718   0.529 -0.1382  5.5949  0.8207
  156MOL   H14225252   5.043   1.622   0.674 -2.0917  1.0180  0.9393
  156MOL   H14325253   5.030   1.817   0.816  2.1523 -0.7153 -0.2365
  156MOL   H14425254   5.105   1.968   0.572  1.1467 -0.3263  0.1939
  156MOL   H14525255   5.192   1.963   0.696  0.3110 -0.5745 -0.4538
  156MOL   C14625256   4.867   1.854   0.683 -0.1521  0.1378 -0.6465
  156MOL   C14725257   4.787   1.740   0.740  0.0979  0.7393  0.3294
  156MOL   N14825258   4.744   1.773   0.875 -0.3410 -0.3147  0.3913
  156MOL   H14925259   4.836   1.949   0.728  1.5679  0.4566 -0.1258
  156MOL   H15025260   4.848   1.869   0.577 -2.5542 -0.3674 -0.3193
  156MOL   H15125261   4.850   1.651   0.740  2.0197  2.0843 -0.2254
  156MOL   H15225262   4.716   1.686   0.918 -0.8054  0.1201  0.9814
  156MOL   H15325263   4.655   1.820   0.873 -0.1107  0.1025 -1.7363
  156MOL   C15425264   4.670   1.710   0.650  0.3487  0.7620  0.0888
  156MOL   C15525265   4.708   1.660   0.505 -0.1823  0.5847  0.2311
  156MOL   N15625266   4.582   1.652   0.434 -1.1232 -0.0414 -0.5273
  156MOL   H15725267   4.588   1.650   0.690 -0.7933  0.4018 -2.6896
  156MOL   H15825268   4.619   1.804   0.629 -1.3648 -0.3294 -0.7249
  156MOL   H15925269   4.760   1.565   0.501  0.5556  1.0032 -0.4169
  156MOL   H16025270   4.541   1.561   0.450  0.3017 -0.8858 -1.4809
  156MOL   H16125271   4.607   1.635   0.337 -0.2396 -0.0281 -0.3139
  156MOL   H16225272   4.781   1.725   0.456  0.8419 -2.4748 -2.4853
  157MOL     C125273   5.641   1.272   6.485  0.4911  0.3493 -0.4017
  157MOL     C225274   5.768   1.286   6.578  0.0217  0.3407  0.4797
  157MOL     N325275   5.769   1.188   6.679 -0.3374 -0.5725  0.3540
  157MOL     H425276   5.555   1.235   6.541  0.6685  1.0358  0.3507
  157MOL     H525277   5.648   1.201   6.403 -1.9153  0.7828 -1.0090
  157MOL     H625278   5.738   1.382   6.622  1.9937  1.5923 -0.8587
  157MOL     H725279   5.843   1.209   6.744 -0.3040 -1.1467  0.4986
  157MOL     H825280   5.685   1.191   6.736 -0.7424 -3.2041 -0.0241
  157MOL     H925281   5.619   1.372   6.446  1.5985  0.6018 -0.4022
  157MOL    C1025282   5.906   1.305   6.511  0.5293  0.3194 -0.7296
  157MOL    C1125283   5.926   1.435   6.434 -0.5140 -0.1731  0.0757
  157MOL    N1225284   5.942   1.540   6.533 -0.6702  0.4098 -0.2363
  157MOL    H1325285   5.995   1.281   6.569  0.5751 -1.9026 -1.6594
  157MOL    H1425286   5.901   1.225   6.437  1.4595 -1.0209  0.6126
  157MOL    H1525287   5.836   1.468   6.382 -2.5399 -2.2896  2.1399
  157MOL    H1625288   5.858   1.595   6.539 -0.4809  0.7595 -0.7876
  157MOL    H1725289   5.954   1.482   6.615  1.6760 -0.5448 -1.2119
  157MOL    C1825290   6.046   1.441   6.343 -0.6737  0.1281  0.4051
  157MOL    C1925291   6.019   1.388   6.202 -0.1657 -0.1216  0.3355
  157MOL    N2025292   6.117   1.443   6.109  0.2638 -0.0716 -0.1937
  157MOL    H2125293   6.071   1.545   6.320  1.4640 -0.1499  1.3445
  157MOL    H2225294   6.132   1.391   6.387 -0.6728 -0.3408 -0.1189
  157MOL    H2325295   5.920   1.425   6.178  0.3329 -0.6991 -2.8013
  157MOL    H2425296   6.121   1.375   6.034  0.5251  0.0388 -0.2829
  157MOL    H2525297   6.068   1.525   6.075  0.9439  0.3144 -0.2593
  157MOL    C2625298   6.035   1.239   6.185  0.2366 -0.3513 -0.1525
  157MOL    C2725299   5.965   1.173   6.057 -0.0163 -0.2147  0.5657
  157MOL    N2825300   6.027   1.045   6.027 -0.0766 -0.4538  0.7600
  157MOL    H2925301   6.138   1.206   6.203  0.5078  0.8437  0.6030
  157MOL    H3025302   5.983   1.196   6.270 -0.0984  0.1218 -0.1144
  157MOL    H3125303   5.988   1.236   5.971 -0.1499 -0.7720  0.1199
  157MOL    H3225304   6.045   1.037   5.928  0.9307 -0.5919  0.9500
  157MOL    H3325305   6.121   1.027   6.058  0.2085  0.5216  0.4677
  157MOL    C3425306   5.816   1.166   6.057  0.7387 -0.0622  0.7186
  157MOL    C3525307   5.744   1.162   5.916  0.0026  0.7486 -0.2212
  157MOL    N3625308   5.601   1.162   5.948 -0.5521 -0.1296  0.4247
  157MOL    H3725309   5.781   1.076   6.108 -0.1882  1.0268  2.0471
  157MOL    H3825310   5.772   1.253   6.106 -0.0595 -2.7077  4.9165
  157MOL    H3925311   5.767   1.071   5.861  0.8395  0.8332 -0.0197
  157MOL    H4025312   5.571   1.069   5.971 -0.8679  0.4609  2.5339
  157MOL    H4125313   5.553   1.177   5.861 -1.9209  0.2851  1.2376
  157MOL    C4225314   5.782   1.284   5.833  0.0077 -0.4271 -0.1479
  157MOL    C4325315   5.744   1.285   5.681  0.0344  0.3091  0.4685
  157MOL    N4425316   5.714   1.424   5.648  0.0601 -0.1599  0.2651
  157MOL    H4525317   5.761   1.375   5.889  1.3334 -1.3872  1.9782
  157MOL    H4625318   5.890   1.288   5.821  0.0272 -3.3311 -1.4699
  157MOL    H4725319   5.646   1.237   5.672 -0.0799  0.0761  2.5675
  157MOL    H4825320   5.623   1.433   5.690 -1.1675  0.0916 -2.3424
  157MOL    H4925321   5.719   1.448   5.550 -3.2822  2.5686  0.6700
  157MOL    C5025322   5.850   1.229   5.585  0.6873  0.5828 -0.2544
  157MOL    C5125323   5.793   1.176   5.448 -1.5755  0.1282 -0.4843
  157MOL    N5225324   5.902   1.153   5.354 -0.2731  0.0789  0.1056
  157MOL    H5325325   5.927   1.305   5.570  0.5879  0.8818  0.7723
  157MOL    H5425326   5.909   1.149   5.629 -0.7218  0.0282  0.6432
  157MOL    H5525327   5.736   1.256   5.401 -0.8244  0.3647 -0.9917
  157MOL    H5625328   5.874   1.179   5.260 -1.4622  0.5280  0.5742
  157MOL    H5725329   5.984   1.206   5.379  1.1947 -1.5260 -1.1963
  157MOL    C5825330   5.712   1.044   5.461  0.2350  0.3700 -0.2753
  157MOL    C5925331   5.563   1.065   5.463  0.3889  0.6832 -0.7038
  157MOL    N6025332   5.522   1.092   5.321 -0.4973  0.3358  0.2097
  157MOL    H6125333   5.736   0.967   5.388  1.4406 -0.8886  1.4150
  157MOL    H6225334   5.737   0.997   5.556 -1.0921 -2.9210 -1.4807
  157MOL    H6325335   5.536   1.155   5.519 -0.0239  1.2269 -1.7719
  157MOL    H6425336   5.539   1.004   5.275 -4.1271 -0.2978 -0.0648
  157MOL    H6525337   5.581   1.160   5.275 -0.6411 -0.0152 -0.4984
  157MOL    C6625338   5.479   0.946   5.519  0.0329 -0.1130  0.4855
  157MOL    C6725339   5.455   0.934   5.672  0.7684  0.5072 -0.2239
  157MOL    N6825340   5.408   1.054   5.736  0.1977  0.0674  0.1639
  157MOL    H6925341   5.381   0.940   5.472 -0.2791 -2.7020  1.4155
  157MOL    H7025342   5.523   0.857   5.475 -1.3256 -0.1577 -0.8432
  157MOL    H7125343   5.552   0.906   5.714  1.7632  3.3173 -0.5368
  157MOL    H7225344   5.395   1.039   5.834  0.3123 -0.9557  0.0287
  157MOL    H7325345   5.318   1.076   5.696  2.0763  1.8000 -3.3993
  157MOL    C7425346   5.369   0.812   5.715 -0.0116  0.2898 -0.6497
  157MOL    C7525347   5.436   0.676   5.692  0.6041 -0.8714  0.2961
  157MOL    N7625348   5.489   0.624   5.812  0.6934  0.2561 -0.0176
  157MOL    H7725349   5.331   0.824   5.816 -0.2252  0.8905 -0.8001
  157MOL    H7825350   5.284   0.808   5.647  2.1798 -1.1596 -3.4439
  157MOL    H7925351   5.517   0.688   5.621 -0.3486 -1.8705 -0.9823
  157MOL    H8025352   5.569   0.571   5.781 -1.7859 -3.3812 -0.5668
  157MOL    H8125353   5.527   0.710   5.850 -0.3516  1.0802 -0.7851
  157MOL    C8225354   5.339   0.579   5.625  0.3283 -0.1483  0.4876
  157MOL    C8325355   5.267   0.618   5.493 -0.1729  0.1594  0.4152
  157MOL    N8425356   5.374   0.612   5.388  0.1954  0.2340  0.2924
  157MOL    H8525357   5.388   0.483   5.606 -0.9359 -0.5822 -0.7099
  157MOL    H8625358   5.264   0.549   5.698  0.8065 -2.5768  0.0261
  157MOL    H8725359   5.225   0.718   5.490 -0.4304  0.0219 -1.9761
  157MOL    H8825360   5.458   0.650   5.429 -0.4760  1.5160  0.5314
  157MOL    H8925361   5.398   0.516   5.368  1.8699  0.8521 -0.7296
  157MOL    C9025362   5.158   0.522   5.451  0.0294 -0.2368 -0.3811
  157MOL    C9125363   5.016   0.565   5.474  0.6194 -0.6003 -0.1689
  157MOL    N9225364   4.923   0.488   5.396  0.2053 -0.2577  0.8741
  157MOL    H9325365   5.162   0.490   5.347 -2.7274  0.4325 -0.7347
  157MOL    H9425366   5.173   0.431   5.509 -0.3788  1.1484  1.9791
  157MOL    H9525367   5.011   0.660   5.422 -0.3452 -0.7970 -0.4446
  157MOL    H9625368   4.842   0.470   5.453  0.9469  0.4255  2.1652
  157MOL    H9725369   4.896   0.550   5.321  0.3875 -1.8929 -0.5738
  157MOL    C9825370   4.985   0.570   5.623  0.4425  0.7244 -0.3089
  157MOL    C9925371   4.847   0.628   5.668 -0.3041  0.5120  0.5433
  157MOL   N10025372   4.796   0.552   5.778  0.3406 -1.0577 -0.4586
  157MOL   H10125373   4.981   0.469   5.662 -0.9851  0.1569 -1.8822
  157MOL   H10225374   5.068   0.624   5.670 -1.9966  3.9822  0.4389
  157MOL   H10325375   4.776   0.601   5.590  4.0711 -1.7325 -2.9057
  157MOL   H10425376   4.869   0.538   5.847 -1.3892 -0.4636  1.5483
  157MOL   H10525377   4.765   0.460   5.750  0.0316 -0.7428 -1.1594
  157MOL   C10625378   4.838   0.780   5.705 -0.3525  0.6166  0.4603
  157MOL   C10725379   4.845   0.873   5.585  0.1477  0.2764  0.0864
  157MOL   N10825380   4.710   0.883   5.527 -0.0424 -0.3274 -0.4280
  157MOL   H10925381   4.749   0.809   5.761 -1.4952 -0.8257 -0.5465
  157MOL   H11025382   4.918   0.797   5.777 -1.0752  0.9845  1.1809
  157MOL   H11125383   4.902   0.821   5.508 -1.2595  0.6867 -1.2465
  157MOL   H11225384   4.651   0.938   5.588 -1.1591 -0.7385 -1.1117
  157MOL   H11325385   4.667   0.792   5.531  1.0576 -0.7799  2.3834
  157MOL   C11425386   4.895   1.017   5.609  0.4097  0.2893  0.1034
  157MOL   C11525387   5.029   1.038   5.681  0.3536 -0.0802 -0.7870
  157MOL   N11625388   5.121   1.095   5.590  0.3360  0.7113 -0.7585
  157MOL   H11725389   4.893   1.057   5.508 -1.6721 -0.2249 -0.0914
  157MOL   H11825390   4.807   1.070   5.648 -0.3754 -0.7747 -0.2037
  157MOL   H11925391   5.062   0.937   5.706 -2.9378 -0.6474  1.5775
  157MOL   H12025392   5.098   1.192   5.578 -1.7174 -0.0396 -3.4342
  157MOL   H12125393   5.116   1.055   5.497 -2.7419  0.0966 -0.3963
  157MOL   C12225394   5.026   1.126   5.801  0.0037  0.1259 -0.7068
  157MOL   C12325395   4.932   1.072   5.918  0.1997 -0.1924  0.0442
  157MOL   N12425396   4.993   0.962   5.986 -0.1940  0.7931  0.1027
  157MOL   H12525397   5.126   1.142   5.842  0.4189  0.8629 -2.0040
  157MOL   H12625398   4.991   1.224   5.772 -0.6320 -0.1149 -0.7501
  157MOL   H12725399   4.841   1.033   5.873 -0.5643  0.7906  0.7134
  157MOL   H12825400   4.927   0.912   6.044  0.8358 -1.1086 -0.3197
  157MOL   H12925401   5.030   0.887   5.929 -0.1639  0.4091  0.6251
  157MOL   C13025402   4.887   1.182   6.015  0.0325  0.5849  0.9285
  157MOL   C13125403   4.746   1.159   6.077 -0.2390 -0.5793 -0.3085
  157MOL   N13225404   4.751   1.209   6.217  0.0696 -0.1011 -0.7445
  157MOL   H13325405   4.963   1.202   6.090  2.4482 -1.9219 -0.7297
  157MOL   H13425406   4.881   1.279   5.966 -2.0590  0.4973  0.9697
  157MOL   H13525407   4.715   1.055   6.071  2.5555 -1.4415 -0.6962
  157MOL   H13625408   4.835   1.171   6.259  0.8104  1.5436 -0.6842
  157MOL   H13725409   4.684   1.167   6.279  0.1057  1.5028  0.4302
  157MOL   C13825410   4.638   1.235   6.006 -0.2137  0.1349 -0.1800
  157MOL   C13925411   4.632   1.216   5.851  0.1208 -0.1225 -0.3701
  157MOL   N14025412   4.596   1.075   5.834 -0.0342 -0.5880  0.1762
  157MOL   H14125413   4.541   1.201   6.043 -0.1911  0.8216  0.5161
  157MOL   H14225414   4.653   1.342   6.023  0.8285  0.3222 -2.1138
  157MOL   H14325415   4.728   1.236   5.803  1.4785 -2.1570  1.3687
  157MOL   H14425416   4.685   1.027   5.830 -0.6375 -1.6215 -1.9560
  157MOL   H14525417   4.558   1.032   5.917 -0.1871  1.3180  1.1200
  157MOL   C14625418   4.521   1.298   5.784 -0.5391 -0.1552  0.3684
  157MOL   C14725419   4.537   1.309   5.628  1.2953  0.3046 -0.5792
  157MOL   N14825420   4.398   1.323   5.575 -0.1161  0.8079  1.0678
  157MOL   H14925421   4.417   1.281   5.811 -0.7147 -0.5000 -0.4945
  157MOL   H15025422   4.533   1.399   5.822  1.6159  0.7681 -2.4948
  157MOL   H15125423   4.567   1.212   5.589  0.9200 -1.2307  2.7710
  157MOL   H15225424   4.349   1.244   5.615 -1.7617  1.1272 -0.2541
  157MOL   H15325425   4.398   1.298   5.478 -2.0069  0.0316  1.2475
  157MOL   C15425426   4.622   1.422   5.570  0.4403  0.1116 -0.2619
  157MOL   C15525427   4.774   1.418   5.600  0.0823 -0.3753  0.3312
  157MOL   N15625428   4.833   1.521   5.520  0.0056  0.2967  0.2785
  157MOL   H15725429   4.608   1.414   5.462  0.3261  1.3610 -0.3554
  157MOL   H15825430   4.584   1.518   5.605  1.1430 -0.1614  1.3006
  157MOL   H15925431   4.807   1.316   5.585  1.6796 -0.3137  3.1123
  157MOL   H16025432   4.897   1.569   5.581  0.8056  0.8282 -0.9547
  157MOL   H16125433   4.772   1.595   5.487 -0.2240 -0.4665 -1.0540
  157MOL   H16225434   4.788   1.438   5.706  3.9505 -0.7110 -0.0481
  158MOL     C125435   5.796   5.088   2.462  0.0591  0.1326  0.5619
  158MOL     C225436   5.713   4.974   2.515  0.0428  0.5461 -0.4743
  158MOL     N325437   5.731   4.855   2.436  0.0131  0.2085 -0.3975
  158MOL     H425438   5.900   5.062   2.444 -0.9685 -2.3282 -2.1269
  158MOL     H525439   5.790   5.171   2.533  0.4128  0.7762 -0.1559
  158MOL     H625440   5.609   5.002   2.504  0.5319  1.5870 -2.8263
  158MOL     H725441   5.728   4.879   2.338 -0.7917  3.0656  0.3037
  158MOL     H825442   5.830   4.842   2.451  0.2749 -0.9684 -2.9166
  158MOL     H925443   5.760   5.124   2.366 -0.9699 -0.7874  0.5995
  158MOL    C1025444   5.749   4.946   2.661 -0.5783 -0.2618 -0.2034
  158MOL    C1125445   5.695   5.048   2.764 -0.0310  0.3256  0.4143
  158MOL    N1225446   5.551   5.053   2.753 -0.5257 -0.1051 -0.1228
  158MOL    H1325447   5.705   4.853   2.698  0.3449 -0.4301  0.4910
  158MOL    H1425448   5.856   4.926   2.667  0.0487  2.6310 -1.1752
  158MOL    H1525449   5.730   5.149   2.742 -3.0252  1.9066  2.5539
  158MOL    H1625450   5.495   5.123   2.801  0.5267  1.4738 -1.1458
  158MOL    H1725451   5.528   5.062   2.655 -1.5976 -0.2551  0.1089
  158MOL    C1825452   5.747   5.019   2.902 -0.5645  0.1302  0.5621
  158MOL    C1925453   5.706   5.118   3.011  0.2330  0.3047 -0.1646
  158MOL    N2025454   5.571   5.078   3.060  0.5018 -0.0113 -0.8106
  158MOL    H2125455   5.715   4.919   2.929  0.7646 -0.8648 -1.4316
  158MOL    H2225456   5.855   5.008   2.895 -0.9143 -3.2547 -0.3539
  158MOL    H2325457   5.687   5.213   2.962 -2.0638  0.1751  0.4213
  158MOL    H2425458   5.519   5.078   2.973 -1.3729 -1.0383  0.3013
  158MOL    H2525459   5.565   4.981   3.086  0.6127 -0.5351 -2.6587
  158MOL    C2625460   5.802   5.135   3.130  0.0697 -0.1203  0.5412
  158MOL    C2725461   5.830   5.292   3.154 -0.1909  0.6750 -0.2231
  158MOL    N2825462   5.923   5.308   3.270  1.0244  0.2262  1.0288
  158MOL    H2925463   5.762   5.077   3.213 -1.2978  0.3857  0.2468
  158MOL    H3025464   5.899   5.096   3.098 -1.3237 -1.4882 -2.1117
  158MOL    H3125465   5.734   5.337   3.177 -0.8373  0.1896 -1.8945
  158MOL    H3225466   5.997   5.240   3.267  1.0290  0.3193 -2.4745
  158MOL    H3325467   5.967   5.399   3.268 -1.7914  1.6861  1.4895
  158MOL    C3425468   5.895   5.367   3.037  0.1986  0.3533  0.4141
  158MOL    C3525469   5.895   5.517   3.036 -0.4854  0.3237 -0.3211
  158MOL    N3625470   5.996   5.557   2.938 -0.2517 -0.3533  0.3362
  158MOL    H3725471   5.999   5.336   3.030  0.7846  2.4282 -0.6971
  158MOL    H3825472   5.842   5.341   2.946 -1.8454  1.8248  1.1486
  158MOL    H3925473   5.922   5.548   3.137  0.3497 -0.2223 -0.3673
  158MOL    H4025474   6.020   5.653   2.958 -0.9051  0.1742 -1.2930
  158MOL    H4125475   6.081   5.503   2.949 -1.0703 -1.6854  0.2487
  158MOL    C4225476   5.756   5.579   3.011 -1.0380 -1.3872 -0.0630
  158MOL    C4325477   5.727   5.725   3.062  0.3376 -0.4726  0.9013
  158MOL    N4425478   5.799   5.812   2.969  0.0555  0.2321 -0.3464
  158MOL    H4525479   5.717   5.559   2.911 -0.6589 -0.7126 -0.3485
  158MOL    H4625480   5.693   5.511   3.067 -1.9822 -2.4023 -2.3052
  158MOL    H4725481   5.760   5.739   3.165  0.4749 -0.2786  0.8312
  158MOL    H4825482   5.868   5.756   2.921  1.2113  1.5348 -0.2656
  158MOL    H4925483   5.854   5.884   3.016  1.2685 -0.3348 -0.8777
  158MOL    C5025484   5.574   5.758   3.050 -0.3053  0.0798  0.2937
  158MOL    C5125485   5.481   5.681   3.153  0.1196 -0.0357 -0.1187
  158MOL    N5225486   5.422   5.779   3.242  0.8906  0.3784  0.0890
  158MOL    H5325487   5.559   5.866   3.048  0.0442  0.0923 -2.8088
  158MOL    H5425488   5.550   5.729   2.948  0.9615 -1.2958  0.3703
  158MOL    H5525489   5.547   5.621   3.216  0.5585  0.7429  0.1614
  158MOL    H5625490   5.404   5.739   3.333  1.0649  0.8199  0.3201
  158MOL    H5725491   5.330   5.804   3.208  0.5723 -2.4102 -1.2700
  158MOL    C5825492   5.367   5.601   3.089  0.6711  0.0323 -0.0330
  158MOL    C5925493   5.321   5.493   3.191  0.5830  0.0837 -0.1640
  158MOL    N6025494   5.200   5.438   3.140  0.0553 -0.7022 -0.6148
  158MOL    H6125495   5.289   5.675   3.071 -0.1454 -0.5997  0.8568
  158MOL    H6225496   5.401   5.546   3.002  1.5108 -1.1193  1.0090
  158MOL    H6325497   5.288   5.548   3.279  0.1323 -0.2744 -0.1056
  158MOL    H6425498   5.148   5.397   3.216  0.7072  1.1682  0.8667
  158MOL    H6525499   5.143   5.517   3.113 -0.2657 -2.3774 -5.4946
  158MOL    C6625500   5.424   5.387   3.219 -0.4873 -0.1689 -0.4748
  158MOL    C6725501   5.385   5.279   3.319  0.0365 -0.4030  0.0623
  158MOL    N6825502   5.499   5.187   3.322 -0.3023  0.1596 -0.1478
  158MOL    H6925503   5.440   5.332   3.126 -0.9448 -0.1315 -0.5761
  158MOL    H7025504   5.520   5.434   3.240  0.1042 -1.5296 -0.0543
  158MOL    H7125505   5.303   5.215   3.287  0.5742 -1.2577  0.3708
  158MOL    H7225506   5.540   5.161   3.233  1.3552 -1.7909  1.1533
  158MOL    H7325507   5.574   5.229   3.375 -1.0147 -0.7336  1.6112
  158MOL    C7425508   5.366   5.324   3.469  0.1774  0.7703 -0.4487
  158MOL    C7525509   5.301   5.209   3.556  1.0238  0.2794  0.2181
  158MOL    N7625510   5.315   5.241   3.697 -0.0064  0.3443 -0.0881
  158MOL    H7725511   5.462   5.360   3.506  0.6043 -1.7641  1.0248
  158MOL    H7825512   5.292   5.404   3.472  0.0918  0.7393 -1.5534
  158MOL    H7925513   5.349   5.111   3.557  0.2536 -0.1201 -0.9746
  158MOL    H8025514   5.403   5.287   3.715  0.2503  0.2988 -1.1945
  158MOL    H8125515   5.241   5.309   3.708 -1.1259 -0.7819 -0.4662
  158MOL    C8225516   5.151   5.182   3.522  0.2161  0.1758 -0.3985
  158MOL    C8325517   5.112   5.028   3.538  0.2868  0.0056  0.1029
  158MOL    N8425518   4.995   5.027   3.624 -0.1770 -0.6940 -0.6706
  158MOL    H8525519   5.088   5.251   3.578  0.9976 -0.7776  1.7057
  158MOL    H8625520   5.127   5.209   3.420  0.3943 -1.2507 -0.8321
  158MOL    H8725521   5.181   4.962   3.589 -0.2459 -1.6371 -1.2341
  158MOL    H8825522   5.031   5.062   3.712 -1.3280 -1.6895  0.2276
  158MOL    H8925523   4.967   4.931   3.643  2.8338 -1.0501  2.3999
  158MOL    C9025524   5.076   4.948   3.416 -0.8356  0.2163  0.3205
  158MOL    C9125525   5.190   4.919   3.308 -0.6840  0.3839  0.0139
  158MOL    N9225526   5.270   4.802   3.343  0.0882 -0.8619 -0.0489
  158MOL    H9325527   5.028   4.851   3.427  1.7849 -1.7428 -4.2145
  158MOL    H9425528   5.008   5.015   3.363  0.5264  1.2026 -0.2159
  158MOL    H9525529   5.263   5.000   3.298 -1.9341  1.5660  0.2871
  158MOL    H9625530   5.214   4.722   3.367 -1.5058 -0.3041 -1.7491
  158MOL    H9725531   5.331   4.830   3.419 -1.5781 -0.4413  1.1661
  158MOL    C9825532   5.143   4.896   3.157  0.1396  0.0455  0.5008
  158MOL    C9925533   5.118   5.030   3.084  0.3194  0.2142  0.6276
  158MOL   N10025534   5.242   5.077   3.027  0.0719  0.1964  0.3502
  158MOL   H10125535   5.227   4.848   3.106 -1.6582 -1.1743 -1.4011
  158MOL   H10225536   5.058   4.829   3.150  0.6351 -0.4236 -1.1429
  158MOL   H10325537   5.086   5.112   3.149 -0.9172 -1.2642  1.9431
  158MOL   H10425538   5.325   5.055   3.080  0.4776  0.7061 -0.0625
  158MOL   H10525539   5.244   5.178   3.029 -0.2649  0.1720  2.1324
  158MOL   C10625540   5.020   5.018   2.960  0.2430  0.4456  0.5750
  158MOL   C10725541   4.882   5.068   2.998  0.4347 -0.0755 -0.3372
  158MOL   N10825542   4.889   5.214   2.985  0.5679 -0.0088 -0.5790
  158MOL   H10925543   5.061   5.072   2.875  0.1983 -0.4553 -0.0186
  158MOL   H11025544   5.019   4.917   2.920 -0.4228  0.7909 -0.2934
  158MOL   H11125545   4.864   5.041   3.102  0.4326  0.4349 -0.2062
  158MOL   H11225546   4.914   5.239   2.891 -0.8140  0.0311 -0.9539
  158MOL   H11325547   4.801   5.261   3.002  0.9609  0.0945  1.3698
  158MOL   C11425548   4.770   4.997   2.920  0.0914 -0.4418 -0.5565
  158MOL   C11525549   4.754   4.845   2.958 -0.5410  0.8667  0.0733
  158MOL   N11625550   4.660   4.840   3.074  0.0481  1.0349  0.2061
  158MOL   H11725551   4.675   5.047   2.939  0.6911 -0.0811  1.6557
  158MOL   H11825552   4.794   4.996   2.813  1.0370 -0.5896 -0.3453
  158MOL   H11925553   4.843   4.792   2.991 -2.3693 -1.0325  2.1109
  158MOL   H12025554   4.648   4.743   3.100  1.6623  0.8702  0.4076
  158MOL   H12125555   4.712   4.878   3.152  0.6795 -1.4272  1.0270
  158MOL   C12225556   4.683   4.762   2.844 -0.9587  0.5158 -0.1139
  158MOL   C12325557   4.768   4.726   2.719  0.3320 -0.1182 -0.3288
  158MOL   N12425558   4.846   4.610   2.746 -0.4489 -0.4222  0.4496
  158MOL   H12525559   4.629   4.674   2.878 -0.7185  0.1664 -0.6238
  158MOL   H12625560   4.610   4.831   2.802 -1.2811 -1.0915 -2.3282
  158MOL   H12725561   4.843   4.803   2.698  3.1334 -2.2122  1.5409
  158MOL   H12825562   4.853   4.607   2.847  2.1965 -0.5847  0.2941
  158MOL   H12925563   4.940   4.616   2.710 -1.6721  1.3883 -2.6329
  158MOL   C13025564   4.676   4.692   2.599 -0.2029  0.3298  0.0417
  158MOL   C13125565   4.728   4.754   2.473 -0.2929 -0.5377  0.2562
  158MOL   N13225566   4.672   4.679   2.356  0.2678  0.4364 -0.7861
  158MOL   H13325567   4.668   4.584   2.589  0.6997  0.3584 -1.1608
  158MOL   H13425568   4.577   4.737   2.603 -1.1350 -1.6289 -0.4322
  158MOL   H13525569   4.837   4.753   2.471 -0.2293 -0.3058  2.8051
  158MOL   H13625570   4.695   4.583   2.376 -0.3562  0.1244 -1.5374
  158MOL   H13725571   4.710   4.704   2.266  0.5763  2.4046 -0.1229
  158MOL   C13825572   4.679   4.902   2.454 -0.0009  0.3228  0.8259
  158MOL   C13925573   4.711   5.018   2.550 -0.0645  0.0847  0.1380
  158MOL   N14025574   4.854   5.024   2.559 -0.2433 -0.4362  0.7066
  158MOL   H14125575   4.708   4.930   2.353  0.4188  1.1744  1.1839
  158MOL   H14225576   4.570   4.898   2.455 -0.1382  3.1994  2.5927
  158MOL   H14325577   4.664   4.998   2.646  0.4163  1.3215  0.6387
  158MOL   H14425578   4.887   5.041   2.653 -0.3290  0.3423  0.6056
  158MOL   H14525579   4.885   4.940   2.513  2.4420  0.2450  1.2310
  158MOL   C14625580   4.664   5.159   2.502 -0.0646 -0.3724 -0.6621
  158MOL   C14725581   4.517   5.181   2.530  0.0675  0.0575  0.1205
  158MOL   N14825582   4.514   5.289   2.626 -0.1424 -0.7936  0.2322
  158MOL   H14925583   4.724   5.239   2.545 -0.8902 -0.0668 -0.0694
  158MOL   H15025584   4.685   5.165   2.395 -2.8077  0.7299 -1.1739
  158MOL   H15125585   4.479   5.086   2.568  0.7911 -0.8580 -1.4138
  158MOL   H15225586   4.559   5.258   2.711  0.5715  1.0471  0.5537
  158MOL   H15325587   4.572   5.368   2.601  0.2218 -1.4226 -0.9107
  158MOL   C15425588   4.432   5.223   2.411  0.1239  0.2011 -0.6108
  158MOL   C15525589   4.426   5.115   2.309  0.6835 -0.1887 -0.0651
  158MOL   N15625590   4.305   5.120   2.228  0.1844 -0.0704 -0.1485
  158MOL   H15725591   4.337   5.249   2.457  0.2998  1.4282 -0.8940
  158MOL   H15825592   4.476   5.313   2.366 -0.9919  1.5816  1.0047
  158MOL   H15925593   4.406   5.023   2.364 -3.7291 -0.5581 -2.0888
  158MOL   H16025594   4.263   5.029   2.218 -1.8233  0.7147  0.8304
  158MOL   H16125595   4.232   5.167   2.280 -1.6719 -0.5972 -2.2311
  158MOL   H16225596   4.517   5.102   2.251  1.1236  0.6737  0.4132
  159MOL     C125597   2.121   4.073   6.628 -0.0786  0.6212 -0.4819
  159MOL     C225598   2.083   3.996   6.761 -0.3662 -0.2928  0.0814
  159MOL     N325599   2.095   3.852   6.746 -0.1566 -0.6665  0.7376
  159MOL     H425600   2.230   4.081   6.628 -0.0183 -0.0532  0.4729
  159MOL     H525601   2.084   4.173   6.609  0.0673  1.3024  2.4832
  159MOL     H625602   1.978   4.022   6.773 -0.5681 -1.5167  0.9757
  159MOL     H725603   2.194   3.835   6.736  0.4125  2.1764  0.9003
  159MOL     H825604   2.051   3.825   6.660  0.8985  0.7868 -0.2948
  159MOL     H925605   2.093   4.021   6.537  0.5408 -3.8366  1.7401
  159MOL    C1025606   2.162   4.041   6.886  0.3481  0.0370  0.1037
  159MOL    C1125607   2.142   4.197   6.925  0.1111  0.7508  1.0239
  159MOL    N1225608   2.169   4.223   7.059  0.0712  0.2390 -0.9983
  159MOL    H1325609   2.129   3.985   6.973  2.2898 -0.5703  0.4707
  159MOL    H1425610   2.268   4.016   6.885  0.1172 -0.9406 -0.6709
  159MOL    H1525611   2.037   4.222   6.906 -0.0438 -0.5116  0.1754
  159MOL    H1625612   2.161   4.323   7.063 -1.3474  0.1279 -0.6669
  159MOL    H1725613   2.087   4.211   7.118  1.0348 -0.1411  0.3004
  159MOL    C1825614   2.227   4.294   6.842 -0.5503 -0.0686  0.1412
  159MOL    C1925615   2.373   4.260   6.814 -0.2246 -0.7361  0.6562
  159MOL    N2025616   2.441   4.364   6.738  0.3951  0.4273  0.2113
  159MOL    H2125617   2.166   4.318   6.755 -1.0209 -0.9545  0.2257
  159MOL    H2225618   2.216   4.395   6.881 -1.8634  0.7021 -2.1126
  159MOL    H2325619   2.378   4.167   6.758 -1.1113 -1.1670  1.2728
  159MOL    H2425620   2.528   4.330   6.699 -0.9020 -2.2093 -0.4300
  159MOL    H2525621   2.471   4.443   6.795  0.1065 -0.7312  2.0086
  159MOL    C2625622   2.465   4.236   6.945  0.2850 -0.1574 -0.3398
  159MOL    C2725623   2.603   4.172   6.915  0.5547  0.0577  0.1321
  159MOL    N2825624   2.670   4.165   7.042 -0.1157  0.0633  0.7803
  159MOL    H2925625   2.481   4.325   7.006 -0.7743  0.6844 -1.2688
  159MOL    H3025626   2.418   4.164   7.012  0.6356  0.9290  1.0904
  159MOL    H3125627   2.658   4.249   6.861  2.9147 -1.1854  0.6884
  159MOL    H3225628   2.766   4.137   7.024 -0.8996 -2.9387  0.9104
  159MOL    H3325629   2.628   4.088   7.093 -3.3208  0.3501 -1.3218
  159MOL    C3425630   2.595   4.033   6.846  0.0075  0.0602  0.1276
  159MOL    C3525631   2.635   4.035   6.689  0.5824  0.0681  0.4522
  159MOL    N3625632   2.772   4.092   6.679 -0.0678  0.2652  0.1143
  159MOL    H3725633   2.669   3.970   6.896  0.6865  1.2105  0.5930
  159MOL    H3825634   2.493   3.996   6.863  0.3030 -0.1264  1.5730
  159MOL    H3925635   2.567   4.104   6.639  1.5422 -0.7149 -1.9930
  159MOL    H4025636   2.813   4.052   6.596  1.4776  0.6888  0.6541
  159MOL    H4125637   2.761   4.187   6.649  0.9908 -0.3264 -2.2361
  159MOL    C4225638   2.644   3.895   6.635 -0.5121  0.0379 -0.7563
  159MOL    C4325639   2.511   3.827   6.590  0.1070  0.2739 -0.5789
  159MOL    N4425640   2.436   3.768   6.701  0.2129  0.0106 -0.5710
  159MOL    H4525641   2.714   3.903   6.552 -0.8993  0.5161 -1.0421
  159MOL    H4625642   2.680   3.826   6.711 -2.9900 -3.0986 -2.2888
  159MOL    H4725643   2.545   3.738   6.537  0.0856  0.0062 -0.1426
  159MOL    H4825644   2.506   3.704   6.738 -2.9062 -1.9709  2.1577
  159MOL    H4925645   2.422   3.835   6.776  1.4747  1.2203 -1.4010
  159MOL    C5025646   2.420   3.911   6.501 -0.9548  0.3337 -0.0114
  159MOL    C5125647   2.471   3.919   6.356 -0.4931  0.0473 -0.0762
  159MOL    N5225648   2.439   3.800   6.277  0.4597  0.3718  0.6248
  159MOL    H5325649   2.318   3.872   6.499 -1.2043  0.9939 -0.3399
  159MOL    H5425650   2.402   4.015   6.528 -3.0106  0.2156 -0.8084
  159MOL    H5525651   2.578   3.937   6.371 -0.8580  1.7604  0.6578
  159MOL    H5625652   2.471   3.788   6.182  0.3168 -0.4715  0.6729
  159MOL    H5725653   2.455   3.708   6.316  2.8357 -0.6826 -2.5770
  159MOL    C5825654   2.407   4.034   6.286 -0.6286 -0.7340  0.3026
  159MOL    C5925655   2.499   4.085   6.175 -0.3765 -0.1901 -0.7983
  159MOL    N6025656   2.418   4.146   6.070 -0.6912  0.0331  0.2922
  159MOL    H6125657   2.307   4.004   6.257 -1.3404  2.1241 -0.3892
  159MOL    H6225658   2.394   4.122   6.349  0.3855  0.7110 -1.4422
  159MOL    H6325659   2.555   4.010   6.119 -2.0777 -1.5490 -0.7261
  159MOL    H6425660   2.360   4.073   6.033 -0.3783 -0.1718  0.2051
  159MOL    H6525661   2.373   4.227   6.111  1.2626  2.3030 -1.8673
  159MOL    C6625662   2.595   4.203   6.211 -0.5352  0.6374 -0.4189
  159MOL    C6725663   2.696   4.176   6.330  0.3341 -0.4036  0.4891
  159MOL    N6825664   2.798   4.078   6.293  0.8147  0.0103  0.0150
  159MOL    H6925665   2.657   4.247   6.133 -2.1492 -1.0925 -2.7611
  159MOL    H7025666   2.538   4.285   6.254  1.7068  2.1412 -0.2453
  159MOL    H7125667   2.640   4.140   6.416 -2.4890  1.3986 -0.5420
  159MOL    H7225668   2.856   4.106   6.215  1.9738 -1.8787  0.1720
  159MOL    H7325669   2.753   3.996   6.254  2.3792 -0.9979  0.2817
  159MOL    C7425670   2.767   4.312   6.363  0.1498 -0.1440 -0.2235
  159MOL    C7525671   2.678   4.411   6.451 -0.4357  0.0911  0.9490
  159MOL    N7625672   2.708   4.384   6.590  0.4998  0.3180  0.0031
  159MOL    H7725673   2.859   4.285   6.414  0.1135 -2.7151 -1.4663
  159MOL    H7825674   2.794   4.352   6.265  2.9871  0.3117  0.7001
  159MOL    H7925675   2.570   4.401   6.448 -0.3961 -1.5833  3.4107
  159MOL    H8025676   2.657   4.444   6.654  2.1422  0.7711  0.9123
  159MOL    H8125677   2.802   4.418   6.601  0.6823  0.2056 -1.1866
  159MOL    C8225678   2.717   4.555   6.426 -0.5973  0.6590  0.2364
  159MOL    C8325679   2.680   4.610   6.282 -0.3706  0.6740 -0.1672
  159MOL    N8425680   2.549   4.560   6.249  0.0480 -0.4495 -0.5351
  159MOL    H8525681   2.656   4.616   6.493 -3.4691 -3.0630  1.1833
  159MOL    H8625682   2.822   4.574   6.449 -0.8580  0.9233  1.2275
  159MOL    H8725683   2.752   4.570   6.210 -0.6603 -3.0760  1.4977
  159MOL    H8825684   2.578   4.469   6.215  3.5692  0.6937 -0.8143
  159MOL    H8925685   2.506   4.594   6.165 -1.6024  1.7014  1.1103
  159MOL    C9025686   2.695   4.769   6.276  1.3724  0.2090  0.2622
  159MOL    C9125687   2.635   4.849   6.155  0.2058 -0.2043  0.2020
  159MOL    N9225688   2.491   4.862   6.182 -0.1444  0.1303  0.2411
  159MOL    H9325689   2.637   4.809   6.359  1.2204  1.5864 -0.4956
  159MOL    H9425690   2.800   4.792   6.297  0.7548  2.2997  1.1614
  159MOL    H9525691   2.631   4.783   6.069  0.9703 -1.4832  1.1266
  159MOL    H9625692   2.477   4.937   6.248  0.0463  0.5186 -0.1519
  159MOL    H9725693   2.467   4.780   6.235 -1.2681 -0.1465 -0.6641
  159MOL    C9825694   2.702   4.984   6.127 -0.3772 -0.1694 -0.1171
  159MOL    C9925695   2.675   5.036   5.980  0.0692  0.5882 -0.3209
  159MOL   N10025696   2.722   5.175   5.967 -0.0504 -0.2791 -0.0119
  159MOL   H10125697   2.672   5.063   6.196 -1.3102  0.1360 -0.8555
  159MOL   H10225698   2.810   4.968   6.130 -0.0075  2.2746  0.8180
  159MOL   H10325699   2.568   5.047   5.962  0.3210  1.2755 -1.4629
  159MOL   H10425700   2.659   5.222   5.904 -0.7961  0.7886  1.4979
  159MOL   H10525701   2.700   5.225   6.052  0.7595  0.3748 -0.1858
  159MOL   C10625702   2.752   4.948   5.878  0.2889  0.1245  0.2698
  159MOL   C10725703   2.697   4.966   5.732 -0.7008  0.3987 -1.0772
  159MOL   N10825704   2.815   4.974   5.647  0.2730 -0.1232  0.0841
  159MOL   H10925705   2.856   4.977   5.890  0.3872  1.4000 -3.2507
  159MOL   H11025706   2.763   4.845   5.912  1.0500 -1.0315 -3.2513
  159MOL   H11125707   2.634   5.053   5.719  1.1431  1.5815 -2.4087
  159MOL   H11225708   2.855   5.063   5.669 -0.8602  0.9206 -1.8753
  159MOL   H11325709   2.808   4.969   5.546  0.6830  0.9260  0.0017
  159MOL   C11425710   2.616   4.847   5.680 -0.5229 -0.1855 -0.1593
  159MOL   C11525711   2.483   4.819   5.741 -0.1228  0.1982  0.3186
  159MOL   N11625712   2.385   4.904   5.685 -0.0789  0.1851  0.0324
  159MOL   H11725713   2.604   4.867   5.574  1.3322  1.7843 -0.0204
  159MOL   H11825714   2.688   4.765   5.692  0.2925  0.3203 -1.5165
  159MOL   H11925715   2.486   4.846   5.847  0.9512  0.9140  0.1118
  159MOL   H12025716   2.400   4.892   5.585 -1.1147 -1.2225  0.0260
  159MOL   H12125717   2.406   5.001   5.702  1.0789 -0.2878  1.3843
  159MOL   C12225718   2.442   4.673   5.737  0.1800  0.0640  0.8237
  159MOL   C12325719   2.502   4.587   5.853 -0.0633 -0.0301 -0.1944
  159MOL   N12425720   2.429   4.608   5.977  0.6593 -0.2826  0.1702
  159MOL   H12525721   2.335   4.649   5.731 -0.1016  1.0461  1.7117
  159MOL   H12625722   2.464   4.631   5.639  2.0321  3.3447 -0.2143
  159MOL   H12725723   2.602   4.624   5.876  0.7297 -1.7049 -0.8609
  159MOL   H12825724   2.333   4.578   5.980  0.4815  0.3738  1.0716
  159MOL   H12925725   2.426   4.708   5.989  0.7461 -0.2801  0.1722
  159MOL   C13025726   2.503   4.437   5.819  0.4093  1.2486  0.2046
  159MOL   C13125727   2.628   4.352   5.860 -0.4481  0.3355  0.1376
  159MOL   N13225728   2.605   4.208   5.868 -0.4019  0.1795  0.4092
  159MOL   H13325729   2.414   4.403   5.873  0.1038  0.1195 -0.9878
  159MOL   H13425730   2.482   4.422   5.713  1.9838  0.2838  0.0219
  159MOL   H13525731   2.659   4.376   5.962  0.3868  2.0471 -0.5027
  159MOL   H13625732   2.537   4.203   5.943 -0.4048  2.7845  0.6148
  159MOL   H13725733   2.552   4.204   5.782 -0.1618 -0.3526  0.2851
  159MOL   C13825734   2.741   4.387   5.767  0.0739  0.9357 -0.4157
  159MOL   C13925735   2.883   4.310   5.784  0.0689  0.3713 -0.7114
  159MOL   N14025736   2.963   4.333   5.669 -0.2424 -0.5724  0.0685
  159MOL   H14125737   2.712   4.368   5.664 -1.6793 -2.6979  0.6758
  159MOL   H14225738   2.762   4.494   5.768 -0.7403  1.0951  0.0120
  159MOL   H14325739   2.871   4.203   5.798  2.1801 -0.1397 -2.4985
  159MOL   H14425740   3.038   4.269   5.691  0.2780 -0.1618 -0.5185
  159MOL   H14525741   2.902   4.299   5.596  0.9101  0.1585 -1.2536
  159MOL   C14625742   2.980   4.370   5.892  0.4384  0.0571  0.1725
  159MOL   C14725743   2.945   4.340   6.036  0.2113 -0.7532 -0.4667
  159MOL   N14825744   2.910   4.194   6.038 -0.5500  0.0475  0.1014
  159MOL   H14925745   3.082   4.333   5.886  1.0487  1.8388 -0.6664
  159MOL   H15025746   2.976   4.479   5.894 -0.2956  0.0886 -1.7662
  159MOL   H15125747   2.848   4.384   6.056  0.2923 -0.2660 -1.1092
  159MOL   H15225748   2.812   4.191   6.017 -0.3703  2.8677 -1.2957
  159MOL   H15325749   2.970   4.140   5.977 -0.8262 -0.2245  0.0672
  159MOL   C15425750   3.051   4.379   6.138 -0.4932 -0.0011 -0.5969
  159MOL   C15525751   3.082   4.526   6.130 -0.1843 -0.6260 -0.2498
  159MOL   N15625752   3.219   4.569   6.177 -0.3750 -0.2588  0.7821
  159MOL   H15725753   3.020   4.349   6.237 -1.2657 -0.8848 -1.1009
  159MOL   H15825754   3.134   4.314   6.110 -0.4204 -0.5895  0.9474
  159MOL   H15925755   3.013   4.589   6.186  2.2271  3.5311 -1.7218
  159MOL   H16025756   3.226   4.557   6.277  2.3466  3.7935  1.2293
  159MOL   H16125757   3.204   4.667   6.161 -2.0879 -0.6379 -0.0176
  159MOL   H16225758   3.065   4.575   6.034  0.5581  0.1421  0.0145
  160MOL     C125759   4.477   0.741   6.272  0.6357 -0.0017  0.4247
  160MOL     C225760   4.388   0.857   6.256  0.3852  0.1332 -0.6659
  160MOL     N325761   4.443   0.929   6.144 -0.0397 -0.6289  0.4703
  160MOL     H425762   4.580   0.771   6.290  1.0481 -0.6400 -0.7926
  160MOL     H525763   4.479   0.684   6.179  0.2501 -0.0426  0.4420
  160MOL     H625764   4.382   0.923   6.343 -2.7632 -0.6943 -0.2106
  160MOL     H725765   4.407   1.024   6.149 -2.3225 -1.3829 -0.9810
  160MOL     H825766   4.389   0.902   6.063 -0.7271  0.2637  0.6157
  160MOL     H925767   4.450   0.677   6.356  3.1591 -2.8854 -0.8212
  160MOL    C1025768   4.243   0.810   6.234  0.4177 -0.5835 -0.0201
  160MOL    C1125769   4.134   0.920   6.266  0.2075  0.0567 -0.4505
  160MOL    N1225770   4.021   0.873   6.196  0.0611 -0.3949  0.1147
  160MOL    H1325771   4.234   0.764   6.136  0.0222 -2.3215  0.7973
  160MOL    H1425772   4.220   0.724   6.298  2.8107 -1.3062 -0.1016
  160MOL    H1525773   4.171   1.011   6.219 -0.5051  0.7404  0.2825
  160MOL    H1625774   3.957   0.949   6.177 -0.1143 -0.9187 -1.4706
  160MOL    H1725775   3.969   0.815   6.261 -2.0113  0.9271 -0.3249
  160MOL    C1825776   4.108   0.926   6.414 -0.2115  0.0031 -0.6147
  160MOL    C1925777   4.038   1.055   6.454  0.1837  0.4750  0.1685
  160MOL    N2025778   4.012   1.051   6.599  0.6413  0.0972  0.5582
  160MOL    H2125779   4.047   0.840   6.442  1.0392 -0.6174  0.2440
  160MOL    H2225780   4.199   0.925   6.474 -1.1966 -1.1022  0.9071
  160MOL    H2325781   3.939   1.066   6.409  0.2693  1.0018  0.1099
  160MOL    H2425782   3.981   0.959   6.629  1.9464 -0.4739  0.1913
  160MOL    H2525783   3.933   1.111   6.621 -0.2489 -0.6356 -0.5419
  160MOL    C2625784   4.110   1.192   6.436 -0.0846 -0.2751 -0.3814
  160MOL    C2725785   4.083   1.258   6.294  0.2294 -0.5165  0.0846
  160MOL    N2825786   3.945   1.288   6.266  0.1070  0.9898 -0.1762
  160MOL    H2925787   4.086   1.276   6.502  0.1296 -1.0315  0.6792
  160MOL    H3025788   4.217   1.176   6.437  0.0319  0.4386 -0.9704
  160MOL    H3125789   4.111   1.195   6.210  0.9963  1.0704 -0.8696
  160MOL    H3225790   3.941   1.376   6.316  0.8362  1.8467 -1.5905
  160MOL    H3325791   3.884   1.231   6.321  1.1661 -0.8898 -0.8945
  160MOL    C3425792   4.178   1.384   6.291 -0.0173  0.8412  0.6730
  160MOL    C3525793   4.326   1.349   6.275 -0.1192  0.4029 -0.8672
  160MOL    N3625794   4.356   1.229   6.197  0.3506 -0.3717  0.7040
  160MOL    H3725795   4.148   1.437   6.200  1.9577 -0.5731 -0.8490
  160MOL    H3825796   4.158   1.455   6.371 -1.2189  0.8092  0.4113
  160MOL    H3925797   4.368   1.338   6.375  0.2334  0.3437 -1.0214
  160MOL    H4025798   4.437   1.257   6.143 -1.9963  0.8246 -2.3806
  160MOL    H4125799   4.282   1.211   6.130 -1.3340  0.5314  2.3069
  160MOL    C4225800   4.413   1.455   6.200  0.0125  0.4172  0.0251
  160MOL    C4325801   4.416   1.598   6.253  0.2143  0.2123  0.4674
  160MOL    N4425802   4.542   1.661   6.207 -0.3652  0.6255 -0.2566
  160MOL    H4525803   4.509   1.404   6.209 -1.2184 -1.7903  1.2268
  160MOL    H4625804   4.387   1.457   6.094 -0.1079  2.2791  0.0750
  160MOL    H4725805   4.420   1.594   6.361  2.2687  1.1518  0.4633
  160MOL    H4825806   4.557   1.649   6.108 -2.5366 -0.0793 -0.5316
  160MOL    H4925807   4.547   1.761   6.217 -0.0361  0.4937  0.9760
  160MOL    C5025808   4.305   1.689   6.205 -0.5966 -0.0824  0.4160
  160MOL    C5125809   4.302   1.823   6.280  0.5073 -0.3154 -0.0844
  160MOL    N5225810   4.252   1.938   6.195 -0.1272 -0.8045  0.2279
  160MOL    H5325811   4.302   1.708   6.098  0.6426  0.3912  0.4495
  160MOL    H5425812   4.212   1.632   6.214 -1.1549  0.9795  1.4968
  160MOL    H5525813   4.403   1.856   6.303 -0.1441  0.9270  1.1310
  160MOL    H5625814   4.330   1.975   6.142 -0.2335 -0.3654  0.3742
  160MOL    H5725815   4.231   2.018   6.252  0.4722  1.2654 -2.3208
  160MOL    C5825816   4.212   1.814   6.405 -0.0240 -0.0589  0.4296
  160MOL    C5925817   4.258   1.894   6.527 -0.4256  0.4124  0.1746
  160MOL    N6025818   4.150   1.888   6.626 -0.2792 -0.0223 -0.2427
  160MOL    H6125819   4.110   1.843   6.379  0.4909  2.8549  1.4769
  160MOL    H6225820   4.206   1.709   6.434  3.0534 -1.0068 -2.0645
  160MOL    H6325821   4.266   1.998   6.498 -1.9455  0.5549  0.2240
  160MOL    H6425822   4.181   1.914   6.718 -1.8398  3.3141 -0.6078
  160MOL    H6525823   4.127   1.792   6.649  2.5175 -0.5818  0.3636
  160MOL    C6625824   4.388   1.835   6.589 -0.6090  0.5948  0.0934
  160MOL    C6725825   4.460   1.935   6.691 -0.6022  0.1051  0.8241
  160MOL    N6825826   4.414   1.900   6.825 -0.2573 -0.0632  0.7976
  160MOL    H6925827   4.357   1.743   6.638 -3.2163 -0.3733 -3.1832
  160MOL    H7025828   4.454   1.807   6.507 -0.7828 -1.0667  0.5011
  160MOL    H7125829   4.424   2.038   6.686 -0.1558  0.2836  1.2652
  160MOL    H7225830   4.459   1.822   6.870  0.6286  0.3932  0.7215
  160MOL    H7325831   4.434   1.977   6.887 -1.2029 -0.8372  2.0847
  160MOL    C7425832   4.616   1.924   6.695 -0.0274 -0.1223  0.9779
  160MOL    C7525833   4.692   2.023   6.609  0.3055  1.0717  0.0711
  160MOL    N7625834   4.835   2.020   6.648 -0.5037  0.5922  0.2657
  160MOL    H7725835   4.638   1.963   6.795 -0.7884  0.7804  0.8050
  160MOL    H7825836   4.645   1.820   6.679 -1.1452 -0.1472 -0.9137
  160MOL    H7925837   4.651   2.123   6.627 -2.2524  0.0480  0.1487
  160MOL    H8025838   4.839   2.056   6.743 -1.1448  0.1676  0.4572
  160MOL    H8125839   4.882   2.090   6.592  0.9933 -0.1367  0.5847
  160MOL    C8225840   4.684   1.997   6.457  0.0202 -0.5426 -0.2800
  160MOL    C8325841   4.741   2.115   6.371 -0.4391 -0.3245  0.0669
  160MOL    N8425842   4.889   2.126   6.373  0.0030 -0.0186  1.0629
  160MOL    H8525843   4.714   1.895   6.433 -0.3093 -1.0562  1.3894
  160MOL    H8625844   4.582   1.988   6.419 -0.5858 -0.4578  1.2815
  160MOL    H8725845   4.705   2.211   6.409  0.1361 -0.5348  1.1733
  160MOL    H8825846   4.920   2.044   6.323  0.6165  1.6317 -1.3568
  160MOL    H8925847   4.915   2.201   6.310  1.5193 -0.4418  1.1585
  160MOL    C9025848   4.693   2.099   6.223 -0.3404  0.4497 -0.1913
  160MOL    C9125849   4.726   2.209   6.123  0.6911  0.0774 -0.8135
  160MOL    N9225850   4.673   2.165   5.997  0.0367  0.2026 -0.1866
  160MOL    H9325851   4.733   2.010   6.174 -1.8969  0.4432 -1.4908
  160MOL    H9425852   4.585   2.091   6.222 -0.4215  1.4035 -2.7528
  160MOL    H9525853   4.833   2.218   6.105  1.2102 -1.0895  1.5780
  160MOL    H9625854   4.693   2.238   5.930  1.9481 -0.4522 -0.3632
  160MOL    H9725855   4.715   2.078   5.967  2.5425  1.2189  0.2403
  160MOL    C9825856   4.665   2.342   6.167 -0.3037 -0.3891  0.9651
  160MOL    C9925857   4.667   2.446   6.058  0.2218  1.3933 -0.5029
  160MOL   N10025858   4.623   2.568   6.121  0.2211  0.4180 -0.4138
  160MOL   H10125859   4.569   2.336   6.218 -0.6021  1.4877  0.6618
  160MOL   H10225860   4.742   2.378   6.235  1.2577 -0.9221 -0.5053
  160MOL   H10325861   4.601   2.416   5.977  0.7627 -0.2230 -0.3630
  160MOL   H10425862   4.560   2.541   6.195  1.0422 -1.7013 -0.4213
  160MOL   H10525863   4.699   2.594   6.182 -0.5276 -1.3210  1.3329
  160MOL   C10625864   4.815   2.476   6.006 -0.2742 -0.0540 -0.4749
  160MOL   C10725865   4.839   2.581   5.897 -0.3649  0.5132  0.1784
  160MOL   N10825866   4.817   2.705   5.970 -0.2278 -0.0726  0.3605
  160MOL   H10925867   4.889   2.484   6.086 -1.7021 -1.7711  1.0542
  160MOL   H11025868   4.844   2.384   5.955  1.8693 -0.2240  0.9826
  160MOL   H11125869   4.754   2.570   5.829 -0.8355 -1.7324  1.0964
  160MOL   H11225870   4.741   2.694   6.036 -0.3754  1.6177  0.4990
  160MOL   H11325871   4.891   2.717   6.037 -0.3741  0.8464  0.3767
  160MOL   C11425872   4.978   2.589   5.814 -0.4850 -0.3401  0.3849
  160MOL   C11525873   4.984   2.659   5.671  0.4226 -0.0836 -0.2294
  160MOL   N11625874   5.124   2.705   5.674 -0.3254 -0.2920  0.0689
  160MOL   H11725875   5.056   2.624   5.880  1.0918 -1.5282 -0.7961
  160MOL   H11825876   4.997   2.482   5.815  1.0479 -0.0804 -0.2720
  160MOL   H11925877   4.915   2.743   5.660 -0.7724 -1.1628 -1.1517
  160MOL   H12025878   5.150   2.659   5.588  2.2357  2.0943 -0.4844
  160MOL   H12125879   5.176   2.660   5.748 -4.1184 -2.2627  1.6884
  160MOL   C12225880   4.960   2.562   5.543 -0.1157 -0.0936 -0.6717
  160MOL   C12325881   4.810   2.535   5.506 -0.8923 -0.7035 -0.4446
  160MOL   N12425882   4.773   2.544   5.362  0.1200  1.1177 -0.7196
  160MOL   H12525883   5.001   2.623   5.463  0.5025 -1.1826 -1.1930
  160MOL   H12625884   5.018   2.470   5.538 -0.3296 -0.1700 -1.9693
  160MOL   H12725885   4.754   2.609   5.563  0.7363 -0.0690  0.3293
  160MOL   H12825886   4.778   2.644   5.346  2.9936  0.9028 -1.5272
  160MOL   H12925887   4.673   2.535   5.357  0.3123 -1.5376 -0.5131
  160MOL   C13025888   4.767   2.406   5.570  0.2702  0.6564  0.4593
  160MOL   C13125889   4.621   2.353   5.556 -0.2719 -0.1170  0.3371
  160MOL   N13225890   4.610   2.208   5.598 -0.0302 -0.0167  0.1468
  160MOL   H13325891   4.826   2.329   5.520 -0.0829  1.0989 -0.6612
  160MOL   H13425892   4.804   2.402   5.673  0.5328 -2.6204  0.2910
  160MOL   H13525893   4.589   2.342   5.452  1.9780 -3.5742 -0.1183
  160MOL   H13625894   4.516   2.175   5.616 -1.1732  1.9995 -1.9209
  160MOL   H13725895   4.653   2.138   5.539 -1.9379  1.4166 -3.1184
  160MOL   C13825896   4.526   2.433   5.638  0.2477 -0.5418 -0.1615
  160MOL   C13925897   4.461   2.561   5.580 -0.1661  0.0515  0.9270
  160MOL   N14025898   4.381   2.526   5.466 -0.1350  0.3398 -0.1787
  160MOL   H14125899   4.442   2.370   5.668 -0.2761  0.2635  0.0937
  160MOL   H14225900   4.580   2.462   5.727 -2.1536  1.9143  0.5948
  160MOL   H14325901   4.533   2.629   5.533 -0.1053  0.3964  1.5208
  160MOL   H14425902   4.325   2.604   5.434 -1.0201  0.5298  1.7868
  160MOL   H14525903   4.437   2.500   5.386  4.1584  3.3658  1.6501
  160MOL   C14625904   4.378   2.642   5.682  0.0733  0.5401  0.1171
  160MOL   C14725905   4.452   2.684   5.812  0.2334  0.0883 -0.6067
  160MOL   N14825906   4.554   2.774   5.775 -0.0878 -0.2335  0.3555
  160MOL   H14925907   4.328   2.727   5.637 -0.2110  0.7106  0.7473
  160MOL   H15025908   4.302   2.575   5.723 -0.9129  0.0418 -2.4540
  160MOL   H15125909   4.499   2.599   5.861 -1.5290  1.3392  3.4370
  160MOL   H15225910   4.596   2.797   5.864  2.3455 -1.1010 -0.5146
  160MOL   H15325911   4.629   2.733   5.721  0.0518  2.1913 -1.3972
  160MOL   C15425912   4.368   2.764   5.915 -0.0905  0.2795 -0.3800
  160MOL   C15525913   4.232   2.708   5.941  0.1968 -0.1321 -0.4130
  160MOL   N15625914   4.154   2.790   6.034  0.5962  0.0516  0.6156
  160MOL   H15725915   4.420   2.774   6.010  0.4233  0.0457 -0.6304
  160MOL   H15825916   4.349   2.864   5.876 -0.5298  0.3035 -0.0986
  160MOL   H15925917   4.233   2.605   5.973 -0.5766 -0.5080 -1.5384
  160MOL   H16025918   4.057   2.770   6.052  0.0490 -1.4218 -3.4648
  160MOL   H16125919   4.162   2.885   5.999 -2.2849  0.0311 -0.1965
  160MOL   H16225920   4.175   2.718   5.848  0.4651 -1.3287 -0.7127
  161MOL     C125921   6.134   5.248   5.179  0.3603 -0.2969  0.5158
  161MOL     C225922   6.113   5.239   5.334 -0.3931  0.4724  0.5493
  161MOL     N325923   5.968   5.224   5.366 -0.7268 -0.2478  0.1676
  161MOL     H425924   6.058   5.182   5.137 -0.5640  0.1855  1.4197
  161MOL     H525925   6.230   5.221   5.133  0.5238  1.6907 -0.3649
  161MOL     H625926   6.156   5.328   5.379  2.5837 -0.0692 -1.0805
  161MOL     H725927   5.950   5.218   5.466 -0.8956  0.2675  0.1682
  161MOL     H825928   5.918   5.307   5.339  0.1838 -1.0147 -4.3294
  161MOL     H925929   6.117   5.349   5.140  0.9591  0.0094  1.0430
  161MOL    C1025930   6.177   5.120   5.399 -0.3830  0.2651 -0.0407
  161MOL    C1125931   6.333   5.122   5.395 -0.5201 -1.4176 -0.1548
  161MOL    N1225932   6.390   5.204   5.501 -0.0103 -0.4031 -0.1715
  161MOL    H1325933   6.132   5.093   5.495  0.8952 -1.6901  0.0241
  161MOL    H1425934   6.140   5.034   5.343 -0.0501  0.9461 -1.3206
  161MOL    H1525935   6.358   5.163   5.296 -0.3592 -1.5508 -0.1675
  161MOL    H1625936   6.358   5.296   5.477  0.8988  0.0617  0.3928
  161MOL    H1725937   6.337   5.200   5.587 -2.7496 -0.3491 -1.7825
  161MOL    C1825938   6.394   4.980   5.400  0.9091 -0.1290 -0.7140
  161MOL    C1925939   6.383   4.896   5.272 -0.0101  0.2209  0.4712
  161MOL    N2025940   6.467   4.933   5.158 -0.3191 -0.1651  0.0226
  161MOL    H2125941   6.498   4.982   5.433  0.7891  0.7132 -0.3975
  161MOL    H2225942   6.334   4.936   5.480  1.0349 -1.2231 -1.2077
  161MOL    H2325943   6.283   4.921   5.236  0.7169  1.4638 -0.7235
  161MOL    H2425944   6.442   4.883   5.074 -1.1420 -0.4830  0.4456
  161MOL    H2525945   6.460   5.033   5.149  2.5447  0.0796  0.2803
  161MOL    C2625946   6.396   4.749   5.306  0.3414  0.4656 -0.0340
  161MOL    C2725947   6.285   4.664   5.232  0.2114  1.0147 -0.4068
  161MOL    N2825948   6.339   4.527   5.205  0.2361 -0.0927 -0.4279
  161MOL    H2925949   6.494   4.714   5.273  0.5832 -1.2191  2.3395
  161MOL    H3025950   6.388   4.722   5.411 -1.1437 -1.0535 -0.5251
  161MOL    H3125951   6.270   4.707   5.134  3.9151  0.5249 -1.2917
  161MOL    H3225952   6.314   4.498   5.111 -1.2999  0.6670 -0.2710
  161MOL    H3325953   6.438   4.531   5.187  0.2992  0.0367 -0.0348
  161MOL    C3425954   6.146   4.645   5.298  0.0539 -0.6050  0.4265
  161MOL    C3525955   6.061   4.522   5.241  1.0706  0.1010 -0.0298
  161MOL    N3625956   5.960   4.509   5.338  0.6311 -0.6921  0.0882
  161MOL    H3725957   6.166   4.643   5.405 -2.7462 -1.1168  0.9770
  161MOL    H3825958   6.089   4.737   5.285 -1.6863 -1.7159  0.1123
  161MOL    H3925959   6.111   4.425   5.240  0.4492 -0.2693  1.7610
  161MOL    H4025960   5.928   4.600   5.366  2.0973 -0.7150  1.9985
  161MOL    H4125961   5.989   4.463   5.424 -2.1727  0.1320  1.5249
  161MOL    C4225962   5.998   4.546   5.100  0.8350 -0.2661 -0.0289
  161MOL    C4325963   5.936   4.431   5.023  0.2532  0.3211 -0.1244
  161MOL    N4425964   5.820   4.407   5.104 -0.2630 -1.1399 -0.0651
  161MOL    H4525965   5.932   4.633   5.106  2.9411  1.3639 -0.3024
  161MOL    H4625966   6.074   4.581   5.031  0.0776 -2.8829 -2.2903
  161MOL    H4725967   6.009   4.350   5.026  0.5754  0.6042 -0.3006
  161MOL    H4825968   5.764   4.491   5.094 -1.3774 -1.8463  0.1803
  161MOL    H4925969   5.857   4.415   5.197 -1.3316  2.2222  0.1362
  161MOL    C5025970   5.891   4.471   4.886 -0.1129 -0.9200 -0.4151
  161MOL    C5125971   6.006   4.492   4.775  0.0185 -0.5311  0.3679
  161MOL    N5225972   6.060   4.357   4.747  0.8070  0.6329  0.3785
  161MOL    H5325973   5.816   4.404   4.844  0.1455 -1.4872  0.0283
  161MOL    H5425974   5.831   4.561   4.897  1.6742  0.1462  0.7847
  161MOL    H5525975   6.098   4.539   4.809  0.6242  0.1706 -2.1468
  161MOL    H5625976   5.987   4.305   4.699  2.7824 -0.1045 -1.9424
  161MOL    H5725977   6.136   4.360   4.680 -0.2538 -0.5361 -0.9126
  161MOL    C5825978   5.954   4.575   4.657 -0.7655  0.1802  0.5851
  161MOL    C5925979   5.952   4.725   4.683 -0.1142  0.1981  0.5265
  161MOL    N6025980   6.086   4.764   4.728 -0.1906  0.0516 -0.5319
  161MOL    H6125981   6.030   4.552   4.582  0.7575 -1.0271  2.4347
  161MOL    H6225982   5.859   4.552   4.610  0.1229 -1.1082 -0.6037
  161MOL    H6325983   5.877   4.752   4.757 -0.7206  1.1498 -0.4124
  161MOL    H6425984   6.079   4.862   4.751  1.5097  0.0465  0.0984
  161MOL    H6525985   6.113   4.718   4.814 -0.5687  1.7091  0.4997
  161MOL    C6625986   5.930   4.802   4.550 -0.2384 -0.2650 -0.6600
  161MOL    C6725987   5.782   4.809   4.507  0.2815  0.5530  0.1345
  161MOL    N6825988   5.702   4.892   4.598  0.4984  0.0581 -0.3143
  161MOL    H6925989   5.969   4.903   4.569  0.8924 -0.7558 -0.3180
  161MOL    H7025990   5.997   4.759   4.476  1.1356  0.3020  0.2361
  161MOL    H7125991   5.727   4.715   4.520  1.6877  0.0059  2.4745
  161MOL    H7225992   5.729   4.871   4.693 -0.5982 -1.8471 -0.4040
  161MOL    H7325993   5.729   4.988   4.580  0.5521 -0.1890 -1.5374
  161MOL    C7425994   5.765   4.852   4.362  0.5892 -0.4112 -0.9181
  161MOL    C7525995   5.754   4.746   4.252 -0.2456 -0.4277 -0.0857
  161MOL    N7625996   5.751   4.811   4.126  0.0393  0.0267 -0.4707
  161MOL    H7725997   5.679   4.918   4.353  1.1066  0.1063 -2.1983
  161MOL    H7825998   5.847   4.919   4.337  0.2997  0.9152  1.5020
  161MOL    H7925999   5.658   4.702   4.279 -0.6941  1.9825  2.5550
  161MOL    H8026000   5.759   4.910   4.144  0.7591  0.0015 -0.6438
  161MOL    H8126001   5.659   4.800   4.085  0.1176 -0.6685 -0.4680
  161MOL    C8226002   5.861   4.630   4.248 -0.6237 -0.4710  0.0502
  161MOL    C8326003   5.817   4.518   4.152  1.2841  0.7473  0.8392
  161MOL    N8426004   5.937   4.438   4.118  0.7104  0.1293 -0.0739
  161MOL    H8526005   5.951   4.683   4.215 -0.9954  1.2631  1.7378
  161MOL    H8626006   5.884   4.597   4.350 -0.5001 -0.1244  0.1364
  161MOL    H8726007   5.782   4.553   4.055  0.5748  3.0376  1.8840
  161MOL    H8826008   5.911   4.366   4.053  2.9627  0.2722 -1.2090
  161MOL    H8926009   6.008   4.503   4.085 -0.2111  0.0808 -2.1715
  161MOL    C9026010   5.714   4.416   4.220  0.4322  0.2310 -0.0900
  161MOL    C9126011   5.653   4.296   4.141  0.4710  0.5852  0.0073
  161MOL    N9226012   5.597   4.205   4.235  0.1159  0.0405  0.1677
  161MOL    H9326013   5.770   4.379   4.306 -1.3666 -0.0919  0.9658
  161MOL    H9426014   5.628   4.475   4.252  0.8304 -0.0143  1.4711
  161MOL    H9526015   5.739   4.244   4.097  0.2724 -1.1678  1.6447
  161MOL    H9626016   5.583   4.253   4.323 -2.5350 -0.2809 -0.0329
  161MOL    H9726017   5.499   4.194   4.213  0.1347  1.3146 -0.5860
  161MOL    C9826018   5.557   4.336   4.027 -0.4698  0.1137  0.3910
  161MOL    C9926019   5.504   4.229   3.927  0.2005  0.4834 -0.1189
  161MOL   N10026020   5.398   4.291   3.843 -0.9619 -0.4662 -0.5403
  161MOL   H10126021   5.464   4.381   4.063 -1.1538  0.5970 -1.8732
  161MOL   H10226022   5.602   4.418   3.970  0.2165 -0.3080  0.3187
  161MOL   H10326023   5.455   4.155   3.991 -0.1503 -1.1721 -2.2082
  161MOL   H10426024   5.325   4.302   3.912 -2.4969  1.5929 -2.4265
  161MOL   H10526025   5.359   4.224   3.778 -1.1376 -0.5640 -0.3356
  161MOL   C10626026   5.621   4.168   3.838 -0.4167 -0.6936  0.5049
  161MOL   C10726027   5.570   4.034   3.761 -0.5541 -0.7222  0.1471
  161MOL   N10826028   5.655   4.023   3.650  0.1664  0.9925  0.0302
  161MOL   H10926029   5.654   4.242   3.765 -0.2253 -1.1445  0.1332
  161MOL   H11026030   5.713   4.154   3.895  1.2789 -0.5710 -2.1258
  161MOL   H11126031   5.472   4.050   3.717  1.3222  2.4967 -3.1573
  161MOL   H11226032   5.603   4.003   3.567 -0.5099 -0.4100  0.7812
  161MOL   H11326033   5.722   3.948   3.659  0.2676  1.0583 -0.1715
  161MOL   C11426034   5.583   3.908   3.857  0.3989 -0.0635 -0.2999
  161MOL   C11526035   5.563   3.770   3.795 -0.2394  0.2729  0.4963
  161MOL   N11626036   5.586   3.668   3.905  0.7299 -0.5716  0.1026
  161MOL   H11726037   5.678   3.920   3.909  0.0972  0.4744  0.1379
  161MOL   H11826038   5.510   3.929   3.936 -0.5595  0.5439 -1.3341
  161MOL   H11926039   5.636   3.749   3.717  0.0278 -0.0304  0.8224
  161MOL   H12026040   5.566   3.573   3.875 -0.5029 -0.0799 -0.7066
  161MOL   H12126041   5.681   3.671   3.938  0.5305  0.6385  0.5889
  161MOL   C12226042   5.409   3.755   3.752 -0.4408  0.1508 -0.1744
  161MOL   C12326043   5.374   3.635   3.667  0.0070 -0.2600  0.2442
  161MOL   N12426044   5.239   3.584   3.692  0.2362  0.0291 -0.4318
  161MOL   H12526045   5.351   3.761   3.844  0.9919 -2.6112  0.9592
  161MOL   H12626046   5.386   3.846   3.696 -0.7330  0.4301  0.3968
  161MOL   H12726047   5.436   3.550   3.694  1.1870  0.7152  0.6277
  161MOL   H12826048   5.246   3.522   3.771  0.3346  1.0214  0.3333
  161MOL   H12926049   5.213   3.519   3.619 -2.4600  1.8216 -1.1431
  161MOL   C13026050   5.379   3.664   3.517  0.0552 -0.1654 -0.1286
  161MOL   C13126051   5.511   3.713   3.459  0.1775 -0.1585  0.0551
  161MOL   N13226052   5.598   3.603   3.457  0.3281  0.1703  0.3934
  161MOL   H13326053   5.355   3.577   3.455  1.9224  0.6894 -2.1073
  161MOL   H13426054   5.302   3.739   3.497 -0.6163 -0.1736  2.2949
  161MOL   H13526055   5.549   3.793   3.523  0.2470  0.7421 -1.0814
  161MOL   H13626056   5.606   3.548   3.541  1.1851 -0.2885  0.0244
  161MOL   H13726057   5.693   3.629   3.432 -0.2145  0.7618 -1.0961
  161MOL   C13826058   5.501   3.779   3.323  0.0644  0.0620 -0.1743
  161MOL   C13926059   5.427   3.912   3.334  0.7285 -0.6524  0.3227
  161MOL   N14026060   5.519   4.015   3.376 -0.2705 -0.0195  0.1402
  161MOL   H14126061   5.601   3.787   3.282  0.2423 -1.3475 -0.0337
  161MOL   H14226062   5.453   3.703   3.262  2.4612 -1.6463  0.0047
  161MOL   H14326063   5.359   3.907   3.419 -0.7081  0.6824 -0.7372
  161MOL   H14426064   5.473   4.099   3.408 -0.1476  0.2288 -0.3350
  161MOL   H14526065   5.573   4.062   3.304  1.1649  0.1578  1.2942
  161MOL   C14626066   5.352   3.963   3.208  0.4913  0.0811  0.1326
  161MOL   C14726067   5.218   4.037   3.242  0.4814 -0.9570  0.1137
  161MOL   N14826068   5.156   4.065   3.111 -0.3227  0.2448 -0.2333
  161MOL   H14926069   5.405   4.043   3.156  0.9148 -0.0256  0.3936
  161MOL   H15026070   5.329   3.882   3.139 -0.1337  1.5490 -1.4155
  161MOL   H15126071   5.237   4.132   3.292  3.6341 -2.6062  2.2714
  161MOL   H15226072   5.065   4.020   3.106  0.5118 -1.5799  0.3740
  161MOL   H15326073   5.139   4.164   3.100 -1.1149  0.0576 -0.7983
  161MOL   C15426074   5.115   3.976   3.340 -0.6381 -0.5176  0.0152
  161MOL   C15526075   5.091   3.826   3.310 -0.1360 -0.5526 -0.0704
  161MOL   N15626076   5.009   3.769   3.419  0.4871  0.1858  0.1360
  161MOL   H15726077   5.146   3.994   3.443 -0.0900  1.6468 -0.4818
  161MOL   H15826078   5.020   4.028   3.332  0.1531  1.1213  0.9180
  161MOL   H15926079   5.185   3.773   3.299  0.3600  0.4296 -0.6900
  161MOL   H16026080   4.987   3.672   3.401  0.4775 -0.1150  1.6555
  161MOL   H16126081   5.061   3.771   3.506  3.0197  0.5623 -1.3375
  161MOL   H16226082   5.038   3.821   3.215 -0.7756 -1.9703  0.3502
  162MOL     C126083   6.906   3.855   1.725 -0.2580  0.1562 -0.8896
  162MOL     C226084   6.948   3.949   1.832 -0.1980 -0.5246 -0.6890
  162MOL     N326085   6.865   4.064   1.817  0.5628  0.4287  0.4948
  162MOL     H426086   6.908   3.907   1.629  2.1448  0.6399 -0.6036
  162MOL     H526087   6.801   3.826   1.728 -0.6224  1.5718  0.6940
  162MOL     H626088   7.053   3.978   1.832 -0.2783 -0.0203  2.5443
  162MOL     H726089   6.859   4.093   1.721 -0.1109 -1.1821  0.0274
  162MOL     H826090   6.902   4.143   1.868  0.6074  0.7265  0.0061
  162MOL     H926091   6.971   3.768   1.722 -0.7026 -0.2825  1.7522
  162MOL    C1026092   6.933   3.896   1.979  0.2501 -0.7667 -0.2792
  162MOL    C1126093   7.037   3.797   2.024 -0.6661  0.2052  0.0367
  162MOL    N1226094   7.151   3.882   2.062 -0.5189  0.2574 -0.3135
  162MOL    H1326095   6.926   3.980   2.047  2.3407 -0.1917 -0.7188
  162MOL    H1426096   6.833   3.853   1.984  1.1210 -2.6176  1.7252
  162MOL    H1526097   7.068   3.745   1.933  0.0993 -0.6125  0.7570
  162MOL    H1626098   7.130   3.898   2.160  0.1957 -1.9264  0.2184
  162MOL    H1726099   7.142   3.973   2.019  0.6635  0.1767 -0.7470
  162MOL    C1826100   6.987   3.697   2.132 -0.1755  1.2217  0.5318
  162MOL    C1926101   6.936   3.562   2.059  0.0435  0.0328 -1.0226
  162MOL    N2026102   6.955   3.441   2.140  0.1315 -0.3121  0.2133
  162MOL    H2126103   7.073   3.669   2.193 -0.3999  0.0372  0.3221
  162MOL    H2226104   6.914   3.750   2.194 -0.7778  1.9836 -0.8222
  162MOL    H2326105   6.986   3.549   1.963 -0.1101 -1.2213 -0.9312
  162MOL    H2426106   6.936   3.460   2.237 -3.3944  3.0853 -1.0522
  162MOL    H2526107   6.893   3.365   2.116 -1.0968  1.1954 -1.4978
  162MOL    C2626108   6.788   3.573   2.034 -0.1381  0.0752 -0.3126
  162MOL    C2726109   6.735   3.472   1.929 -0.3625 -0.4737 -0.2998
  162MOL    N2826110   6.596   3.456   1.950  0.2001  0.3258  0.4281
  162MOL    H2926111   6.729   3.558   2.124 -1.6290  1.0424 -1.1265
  162MOL    H3026112   6.758   3.669   1.993  0.4761  0.5291  0.2794
  162MOL    H3126113   6.778   3.374   1.948  0.3873 -0.5159 -2.1479
  162MOL    H3226114   6.562   3.369   1.911  0.9339  0.2102  0.0280
  162MOL    H3326115   6.564   3.528   1.888  0.1069  0.0014  0.0961
  162MOL    C3426116   6.761   3.517   1.787  0.0284  0.4450 -0.1897
  162MOL    C3526117   6.792   3.406   1.677 -0.1245  0.0196  0.0889
  162MOL    N3626118   6.791   3.457   1.541 -0.0600 -0.2039 -0.1608
  162MOL    H3726119   6.687   3.582   1.741 -0.1072  0.6665  0.3444
  162MOL    H3826120   6.852   3.577   1.791 -0.0157  0.4347  1.1715
  162MOL    H3926121   6.723   3.322   1.682 -2.3379  1.6968 -1.1509
  162MOL    H4026122   6.703   3.424   1.506 -0.7863  0.9676  0.5195
  162MOL    H4126123   6.864   3.418   1.484  0.3955 -1.2125  1.0862
  162MOL    C4226124   6.930   3.348   1.697  0.2295  0.2221  0.1008
  162MOL    C4326125   6.949   3.207   1.632 -0.3334 -0.1615 -0.5679
  162MOL    N4426126   7.095   3.190   1.618 -0.3637  0.3790 -0.4112
  162MOL    H4526127   6.994   3.417   1.644  1.2520 -0.9971 -0.2706
  162MOL    H4626128   6.956   3.335   1.803  0.0657  0.5447  0.1817
  162MOL    H4726129   6.907   3.215   1.531 -0.6820 -0.7686 -0.4720
  162MOL    H4826130   7.116   3.091   1.621 -1.6450  0.1190  0.3724
  162MOL    H4926131   7.111   3.214   1.521  0.0880 -0.8895 -0.6619
  162MOL    C5026132   6.914   3.077   1.717 -0.0408  0.8872  0.3055
  162MOL    C5126133   6.857   2.968   1.622  0.2809  0.2621 -0.3795
  162MOL    N5226134   6.866   2.841   1.687  0.7121  0.3627  0.3470
  162MOL    H5326135   7.001   3.043   1.773 -0.0310  0.1984 -0.1285
  162MOL    H5426136   6.836   3.104   1.788 -1.4700 -1.4932 -0.3236
  162MOL    H5526137   6.932   2.967   1.542 -0.3850  0.1205 -1.0022
  162MOL    H5626138   6.886   2.771   1.618  1.9005  1.8858 -0.8985
  162MOL    H5726139   6.955   2.854   1.732  1.6545 -2.0008 -0.7946
  162MOL    C5826140   6.716   2.984   1.564 -0.0874  0.5492  0.0334
  162MOL    C5926141   6.704   2.926   1.418 -0.6160 -0.2306  0.8025
  162MOL    N6026142   6.566   2.919   1.372 -0.2155  0.0845 -0.3318
  162MOL    H6126143   6.654   2.943   1.644  1.3387  1.2546  1.5399
  162MOL    H6226144   6.693   3.090   1.558 -1.1238  0.3280  0.0668
  162MOL    H6326145   6.738   2.822   1.417  0.5919  0.1637 -0.2537
  162MOL    H6426146   6.532   3.009   1.342 -0.8917  0.0292  0.2355
  162MOL    H6526147   6.505   2.894   1.448  0.5884 -3.4087 -0.7705
  162MOL    C6626148   6.789   2.988   1.301  0.1116  0.0706  0.6527
  162MOL    C6726149   6.925   2.932   1.265 -0.6915 -0.5024 -0.5853
  162MOL    N6826150   6.897   2.804   1.204  0.0925  0.5314  0.4865
  162MOL    H6926151   6.733   3.005   1.209 -0.1731  0.0743  0.8244
  162MOL    H7026152   6.800   3.094   1.324  1.5875  0.4488 -1.5794
  162MOL    H7126153   6.979   2.919   1.359 -0.0997 -2.1946 -1.1382
  162MOL    H7226154   6.820   2.764   1.256  0.5443 -0.5811  0.3256
  162MOL    H7326155   6.859   2.810   1.111 -0.6086  0.0801  0.7425
  162MOL    C7426156   7.020   3.010   1.166  0.0151  0.2701 -0.3218
  162MOL    C7526157   7.094   3.132   1.223  0.5436  0.6651 -0.2378
  162MOL    N7626158   7.201   3.100   1.314  0.1071  0.0126  0.1926
  162MOL    H7726159   7.096   2.946   1.123 -1.4551 -1.3293 -0.5832
  162MOL    H7826160   6.974   3.049   1.076 -0.6999 -0.5056 -0.2936
  162MOL    H7926161   7.017   3.186   1.277 -1.9219 -2.3556 -0.6113
  162MOL    H8026162   7.247   3.189   1.312 -0.6298  0.3844 -1.7878
  162MOL    H8126163   7.262   3.042   1.258 -0.6073  0.3004 -0.8966
  162MOL    C8226164   7.136   3.233   1.117 -0.2723 -0.1751 -0.1144
  162MOL    C8326165   7.195   3.360   1.184 -0.6664 -0.3529  0.3379
  162MOL    N8426166   0.055   3.334   1.229  0.0372  0.1382  0.1638
  162MOL    H8526167   7.206   3.198   1.041  1.8259  1.5936  0.9727
  162MOL    H8626168   7.051   3.263   1.055  0.4055  0.8508 -0.5648
  162MOL    H8726169   7.136   3.391   1.270 -0.8680  0.0790  0.0505
  162MOL    H8826170   0.100   3.421   1.253 -1.1664  1.4996 -2.2822
  162MOL    H8926171   0.109   3.320   1.145 -0.8016 -0.4425 -0.2831
  162MOL    C9026172   7.202   3.484   1.098  0.2516  0.4013  0.5409
  162MOL    C9126173   7.199   3.617   1.174 -0.2131 -0.9916 -0.2651
  162MOL    N9226174   0.024   3.709   1.111  0.7572 -0.8630  0.0088
  162MOL    H9326175   0.004   3.484   1.021  0.3320  3.0200  0.5714
  162MOL    H9426176   7.116   3.496   1.033  0.3095  1.1008  0.5855
  162MOL    H9526177   7.229   3.608   1.278  0.5355 -2.7693 -0.6199
  162MOL    H9626178   0.039   3.789   1.171 -1.7527 -2.3076  2.7448
  162MOL    H9726179   7.247   3.750   1.035  0.7878  1.0734  0.9813
  162MOL    C9826180   7.066   3.699   1.176 -0.8238 -0.3929 -0.0525
  162MOL    C9926181   6.943   3.645   1.259 -0.2484  0.3300 -0.4239
  162MOL   N10026182   6.962   3.689   1.392  0.0955 -0.2709 -0.3500
  162MOL   H10126183   7.086   3.796   1.220 -0.8693  0.4789 -1.9255
  162MOL   H10226184   7.024   3.706   1.076 -0.3323 -2.1982 -0.4203
  162MOL   H10326185   6.942   3.537   1.244 -0.8125  0.4185 -1.0368
  162MOL   H10426186   7.033   3.630   1.433  0.4163 -0.1201 -0.6827
  162MOL   H10526187   6.886   3.667   1.454  0.8789  1.8469  1.4429
  162MOL   C10626188   6.811   3.700   1.208 -0.2526  0.7366  0.3159
  162MOL   C10726189   6.759   3.641   1.074 -0.2489 -0.0071 -0.5010
  162MOL   N10826190   6.700   3.513   1.097  0.7259 -0.2186 -0.2541
  162MOL   H10926191   6.733   3.689   1.283  0.0001 -0.7182  0.3707
  162MOL   H11026192   6.819   3.809   1.199  0.6497  0.7163  0.8757
  162MOL   H11126193   6.838   3.627   1.000 -0.0592  0.4802 -0.3952
  162MOL   H11226194   6.638   3.523   1.176  0.1445  0.3935 -0.7793
  162MOL   H11326195   6.783   3.467   1.131 -0.0618 -1.4615 -0.0091
  162MOL   C11426196   6.653   3.734   1.012 -0.3136 -0.3837  0.8178
  162MOL   C11526197   6.705   3.856   0.937 -0.2057 -0.0221 -0.1172
  162MOL   N11626198   6.774   3.823   0.816  0.1425  0.0139  0.5478
  162MOL   H11726199   6.578   3.688   0.948  0.3238  0.2178 -0.3684
  162MOL   H11826200   6.588   3.768   1.094  0.8360  2.2322  0.6943
  162MOL   H11926201   6.779   3.910   0.996  0.0175 -0.6484  0.1787
  162MOL   H12026202   6.753   3.903   0.758 -0.3241  0.9888  2.0408
  162MOL   H12126203   6.733   3.744   0.767  1.4463  0.9531 -2.1286
  162MOL   C12226204   6.608   3.970   0.897 -0.4703 -0.2216  0.0069
  162MOL   C12326205   6.525   4.040   1.008 -0.7548  0.7509  0.3239
  162MOL   N12426206   6.570   4.177   1.020 -0.3099 -0.2361  0.2895
  162MOL   H12526207   6.671   4.045   0.850 -1.5195  0.1561 -0.8006
  162MOL   H12626208   6.540   3.933   0.821  0.3507 -3.0864  0.5938
  162MOL   H12726209   6.535   4.001   1.110  1.7710 -1.1255 -0.5837
  162MOL   H12826210   6.505   4.234   0.967  0.5846 -0.6706 -1.3092
  162MOL   H12926211   6.662   4.195   0.983  0.6922 -1.0037  2.3136
  162MOL   C13026212   6.377   4.048   0.989  1.7616 -0.4102 -0.0288
  162MOL   C13126213   6.307   3.913   1.035 -0.6728  0.5863 -0.2752
  162MOL   N13226214   6.274   3.925   1.175  0.6861  0.4251 -0.0409
  162MOL   H13326215   6.326   4.136   1.028  0.7661 -1.0924  0.2315
  162MOL   H13426216   6.346   4.060   0.885  1.7475  2.1380  0.2496
  162MOL   H13526217   6.381   3.834   1.021  2.1668  3.5047 -2.3202
  162MOL   H13626218   6.229   3.843   1.213  0.6172  1.7860  2.9488
  162MOL   H13726219   6.354   3.940   1.236  2.0235 -1.3015 -1.3130
  162MOL   C13826220   6.175   3.883   0.954  0.3645 -0.1634 -0.6265
  162MOL   C13926221   6.111   3.739   0.980  0.0271  0.1099  0.4289
  162MOL   N14026222   5.966   3.767   0.971  0.1292 -0.7474  0.0308
  162MOL   H14126223   6.102   3.962   0.976 -0.8132 -1.3337 -0.2765
  162MOL   H14226224   6.198   3.894   0.848  0.0782  0.7770 -0.6023
  162MOL   H14326225   6.133   3.703   1.081 -0.9744 -1.3999  0.1220
  162MOL   H14426226   5.946   3.760   0.872 -0.6623  1.9189 -0.0275
  162MOL   H14526227   5.921   3.686   1.011  1.7892 -1.7587 -0.0684
  162MOL   C14626228   6.126   3.617   0.881 -0.7376  0.0685 -0.5179
  162MOL   C14726229   6.269   3.548   0.863 -0.3255  0.2049  0.7615
  162MOL   N14826230   6.260   3.403   0.865  0.2600 -0.1341  0.0438
  162MOL   H14926231   6.059   3.540   0.921 -2.5514  1.4364 -0.8820
  162MOL   H15026232   6.087   3.647   0.784 -4.1375 -3.5319 -0.3980
  162MOL   H15126233   6.337   3.577   0.943  0.5146  0.9032 -0.2028
  162MOL   H15226234   6.210   3.384   0.950  0.2457 -0.0621  0.0507
  162MOL   H15326235   6.355   3.370   0.874  0.0427 -1.2451 -1.4505
  162MOL   C15426236   6.334   3.592   0.731 -0.0534 -0.0224 -0.4715
  162MOL   C15526237   6.360   3.742   0.713 -0.1958  0.1552  0.6617
  162MOL   N15626238   6.455   3.764   0.607 -0.2362 -0.4038  0.0994
  162MOL   H15726239   6.422   3.531   0.711  0.1017 -0.3767  1.2378
  162MOL   H15826240   6.274   3.566   0.643 -0.0003  3.1017 -1.4888
  162MOL   H15926241   6.396   3.791   0.804  2.6691  1.4667 -1.0926
  162MOL   H16026242   6.542   3.714   0.614 -1.6094 -2.6934  1.4891
  162MOL   H16126243   6.470   3.859   0.578  2.4757 -1.8438 -3.6194
  162MOL   H16226244   6.267   3.793   0.686  0.3404  1.6725  1.5771
  163MOL     C126245   5.901   6.109   2.273 -0.1660  0.2864  0.0808
  163MOL     C226246   5.878   6.250   2.335 -0.1405 -0.4078 -0.1308
  163MOL     N326247   5.738   6.249   2.383 -0.2651 -0.1163  0.1501
  163MOL     H426248   6.004   6.083   2.248 -0.5746 -0.7010 -0.6097
  163MOL     H526249   5.844   6.083   2.184 -1.0474  0.7259  0.5176
  163MOL     H626250   5.880   6.326   2.256  1.1118 -1.4201 -1.0992
  163MOL     H726251   5.717   6.335   2.432 -0.7489 -1.0512  1.6092
  163MOL     H826252   5.734   6.169   2.446 -2.2435  0.0659  0.2963
  163MOL     H926253   5.868   6.024   2.333 -1.8493  1.0701  0.2785
  163MOL    C1026254   5.982   6.306   2.437  0.1484 -0.2678 -0.0390
  163MOL    C1126255   6.117   6.354   2.388 -0.0146 -0.8905  0.1380
  163MOL    N1226256   6.173   6.433   2.496 -0.2175  0.6124  0.0447
  163MOL    H1326257   5.931   6.388   2.488  1.0080  0.2413  0.0095
  163MOL    H1426258   5.999   6.233   2.516  1.7395  1.5999  1.3893
  163MOL    H1526259   6.106   6.421   2.303 -1.9946 -0.7633  0.4666
  163MOL    H1626260   6.260   6.479   2.471  1.2319 -1.6079  0.9066
  163MOL    H1726261   6.195   6.362   2.565 -0.0691  0.7049  0.0934
  163MOL    C1826262   6.229   6.256   2.352  0.4490 -0.1322 -0.5744
  163MOL    C1926263   6.325   6.283   2.233  0.8386 -0.4963 -0.3055
  163MOL    N2026264   6.456   6.304   2.286 -0.5774  0.7596  0.2067
  163MOL    H2126265   6.280   6.215   2.439  1.8365  0.7216 -0.9661
  163MOL    H2226266   6.164   6.175   2.319 -0.6338  0.7959 -0.7669
  163MOL    H2326267   6.296   6.372   2.176  0.2940 -0.2221  0.3828
  163MOL    H2426268   6.500   6.340   2.202 -2.1181  1.6134 -0.2605
  163MOL    H2526269   6.447   6.379   2.353 -2.5372  0.5882  0.1620
  163MOL    C2626270   6.329   6.162   2.133  0.1830 -0.6901  0.1103
  163MOL    C2726271   6.364   6.204   1.991 -0.2733 -0.1335 -0.1767
  163MOL    N2826272   6.494   6.152   1.953  0.2803  0.0641 -0.3633
  163MOL    H2926273   6.401   6.087   2.166  0.0627 -1.5015 -1.4013
  163MOL    H3026274   6.229   6.118   2.139 -0.4046  0.2933 -1.9434
  163MOL    H3126275   6.375   6.312   1.996  1.0182 -0.3603  3.0684
  163MOL    H3226276   6.544   6.215   2.014  1.0354 -0.8587 -0.0187
  163MOL    H3326277   6.522   6.191   1.864 -1.1391  1.3622 -0.2533
  163MOL    C3426278   6.253   6.165   1.888  0.3498 -0.0471  0.3714
  163MOL    C3526279   6.150   6.276   1.854 -0.3162 -0.2769 -0.0532
  163MOL    N3626280   6.081   6.226   1.737 -0.8360  0.5680  0.3960
  163MOL    H3726281   6.296   6.139   1.791 -0.9043 -0.4688 -0.0843
  163MOL    H3826282   6.200   6.076   1.923 -0.2612 -0.1571 -0.8012
  163MOL    H3926283   6.191   6.373   1.826  0.9395 -0.1060  2.2404
  163MOL    H4026284   5.992   6.265   1.708 -0.4319 -0.2076 -2.0677
  163MOL    H4126285   6.075   6.126   1.748 -1.7517  0.3978 -1.3450
  163MOL    C4226286   6.038   6.305   1.964  0.0370 -0.3257  0.6210
  163MOL    C4326287   5.987   6.450   1.970 -0.1836 -0.6365  0.0767
  163MOL    N4426288   5.857   6.457   2.040  0.0081  0.0294 -0.0771
  163MOL    H4526289   5.955   6.236   1.950 -2.3271  2.8308 -1.6766
  163MOL    H4626290   6.083   6.284   2.061 -1.0731  1.6734  1.5865
  163MOL    H4726291   5.974   6.491   1.870  1.2806 -3.2649 -1.2664
  163MOL    H4826292   5.825   6.536   2.095 -0.7937 -2.0631  2.5542
  163MOL    H4926293   5.784   6.450   1.970 -0.2270  0.4422  0.1212
  163MOL    C5026294   6.086   6.550   2.029 -0.1344  0.8260 -0.5031
  163MOL    C5126295   6.067   6.691   1.982  0.1549 -0.0933  0.4464
  163MOL    N5226296   6.131   6.782   2.069  0.1719 -0.6270  0.4566
  163MOL    H5326297   6.087   6.542   2.138 -1.4799  0.8793 -0.4868
  163MOL    H5426298   6.189   6.524   2.003 -0.1502 -2.8778  2.6387
  163MOL    H5526299   5.967   6.729   2.000  0.8010  1.6825  0.3401
  163MOL    H5626300   6.101   6.767   2.164 -1.8850  0.2056 -0.0402
  163MOL    H5726301   6.106   6.876   2.039 -2.8604 -1.6271 -0.3334
  163MOL    C5826302   6.122   6.721   1.835  0.5325  0.3732  1.0418
  163MOL    C5926303   6.019   6.735   1.723 -0.0541 -0.3088 -0.3499
  163MOL    N6026304   5.932   6.848   1.744  0.2813  0.6620 -0.1971
  163MOL    H6126305   6.195   6.800   1.816  1.2372 -0.6351 -0.5168
  163MOL    H6226306   6.195   6.643   1.813 -0.8454 -0.3982 -0.9300
  163MOL    H6326307   5.955   6.647   1.715 -2.0485  1.0511  0.1492
  163MOL    H6426308   5.870   6.846   1.824  0.3905  2.3812 -0.0463
  163MOL    H6526309   5.855   6.845   1.679  0.2455 -1.6635 -0.0947
  163MOL    C6626310   6.083   6.755   1.586  0.2300 -0.2676  0.0490
  163MOL    C6726311   6.199   6.658   1.534 -0.2311 -0.5483  0.3086
  163MOL    N6826312   6.190   6.622   1.391  0.2020 -0.4198 -0.4123
  163MOL    H6926313   5.999   6.741   1.517 -0.0168 -0.5806  0.4116
  163MOL    H7026314   6.104   6.862   1.575  0.0251 -0.3243 -0.9455
  163MOL    H7126315   6.184   6.566   1.589  0.2418 -0.8382 -0.0430
  163MOL    H7226316   6.261   6.551   1.377  0.8862 -0.1863  1.7366
  163MOL    H7326317   6.230   6.696   1.334  1.6209 -0.7573  0.1052
  163MOL    C7426318   6.340   6.723   1.565 -0.1218  0.1929  0.3391
  163MOL    C7526319   6.452   6.619   1.537 -0.3369 -0.2303  0.1256
  163MOL    N7626320   6.578   6.687   1.559  0.2655 -0.1564  0.2275
  163MOL    H7726321   6.348   6.803   1.492  2.1104  0.1047  0.4572
  163MOL    H7826322   6.339   6.763   1.667  0.0989  1.5530 -0.1835
  163MOL    H7926323   6.434   6.587   1.434  3.6553 -2.1413 -0.0967
  163MOL    H8026324   6.596   6.697   1.658 -0.5167 -1.1174  0.4818
  163MOL    H8126325   6.573   6.781   1.521 -0.6370 -0.0461  0.6016
  163MOL    C8226326   6.451   6.488   1.618  0.1517 -0.5353 -0.1063
  163MOL    C8326327   6.559   6.385   1.570  0.1529  0.3516 -0.1297
  163MOL    N8426328   6.563   6.273   1.664  0.0203  0.0956 -0.2868
  163MOL    H8526329   6.460   6.511   1.724  0.4130  0.9965 -0.4380
  163MOL    H8626330   6.355   6.437   1.612 -0.2145  0.0035  0.9421
  163MOL    H8726331   6.659   6.427   1.578  0.2441  0.2346 -0.6587
  163MOL    H8826332   6.659   6.251   1.686  0.0403 -0.1981 -0.6475
  163MOL    H8926333   6.532   6.188   1.617 -0.9053 -0.2472  0.9289
  163MOL    C9026334   6.544   6.334   1.426 -0.3616 -0.0235 -0.0296
  163MOL    C9126335   6.662   6.243   1.375  0.1504 -0.4401 -0.2125
  163MOL    N9226336   6.594   6.123   1.315  0.2088  0.6579  0.1429
  163MOL    H9326337   6.446   6.290   1.407 -0.3146 -0.6161  1.1146
  163MOL    H9426338   6.552   6.418   1.357  1.4067 -0.2731 -0.1514
  163MOL    H9526339   6.721   6.211   1.462  0.1211  0.3674  0.1162
  163MOL    H9626340   6.530   6.111   1.392  0.3406  0.4181  0.2161
  163MOL    H9726341   6.666   6.054   1.335  0.3272  0.6859 -0.1928
  163MOL    C9826342   6.758   6.291   1.257  0.7781 -0.3416  0.2279
  163MOL    C9926343   6.858   6.400   1.305 -0.2419  0.0822  0.7524
  163MOL   N10026344   6.980   6.389   1.223  0.4259 -0.6146 -0.2214
  163MOL   H10126345   6.796   6.205   1.202  1.4513 -0.1401  0.3714
  163MOL   H10226346   6.696   6.339   1.181  0.3269  1.3068  1.6031
  163MOL   H10326347   6.885   6.370   1.406 -1.8066 -0.5444  1.0060
  163MOL   H10426348   7.037   6.306   1.231 -0.1025 -1.0400 -0.8320
  163MOL   H10526349   6.945   6.402   1.129 -2.0575 -1.7997  0.4999
  163MOL   C10626350   6.799   6.545   1.307 -0.4757  0.8147 -0.5603
  163MOL   C10726351   6.903   6.661   1.327 -0.4367  0.4448  0.4422
  163MOL   N10826352   6.838   6.792   1.318  0.1884 -0.1442  0.1241
  163MOL   H10926353   6.727   6.563   1.227 -2.6340  0.4374  1.2343
  163MOL   H11026354   6.726   6.548   1.389  1.9485 -1.4298  1.7846
  163MOL   H11126355   6.978   6.649   1.249 -1.1891  0.9360 -0.3648
  163MOL   H11226356   6.766   6.808   1.386 -0.4778  1.4324 -0.9203
  163MOL   H11326357   6.911   6.856   1.344  1.6885 -1.1053 -1.5615
  163MOL   C11426358   6.975   6.647   1.462  0.3432  0.4531 -0.1099
  163MOL   C11526359   7.127   6.674   1.448  0.1283 -0.4036 -0.1030
  163MOL   N11626360   7.145   6.817   1.432  0.0470 -0.3709  0.7299
  163MOL   H11726361   6.926   6.707   1.538  1.6046  0.2731  0.8772
  163MOL   H11826362   6.966   6.545   1.499  0.8420  0.1467 -0.8208
  163MOL   H11926363   7.164   6.618   1.361  1.2997  0.2811 -0.0604
  163MOL   H12026364   7.143   6.847   1.528  1.2082  0.5489  0.4805
  163MOL   H12126365   7.246   6.823   1.422  0.1862 -1.6076  1.2811
  163MOL   C12226366   7.216   6.624   1.562 -1.0061  0.0139 -0.1884
  163MOL   C12326367   7.198   6.480   1.608 -0.1251 -0.5186  0.5790
  163MOL   N12426368   0.054   6.409   1.628 -0.0915  0.0249 -0.1571
  163MOL   H12526369   0.043   6.644   1.531 -1.1147 -1.5040 -1.5970
  163MOL   H12626370   7.206   6.699   1.641 -2.7669 -0.8092  0.3710
  163MOL   H12726371   7.141   6.425   1.533  0.7906 -1.6814  0.7051
  163MOL   H12826372   0.038   6.317   1.666 -2.3900 -0.4868 -2.1709
  163MOL   H12926373   0.106   6.409   1.542 -0.6940  1.6082 -0.5374
  163MOL   C13026374   7.124   6.478   1.741  0.0820  0.8633 -0.5451
  163MOL   C13126375   7.075   6.341   1.789  0.1929  0.2874 -0.1224
  163MOL   N13226376   7.046   6.357   1.931  0.1346  0.4230  0.7367
  163MOL   H13326377   7.175   6.532   1.820 -1.0187  1.2172 -0.0596
  163MOL   H13426378   7.030   6.531   1.725  1.3715  2.9428 -1.4163
  163MOL   H13526379   7.150   6.262   1.794  1.0732  1.0324 -1.3479
  163MOL   H13626380   6.985   6.286   1.968  1.5251 -0.5335  1.1790
  163MOL   H13726381   7.118   6.327   1.995 -1.0053 -0.5361  1.5847
  163MOL   C13826382   6.945   6.287   1.717  0.4396  0.5544 -0.1344
  163MOL   C13926383   6.932   6.138   1.735 -0.9671 -0.8792  0.7024
  163MOL   N14026384   6.786   6.114   1.769  0.0034  0.2848 -0.2887
  163MOL   H14126385   6.857   6.344   1.747 -0.1895 -0.7921  0.6706
  163MOL   H14226386   6.944   6.300   1.609 -0.6019 -1.4946 -0.4028
  163MOL   H14326387   6.991   6.102   1.819 -1.4487 -2.6965  0.2774
  163MOL   H14426388   6.773   6.015   1.750 -0.9019 -0.0924  2.1254
  163MOL   H14526389   6.764   6.125   1.867 -0.3194 -1.8994 -0.0877
  163MOL   C14626390   6.974   6.061   1.616 -0.6886 -0.2028  0.7416
  163MOL   C14726391   7.125   6.073   1.594 -0.1358 -0.0139  0.0904
  163MOL   N14826392   7.201   6.001   1.692 -0.2170 -0.6644  1.0202
  163MOL   H14926393   6.945   5.957   1.627 -0.5002 -0.4955 -1.3689
  163MOL   H15026394   6.927   6.095   1.524 -1.2251  2.3926  1.9266
  163MOL   H15126395   7.163   6.174   1.581 -2.2082  0.6460 -1.0126
  163MOL   H15226396   7.205   6.047   1.782  0.6109 -0.4476  0.8746
  163MOL   H15326397   0.022   5.996   1.666 -0.6586  0.6920 -0.9722
  163MOL   C15426398   7.171   6.020   1.453  0.0979  0.0484  0.4891
  163MOL   C15526399   7.124   6.113   1.337  0.3649 -0.1121  0.2685
  163MOL   N15626400   7.161   6.052   1.204  0.5572  0.2485 -0.1455
  163MOL   H15726401   0.003   6.003   1.455 -0.2592 -2.4963  0.7782
  163MOL   H15826402   7.123   5.922   1.442  1.0449 -0.1403 -2.4573
  163MOL   H15926403   7.147   6.218   1.352 -1.3529  0.4953 -1.1433
  163MOL   H16026404   7.082   6.044   1.141  0.0031 -0.7100  0.6562
  163MOL   H16126405   7.226   6.113   1.156  0.2141  0.5158 -0.2729
  163MOL   H16226406   7.016   6.114   1.350  0.5844  0.8235  2.1514
  164MOL     C126407   6.803   4.069   2.892  0.0259  0.5261 -0.2232
  164MOL     C226408   6.684   4.153   2.931 -0.0540  0.1786  0.3035
  164MOL     N326409   6.580   4.135   2.829 -0.2731 -0.2485  0.2376
  164MOL     H426410   6.789   4.028   2.791  0.7521  1.1900 -0.5961
  164MOL     H526411   6.814   3.986   2.961 -2.0558 -0.2679 -0.7871
  164MOL     H626412   6.706   4.260   2.934 -0.2509  0.1936  1.7256
  164MOL     H726413   6.520   4.062   2.865  0.4172 -0.0619  1.8156
  164MOL     H826414   6.532   4.223   2.837 -0.7359 -0.5198  0.4519
  164MOL     H926415   6.890   4.134   2.886  2.2785 -2.3621  0.2444
  164MOL    C1026416   6.632   4.119   3.073  0.1154 -0.2646  0.1694
  164MOL    C1126417   6.706   4.198   3.189 -0.2561 -0.0647  0.2272
  164MOL    N1226418   6.625   4.196   3.306 -0.0656 -0.1534 -0.0952
  164MOL    H1326419   6.527   4.147   3.080  0.1768  0.1666 -0.5322
  164MOL    H1426420   6.623   4.012   3.087  0.3388 -0.3026  0.0297
  164MOL    H1526421   6.730   4.303   3.171 -2.0745  0.3043 -0.1402
  164MOL    H1626422   6.562   4.274   3.295 -0.9105 -0.8350 -0.1369
  164MOL    H1726423   6.685   4.230   3.380  0.2809  0.3217 -0.5882
  164MOL    C1826424   6.842   4.134   3.214 -0.3422  0.6254  0.0847
  164MOL    C1926425   6.865   4.029   3.329  0.2456  0.4726 -0.1575
  164MOL    N2026426   6.968   3.932   3.294 -0.4736 -0.7696  0.5156
  164MOL    H2126427   6.880   4.089   3.122 -1.7244 -1.2426  0.4142
  164MOL    H2226428   6.914   4.215   3.227  0.1212  0.0361  1.2303
  164MOL    H2326429   6.775   3.971   3.347  0.6892 -0.0896  0.2471
  164MOL    H2426430   6.930   3.862   3.232  0.3083  0.9615 -2.0073
  164MOL    H2526431   6.979   3.879   3.379 -2.2322 -1.9188  0.0598
  164MOL    C2626432   6.918   4.093   3.467  0.3591 -0.4620  0.5849
  164MOL    C2726433   6.911   4.003   3.591  0.5974  0.7536  0.9653
  164MOL    N2826434   6.990   4.065   3.700  0.2248  0.3071 -0.1656
  164MOL    H2926435   7.020   4.130   3.460 -0.1451  1.3040  2.1817
  164MOL    H3026436   6.859   4.184   3.478  1.0776 -0.0206  0.8456
  164MOL    H3126437   6.961   3.909   3.570  0.1595  0.7097  0.1042
  164MOL    H3226438   6.992   4.010   3.784 -0.8068 -0.6629 -0.7598
  164MOL    H3326439   6.937   4.148   3.725  0.0831  0.0985  0.2303
  164MOL    C3426440   6.766   3.967   3.648  0.5237  0.0661  0.2838
  164MOL    C3526441   6.726   3.821   3.664 -0.0644  0.1495 -0.2848
  164MOL    N3626442   6.775   3.765   3.793 -0.1978  0.1998  0.1125
  164MOL    H3726443   6.754   4.020   3.742 -0.5932  0.2033  0.0683
  164MOL    H3826444   6.695   4.019   3.584  2.0570  0.1705 -1.3770
  164MOL    H3926445   6.771   3.763   3.584  0.3722  0.3124 -0.1557
  164MOL    H4026446   6.749   3.833   3.863 -3.0128 -1.5618  0.8790
  164MOL    H4126447   6.875   3.758   3.791 -0.2772 -0.8983 -0.6609
  164MOL    C4226448   6.570   3.802   3.654  0.2649  0.1678 -0.2478
  164MOL    C4326449   6.527   3.794   3.508  0.2988  0.1467 -0.0218
  164MOL    N4426450   6.567   3.668   3.441 -0.5165  0.2055 -0.0860
  164MOL    H4526451   6.532   3.717   3.710  2.1784  1.0533  2.5119
  164MOL    H4626452   6.521   3.886   3.703 -1.0726 -0.9126  0.2870
  164MOL    H4726453   6.576   3.870   3.447 -2.3782  0.8361 -1.3819
  164MOL    H4826454   6.662   3.682   3.406 -0.6012  2.0243  0.3462
  164MOL    H4926455   6.571   3.596   3.511 -1.0855  0.0155 -0.2516
  164MOL    C5026456   6.379   3.810   3.495 -0.5036 -0.1332 -0.2323
  164MOL    C5126457   6.312   3.946   3.535 -0.6668  1.0178  0.2148
  164MOL    N5226458   6.364   4.061   3.461 -0.5197  0.5160  0.4373
  164MOL    H5326459   6.339   3.779   3.398  1.5209  0.6370 -1.3469
  164MOL    H5426460   6.344   3.730   3.559 -0.8102  0.4627  0.3524
  164MOL    H5526461   6.340   3.965   3.638 -1.0504 -1.1422  0.7334
  164MOL    H5626462   6.464   4.054   3.468 -0.6219 -1.2781  0.4672
  164MOL    H5726463   6.332   4.050   3.365  2.7218  1.1352 -0.7826
  164MOL    C5826464   6.164   3.941   3.523  0.6388  0.6032 -0.3383
  164MOL    C5926465   6.096   3.844   3.620  0.1322  0.5103  0.2621
  164MOL    N6026466   6.061   3.926   3.738  0.0313  0.0357  0.4218
  164MOL    H6126467   6.122   4.041   3.532  2.9631  1.6298 -0.5788
  164MOL    H6226468   6.150   3.906   3.421  1.2322 -0.0341 -0.2062
  164MOL    H6326469   6.169   3.775   3.663  0.2259  0.4281 -0.0320
  164MOL    H6426470   6.139   3.976   3.778 -1.9604  2.8901  0.9607
  164MOL    H6526471   5.996   4.002   3.721 -0.1478 -0.4471 -1.1924
  164MOL    C6626472   5.954   3.781   3.581 -1.3103  0.1536 -0.1337
  164MOL    C6726473   5.972   3.666   3.478 -0.1336  0.0668 -0.3778
  164MOL    N6826474   5.881   3.557   3.523  0.6981  0.5481 -0.2851
  164MOL    H6926475   5.908   3.743   3.672  1.5052 -0.3107  1.1567
  164MOL    H7026476   5.880   3.852   3.545 -0.4129  0.1699 -1.9832
  164MOL    H7126477   6.076   3.635   3.473 -0.1005  0.2368 -0.7477
  164MOL    H7226478   5.909   3.472   3.477 -1.2278 -0.4714  0.4002
  164MOL    H7326479   5.913   3.532   3.616 -0.6346 -1.3805 -0.3234
  164MOL    C7426480   5.923   3.700   3.328  0.7752  0.6767 -0.2102
  164MOL    C7526481   5.908   3.589   3.223  0.4999  0.2911  0.0490
  164MOL    N7626482   5.810   3.636   3.122 -0.5551  0.1750 -0.0216
  164MOL    H7726483   5.823   3.742   3.339  0.4761  0.0024 -0.3723
  164MOL    H7826484   5.994   3.773   3.288 -0.6765  2.7797  0.9849
  164MOL    H7926485   5.866   3.500   3.270  0.5423  0.5095  0.5033
  164MOL    H8026486   5.731   3.647   3.183  0.8654  0.7815  1.7447
  164MOL    H8126487   5.802   3.564   3.052  0.4920 -0.9208  0.9792
  164MOL    C8226488   6.037   3.549   3.143 -0.1704 -0.1751 -0.1776
  164MOL    C8326489   6.151   3.490   3.232  0.2398 -0.1161  0.5786
  164MOL    N8426490   6.097   3.371   3.299  0.5237  0.7316 -0.2776
  164MOL    H8526491   6.010   3.482   3.062 -0.3593  0.8178 -0.9525
  164MOL    H8626492   6.073   3.641   3.096  0.5408 -1.0809 -1.4178
  164MOL    H8726493   6.177   3.565   3.306 -0.4836  0.8883 -0.1803
  164MOL    H8826494   6.146   3.286   3.277  0.8305  0.6353  0.7437
  164MOL    H8926495   6.104   3.385   3.399 -1.0659 -1.2548  0.1503
  164MOL    C9026496   6.271   3.446   3.143 -0.6470 -0.0280 -0.4581
  164MOL    C9126497   6.349   3.554   3.067  0.5904 -0.1448 -0.2045
  164MOL    N9226498   6.393   3.658   3.161 -0.2109 -0.5138  0.2776
  164MOL    H9326499   6.332   3.385   3.210 -0.5276  1.4594  0.8007
  164MOL    H9426500   6.228   3.383   3.065  0.4800 -1.0275 -0.2897
  164MOL    H9526501   6.291   3.613   2.996 -0.1261 -0.3573  0.1953
  164MOL    H9626502   6.451   3.619   3.233  0.6127 -0.1519 -0.1768
  164MOL    H9726503   6.308   3.688   3.207 -1.7261 -2.4530 -1.1569
  164MOL    C9826504   6.470   3.494   2.988  1.0294 -0.2078  0.1568
  164MOL    C9926505   6.598   3.444   3.062  0.2708 -0.4769  0.1663
  164MOL   N10026506   6.580   3.301   3.082  0.6596  0.5863  0.6662
  164MOL   H10126507   6.447   3.415   2.917  0.8194 -1.1754  1.2915
  164MOL   H10226508   6.499   3.583   2.931  1.9555  0.6813  1.9846
  164MOL   H10326509   6.612   3.503   3.152  1.9228 -0.6502  0.0321
  164MOL   H10426510   6.566   3.251   2.996 -1.8992  1.1193  0.7321
  164MOL   H10526511   6.493   3.280   3.127  1.8896 -1.5331  2.1031
  164MOL   C10626512   6.723   3.469   2.976 -0.5768 -0.7755  0.2746
  164MOL   C10726513   6.767   3.618   2.967  0.6096  0.0008  0.6407
  164MOL   N10826514   6.865   3.649   3.060 -0.5032 -0.2994 -0.8631
  164MOL   H10926515   6.802   3.407   3.016  2.2510  0.5032 -3.0796
  164MOL   H11026516   6.709   3.417   2.881  2.8823 -0.8551 -0.2559
  164MOL   H11126517   6.683   3.685   2.986 -0.0143 -0.2020 -1.2542
  164MOL   H11226518   6.844   3.588   3.138 -0.0404  0.3668 -0.2152
  164MOL   H11326519   6.950   3.616   3.016 -1.2563 -0.5403 -2.1732
  164MOL   C11426520   6.820   3.651   2.825 -0.2478 -0.0619  0.3834
  164MOL   C11526521   6.713   3.655   2.714  0.4484 -0.5270 -0.4747
  164MOL   N11626522   6.639   3.775   2.730 -0.4110  0.3233  0.6081
  164MOL   H11726523   6.864   3.750   2.834 -1.7937  0.4895  2.2591
  164MOL   H11826524   6.894   3.574   2.805 -1.1601 -0.9526  0.4015
  164MOL   H11926525   6.644   3.572   2.729  1.2407 -0.8753  1.3574
  164MOL   H12026526   6.586   3.764   2.816  0.1777  2.1541  1.2458
  164MOL   H12126527   6.714   3.837   2.757  0.1946  0.0218 -0.3789
  164MOL   C12226528   6.772   3.674   2.568 -0.0375  0.1438 -0.3178
  164MOL   C12326529   6.819   3.546   2.487  0.5235  0.7871  0.0754
  164MOL   N12426530   6.961   3.528   2.514  0.1722  0.0559  0.2500
  164MOL   H12526531   6.693   3.712   2.504  0.9410  3.0258  0.1099
  164MOL   H12626532   6.847   3.752   2.553 -0.6881  0.7165 -0.6119
  164MOL   H12726533   6.808   3.580   2.384 -0.3971 -1.4114 -0.5902
  164MOL   H12826534   6.977   3.493   2.608  0.9536  0.8845  0.4342
  164MOL   H12926535   7.017   3.611   2.509  1.1018 -0.5775  0.0100
  164MOL   C13026536   6.745   3.411   2.499 -0.1559 -0.0150  0.3783
  164MOL   C13126537   6.603   3.404   2.439 -0.8723 -0.2523 -0.3392
  164MOL   N13226538   6.625   3.398   2.297  0.3828 -0.2394  0.6929
  164MOL   H13326539   6.793   3.326   2.450 -1.4633 -0.5683  0.0534
  164MOL   H13426540   6.743   3.387   2.605 -1.6315 -0.7850  0.1837
  164MOL   H13526541   6.545   3.491   2.470  1.4189  0.6741  1.4813
  164MOL   H13626542   6.551   3.339   2.263 -0.0980 -1.5359  3.8036
  164MOL   H13726543   6.618   3.484   2.244 -2.0660 -2.0188 -2.0476
  164MOL   C13826544   6.535   3.275   2.478 -0.0805 -0.1525  0.7858
  164MOL   C13926545   6.500   3.259   2.622  0.3667 -0.4806 -0.3521
  164MOL   N14026546   6.406   3.369   2.653  0.2265 -0.1689  1.0585
  164MOL   H14126547   6.439   3.278   2.427  0.1758  1.0295  0.3597
  164MOL   H14226548   6.596   3.191   2.444  2.2957  1.6841  0.3542
  164MOL   H14326549   6.589   3.275   2.682 -0.2139  1.5378  0.0342
  164MOL   H14426550   6.456   3.456   2.643  0.8615 -0.4080  2.0447
  164MOL   H14526551   6.315   3.359   2.609 -0.7350 -0.9673  3.1670
  164MOL   C14626552   6.432   3.126   2.662 -0.7739 -0.4805 -0.2154
  164MOL   C14726553   6.451   3.087   2.811  0.3631 -1.0148  0.0100
  164MOL   N14826554   6.388   3.188   2.896  0.3273  0.9386  0.4383
  164MOL   H14926555   6.325   3.126   2.642 -0.9554  1.0706  0.6908
  164MOL   H15026556   6.490   3.050   2.608 -0.6593 -1.6617  1.5088
  164MOL   H15126557   6.556   3.089   2.841  0.0945  0.3441  0.9484
  164MOL   H15226558   6.379   3.278   2.851 -1.1939  0.6948  0.2022
  164MOL   H15326559   6.296   3.150   2.916 -0.0990 -0.6351 -3.9264
  164MOL   C15426560   6.381   2.951   2.836 -0.6682 -0.3009  0.1327
  164MOL   C15526561   6.473   2.830   2.822 -0.3208  0.2952  0.0703
  164MOL   N15626562   6.411   2.699   2.847  0.3460 -0.5470  0.5096
  164MOL   H15726563   6.353   2.944   2.941 -2.0579 -0.3530 -0.2295
  164MOL   H15826564   6.285   2.938   2.786  0.0917 -1.1271 -1.1281
  164MOL   H15926565   6.561   2.843   2.886 -1.7207 -0.1331  2.1328
  164MOL   H16026566   6.368   2.696   2.938 -1.3923  1.8515 -0.1719
  164MOL   H16126567   6.333   2.681   2.786  1.6377 -3.1221 -0.4783
  164MOL   H16226568   6.506   2.834   2.718 -0.1602  1.3326  0.1573
  165MOL     C126569   3.706   2.407   5.525 -0.3554  0.3854  0.7101
  165MOL     C226570   3.822   2.381   5.431 -0.5205 -0.4361 -0.6281
  165MOL     N326571   3.797   2.394   5.284  0.3604 -1.0098 -0.2257
  165MOL     H426572   3.735   2.375   5.625 -0.1774 -0.0928  0.5072
  165MOL     H526573   3.620   2.350   5.489  0.3707  0.1922 -0.7488
  165MOL     H626574   3.863   2.284   5.461 -0.1541  0.3733  1.5677
  165MOL     H726575   3.698   2.380   5.266  0.7592  0.1656 -3.6205
  165MOL     H826576   3.841   2.322   5.229  1.2878 -0.5829 -0.0581
  165MOL     H926577   3.685   2.514   5.529 -2.3863  0.1324 -2.0606
  165MOL    C1026578   3.953   2.464   5.467 -0.0713  0.8644  0.2408
  165MOL    C1126579   4.010   2.415   5.597 -0.3679  0.8406 -0.6489
  165MOL    N1226580   4.137   2.351   5.562 -0.9700 -0.0042 -0.0975
  165MOL    H1326581   4.026   2.450   5.387 -1.1073 -1.3177 -0.3598
  165MOL    H1426582   3.930   2.570   5.456 -1.4000  0.6281  0.5980
  165MOL    H1526583   3.950   2.345   5.655  1.0367 -0.6125 -0.9038
  165MOL    H1626584   4.185   2.316   5.643 -0.5660 -1.1782 -0.8292
  165MOL    H1726585   4.194   2.411   5.504 -1.4017  1.4051  0.9188
  165MOL    C1826586   4.045   2.521   5.701  0.2114 -0.0361 -0.5806
  165MOL    C1926587   3.921   2.586   5.760  0.0021 -0.3062  0.5288
  165MOL    N2026588   3.928   2.590   5.908 -0.3691  0.4615 -0.3183
  165MOL    H2126589   4.118   2.486   5.774 -2.8524 -1.2863  1.9550
  165MOL    H2226590   4.083   2.605   5.643  0.2817  2.6461  3.1795
  165MOL    H2326591   3.834   2.526   5.732  1.5269 -1.0345 -2.8711
  165MOL    H2426592   3.936   2.503   5.959  2.6787  0.3959 -0.8135
  165MOL    H2526593   4.017   2.632   5.932 -0.0760 -0.2368 -0.1708
  165MOL    C2626594   3.894   2.737   5.714 -0.4805  0.1530 -0.6666
  165MOL    C2726595   3.765   2.806   5.770  0.2943  0.4384  0.4780
  165MOL    N2826596   3.765   2.953   5.754  0.3420  0.6609  0.0113
  165MOL    H2926597   3.984   2.797   5.728  1.2904 -2.6348  0.2875
  165MOL    H3026598   3.901   2.727   5.605  0.9303  0.3058 -0.5988
  165MOL    H3126599   3.763   2.788   5.877 -0.3551  0.0322  0.3966
  165MOL    H3226600   3.777   2.955   5.653 -0.4555 -2.6783 -0.2015
  165MOL    H3326601   3.671   2.985   5.772  0.1732 -0.3141  0.9386
  165MOL    C3426602   3.635   2.763   5.699 -0.4103  0.5646  0.6034
  165MOL    C3526603   3.497   2.792   5.758  0.3654  0.4710 -0.0607
  165MOL    N3626604   3.402   2.745   5.666  0.2782  0.6011  0.6411
  165MOL    H3726605   3.640   2.802   5.597  2.4097  0.4457  0.6598
  165MOL    H3826606   3.649   2.656   5.683 -0.0720  0.5011  1.3069
  165MOL    H3926607   3.475   2.898   5.767  0.6017  0.4589  0.7549
  165MOL    H4026608   3.390   2.801   5.584  0.2074  0.1301  0.3276
  165MOL    H4126609   3.316   2.751   5.720  0.0539 -0.7203  0.4542
  165MOL    C4226610   3.474   2.738   5.897  0.0095 -0.2275  0.0377
  165MOL    C4326611   3.505   2.589   5.905 -0.6232 -0.1503 -0.1790
  165MOL    N4426612   3.631   2.569   5.978  0.7613 -0.9217 -0.5331
  165MOL    H4526613   3.546   2.794   5.957  1.2414  0.9463 -2.4549
  165MOL    H4626614   3.371   2.762   5.925 -0.0916 -0.4968 -0.0976
  165MOL    H4726615   3.523   2.544   5.807  1.8336  1.2521 -0.3973
  165MOL    H4826616   3.705   2.592   5.914 -1.2142 -0.2295 -2.5998
  165MOL    H4926617   3.645   2.630   6.057  0.3025 -2.3174  0.6667
  165MOL    C5026618   3.382   2.510   5.958 -0.4683  0.6498 -0.5967
  165MOL    C5126619   3.252   2.500   5.862 -0.8085 -0.4251  0.2335
  165MOL    N5226620   3.293   2.449   5.729  0.6743 -0.4674  0.6386
  165MOL    H5326621   3.415   2.408   5.978  2.1958  1.2958 -1.5630
  165MOL    H5426622   3.366   2.553   6.056 -0.7964 -2.0334  0.5930
  165MOL    H5526623   3.225   2.605   5.858 -0.3035 -0.2340  1.7879
  165MOL    H5626624   3.214   2.432   5.668  1.5566 -3.7618  0.3165
  165MOL    H5726625   3.347   2.519   5.680 -1.8761 -1.4713 -3.9862
  165MOL    C5826626   3.134   2.413   5.918  0.7711  0.5565 -0.3827
  165MOL    C5926627   3.006   2.499   5.938 -0.4265 -0.1421 -0.2104
  165MOL    N6026628   2.900   2.398   5.930  0.1114 -0.0041  0.0585
  165MOL    H6126629   3.118   2.320   5.864  2.6830 -0.0486  0.0400
  165MOL    H6226630   3.172   2.365   6.008 -2.2578 -2.6518 -0.6888
  165MOL    H6326631   3.005   2.571   5.856  2.7408  1.1878  0.8876
  165MOL    H6426632   2.934   2.323   5.988 -0.6515 -1.3882 -1.2729
  165MOL    H6526633   2.900   2.367   5.834  3.6852  0.8208 -0.3161
  165MOL    C6626634   2.988   2.582   6.073  0.1474 -0.4487 -0.6376
  165MOL    C6726635   3.074   2.711   6.069 -0.7183 -0.2296 -0.1717
  165MOL    N6826636   3.022   2.809   5.972  0.4109 -0.4677  0.1896
  165MOL    H6926637   2.885   2.613   6.091  0.2077  0.1606 -1.3141
  165MOL    H7026638   3.022   2.516   6.152  1.6195  0.0475 -0.8452
  165MOL    H7126639   3.175   2.684   6.040 -0.4507  1.1741 -0.5783
  165MOL    H7226640   2.973   2.757   5.901  0.1146  0.8646 -0.6001
  165MOL    H7326641   3.106   2.853   5.936 -0.6522  2.0211  0.6651
  165MOL    C7426642   3.075   2.783   6.202 -0.4168 -0.0412  0.7302
  165MOL    C7526643   3.148   2.716   6.315  0.0952 -0.1101 -0.0649
  165MOL    N7626644   3.292   2.698   6.281  0.8229  0.2885 -0.5047
  165MOL    H7726645   3.109   2.884   6.181 -2.5739  0.4479 -0.6011
  165MOL    H7826646   2.973   2.795   6.237 -0.4887 -2.8052  1.5915
  165MOL    H7926647   3.103   2.621   6.343  0.4376 -0.2839 -0.1027
  165MOL    H8026648   3.285   2.658   6.188 -0.8640 -0.6645  0.0136
  165MOL    H8126649   3.330   2.615   6.325 -0.7886  1.6092  3.5771
  165MOL    C8226650   3.125   2.811   6.442 -0.5632 -0.0703  0.1852
  165MOL    C8326651   3.206   2.770   6.563  0.1104 -0.1648  0.4831
  165MOL    N8426652   3.159   2.860   6.669 -0.1285  0.0105 -0.1383
  165MOL    H8526653   3.138   2.916   6.417  0.1900  0.2726  1.9950
  165MOL    H8626654   3.018   2.794   6.458 -0.4775 -2.5801 -1.5281
  165MOL    H8726655   3.311   2.776   6.531 -0.3760 -2.7570 -1.8463
  165MOL    H8826656   3.211   2.820   6.745  2.3372  1.0174 -1.2268
  165MOL    H8926657   3.063   2.845   6.695  0.1021 -0.8215  0.2527
  165MOL    C9026658   3.179   2.627   6.617 -0.5647  0.1534 -0.5364
  165MOL    C9126659   3.288   2.575   6.714  0.4812  0.0201  1.1253
  165MOL    N9226660   3.276   2.641   6.838  0.6031  0.3523  0.4406
  165MOL    H9326661   3.086   2.629   6.673 -1.3519  3.2658 -1.8760
  165MOL    H9426662   3.167   2.549   6.542  1.5813  0.3914 -1.1769
  165MOL    H9526663   3.382   2.603   6.664  1.0223  0.8125  2.5656
  165MOL    H9626664   3.363   2.625   6.886  0.9373 -1.0079 -0.5697
  165MOL    H9726665   3.193   2.627   6.895  1.4646 -1.6098  1.2544
  165MOL    C9826666   3.279   2.426   6.738 -0.2024  0.7242  0.6138
  165MOL    C9926667   3.400   2.352   6.797  0.3556 -0.2309  0.1885
  165MOL   N10026668   3.348   2.216   6.813  0.0111  0.6414  0.5481
  165MOL   H10126669   3.192   2.403   6.800  0.0513 -0.3599  0.5705
  165MOL   H10226670   3.261   2.379   6.641  0.8950 -0.3965  0.9489
  165MOL   H10326671   3.421   2.376   6.901 -0.6349  2.0169 -0.0979
  165MOL   H10426672   3.417   2.142   6.808  0.3359  0.6131  3.9253
  165MOL   H10526673   3.294   2.198   6.897 -1.9513  0.3378 -0.7545
  165MOL   C10626674   3.535   2.346   6.717 -0.1398  0.1823  0.1474
  165MOL   C10726675   3.634   2.445   6.781 -0.1921 -0.1854  0.2143
  165MOL   N10826676   3.693   2.385   6.902 -0.2498 -0.2674 -0.5539
  165MOL   H10926677   3.578   2.246   6.716 -0.9619 -0.1631 -0.8206
  165MOL   H11026678   3.515   2.364   6.612  0.6395  0.8128  0.0951
  165MOL   H11126679   3.581   2.534   6.816  2.8437  1.5603  0.5745
  165MOL   H11226680   3.648   2.298   6.928 -0.3000 -0.2527 -0.5929
  165MOL   H11326681   3.681   2.447   6.981  1.2294  1.7253 -1.8571
  165MOL   C11426682   3.735   2.483   6.680  0.0404 -0.0116 -0.6803
  165MOL   C11526683   3.694   2.562   6.556  0.0416 -0.2024 -0.1823
  165MOL   N11626684   3.701   2.711   6.581  0.8142  0.4996 -0.6961
  165MOL   H11726685   3.807   2.547   6.731 -1.1299  0.7100  0.0781
  165MOL   H11826686   3.789   2.393   6.650 -0.2178  0.3891 -2.4239
  165MOL   H11926687   3.595   2.532   6.524 -0.9781  1.5847  1.1605
  165MOL   H12026688   3.787   2.731   6.629  0.0686  0.5860  0.6312
  165MOL   H12126689   3.632   2.728   6.653 -0.1840 -1.5139 -1.1419
  165MOL   C12226690   3.800   2.532   6.445  0.0480 -0.1980 -0.1016
  165MOL   C12326691   3.777   2.408   6.362 -0.9321  0.5435 -0.1348
  165MOL   N12426692   3.658   2.426   6.276 -0.1150 -0.3752 -0.1791
  165MOL   H12526693   3.800   2.615   6.373 -2.1482  1.4696  1.7575
  165MOL   H12626694   3.902   2.536   6.484 -0.0756  0.1922  0.1857
  165MOL   H12726695   3.757   2.322   6.426  0.7070  0.1580 -0.1188
  165MOL   H12826696   3.640   2.351   6.211  1.6000 -0.5735 -0.4409
  165MOL   H12926697   3.674   2.499   6.208  0.0320 -1.3105 -1.1669
  165MOL   C13026698   3.907   2.368   6.279  0.3720 -0.4218  0.2700
  165MOL   C13126699   3.945   2.216   6.286  0.8216  0.2027 -0.0297
  165MOL   N13226700   3.965   2.147   6.164 -0.0216  0.0814 -0.3638
  165MOL   H13326701   3.883   2.389   6.175 -0.7423  1.6601  0.9182
  165MOL   H13426702   3.986   2.438   6.305  0.4009 -0.2777 -0.2026
  165MOL   H13526703   3.867   2.163   6.341  2.6346 -1.0857  1.3193
  165MOL   H13626704   3.974   2.049   6.187 -1.5237  0.0298  0.0690
  165MOL   H13726705   3.876   2.149   6.116  0.2709  3.3682 -0.8977
  165MOL   C13826706   4.075   2.202   6.372  0.1985  0.1967 -0.3274
  165MOL   C13926707   4.059   2.244   6.520  0.1522  0.0316  0.4829
  165MOL   N14026708   3.978   2.137   6.577 -0.1073  0.0590 -0.1053
  165MOL   H14126709   4.111   2.101   6.357  0.9493  0.2090  1.2299
  165MOL   H14226710   4.146   2.268   6.321  0.5486 -0.9030 -1.2779
  165MOL   H14326711   4.003   2.338   6.525 -1.5100 -0.9516  0.7391
  165MOL   H14426712   4.031   2.054   6.597 -0.7810 -0.6332 -1.1133
  165MOL   H14526713   3.950   2.165   6.670 -0.8405 -1.6678  0.2017
  165MOL   C14626714   4.186   2.273   6.603 -0.5268 -0.1722 -0.2492
  165MOL   C14726715   4.198   2.421   6.623  0.5370 -0.4845  0.6825
  165MOL   N14826716   4.306   2.441   6.714 -0.0671  0.1883 -0.0150
  165MOL   H14926717   4.172   2.230   6.701  0.4397 -0.8013 -0.3808
  165MOL   H15026718   4.268   2.221   6.553 -2.9399 -2.4457 -1.9187
  165MOL   H15126719   4.115   2.467   6.676  1.1279 -0.3329  1.4939
  165MOL   H15226720   4.330   2.538   6.731 -4.6507  1.6136 -1.1097
  165MOL   H15326721   4.271   2.411   6.804  1.1146 -0.7665  0.1441
  165MOL   C15426722   4.233   2.493   6.496  0.4477  0.8440  0.4012
  165MOL   C15526723   4.360   2.426   6.424  0.3576  0.5275  0.5786
  165MOL   N15626724   4.405   2.515   6.320  1.2026  0.6312  0.1582
  165MOL   H15726725   4.151   2.510   6.425 -1.0732 -0.2228  1.8509
  165MOL   H15826726   4.259   2.598   6.511 -0.7442  1.0459  1.1903
  165MOL   H15926727   4.356   2.323   6.388  2.1800  0.8867 -0.7384
  165MOL   H16026728   4.389   2.612   6.342 -2.1936 -0.1294  1.2128
  165MOL   H16126729   4.344   2.508   6.240  0.5219 -0.2355  0.7393
  165MOL   H16226730   4.442   2.433   6.495  0.5942  1.9453  0.1767
  166MOL     C126731   2.308   2.064   6.100  0.0505  0.5356 -0.3930
  166MOL     C226732   2.296   2.195   6.013  0.1748 -0.4119 -0.3869
  166MOL     N326733   2.154   2.234   6.009  0.1519  0.4141  0.1325
  166MOL     H426734   2.248   1.989   6.047 -0.7723 -0.2725  1.6478
  166MOL     H526735   2.271   2.068   6.202  0.8926 -0.2993 -0.0383
  166MOL     H626736   2.326   2.171   5.911  1.8373  1.8947 -0.4817
  166MOL     H726737   2.163   2.333   5.996  0.1501  0.5910  1.3968
  166MOL     H826738   2.111   2.211   6.098 -1.5000 -0.3978 -0.8559
  166MOL     H926739   2.410   2.026   6.094 -0.1164 -0.1368  0.8846
  166MOL    C1026740   2.380   2.311   6.066  0.2960  0.3757  0.2259
  166MOL    C1126741   2.530   2.314   6.012  0.2750 -0.1004 -0.8711
  166MOL    N1226742   2.587   2.438   6.050 -0.1538 -0.1786  0.2298
  166MOL    H1326743   2.332   2.406   6.040  0.1248  0.0839 -0.5488
  166MOL    H1426744   2.377   2.302   6.174 -3.6240 -2.1983 -0.0284
  166MOL    H1526745   2.534   2.320   5.903 -0.5682  3.2753 -0.7778
  166MOL    H1626746   2.571   2.511   5.983  1.3413  2.0534  2.2153
  166MOL    H1726747   2.687   2.421   6.047  0.2232  2.1253 -0.8681
  166MOL    C1826748   2.627   2.207   6.062  0.2965 -0.8610  0.0475
  166MOL    C1926749   2.649   2.096   5.963  0.5078 -0.3289  0.0656
  166MOL    N2026750   2.720   2.149   5.853  0.1168 -0.5018  0.5318
  166MOL    H2126751   2.724   2.248   6.089 -0.4947  0.8535  0.3367
  166MOL    H2226752   2.578   2.164   6.149 -0.3322 -1.9369 -0.8094
  166MOL    H2326753   2.551   2.054   5.939  0.4559  1.4823 -3.2619
  166MOL    H2426754   2.676   2.239   5.838  0.3388 -0.4264  0.3286
  166MOL    H2526755   2.814   2.181   5.869  0.6966 -1.4484 -0.8667
  166MOL    C2626756   2.737   1.981   6.016 -0.1271 -0.3548 -0.5222
  166MOL    C2726757   2.741   1.859   5.924  0.6842 -0.3598 -0.5094
  166MOL    N2826758   2.791   1.742   6.003 -0.1562  0.0545 -0.6598
  166MOL    H2926759   2.840   2.009   6.038  0.5602 -2.3703 -0.9913
  166MOL    H3026760   2.697   1.961   6.116 -2.2866 -0.2429 -1.3241
  166MOL    H3126761   2.796   1.888   5.835 -1.3340 -1.2763 -2.1061
  166MOL    H3226762   2.784   1.662   5.942  2.9873 -0.2796 -0.6696
  166MOL    H3326763   2.889   1.756   6.025 -0.9961  2.3068  1.8843
  166MOL    C3426764   2.594   1.827   5.872 -0.3704 -0.1290  0.4089
  166MOL    C3526765   2.555   1.689   5.806 -0.2826 -0.3484  0.6863
  166MOL    N3626766   2.410   1.691   5.789 -0.1659 -0.1911  0.3707
  166MOL    H3726767   2.535   1.831   5.964 -0.5606 -0.4711  0.3029
  166MOL    H3826768   2.552   1.907   5.812 -1.4997  1.0470  2.7239
  166MOL    H3926769   2.577   1.610   5.877 -0.2955 -0.2204  0.8336
  166MOL    H4026770   2.371   1.688   5.882 -2.1202  1.5394 -0.3658
  166MOL    H4126771   2.370   1.608   5.746 -1.1994 -0.2864  1.4891
  166MOL    C4226772   2.633   1.658   5.678  0.2920  0.0068 -0.3452
  166MOL    C4326773   2.610   1.518   5.619 -0.4652  0.7003 -0.0241
  166MOL    N4426774   2.606   1.532   5.473  0.6476  0.1712 -0.0798
  166MOL    H4526775   2.613   1.737   5.605 -2.2286 -0.5738 -0.3311
  166MOL    H4626776   2.740   1.657   5.698  0.0722 -1.0967  0.8772
  166MOL    H4726777   2.509   1.484   5.639  0.7882 -1.9178  2.2903
  166MOL    H4826778   2.548   1.614   5.458  0.7698  0.1773 -0.5119
  166MOL    H4926779   2.695   1.566   5.439 -0.0811  3.2374  0.8630
  166MOL    C5026780   2.716   1.412   5.655 -0.6996  0.2505 -0.3326
  166MOL    C5126781   2.713   1.372   5.800  0.3750  0.1988  0.6020
  166MOL    N5226782   2.603   1.279   5.825 -0.6138  0.4401  0.3164
  166MOL    H5326783   2.706   1.333   5.581  0.3130 -0.5158  0.3429
  166MOL    H5426784   2.813   1.455   5.630 -0.2152 -0.2644  0.6381
  166MOL    H5526785   2.696   1.462   5.859 -2.0540  0.4816 -0.4827
  166MOL    H5626786   2.615   1.200   5.764 -0.8801 -0.5927  1.6037
  166MOL    H5726787   2.620   1.233   5.913 -1.8685  0.3749  0.5295
  166MOL    C5826788   2.847   1.296   5.828  0.2211  0.5672 -0.4451
  166MOL    C5926789   2.966   1.387   5.833 -0.0968  0.3574 -0.2184
  166MOL    N6026790   2.947   1.486   5.944 -0.1027  0.8726 -0.3577
  166MOL    H6126791   2.829   1.256   5.928  2.9434 -0.4728 -0.3463
  166MOL    H6226792   2.862   1.214   5.758  1.6724  2.4337 -2.4100
  166MOL    H6326793   2.986   1.420   5.731  0.3344 -2.9762 -1.2693
  166MOL    H6426794   3.036   1.510   5.985 -0.1084  0.1984  0.0483
  166MOL    H6526795   2.906   1.433   6.019 -0.1626  0.8387 -0.4154
  166MOL    C6626796   3.086   1.296   5.883  0.1736  0.6126 -0.2332
  166MOL    C6726797   3.142   1.199   5.787  0.7135  0.1367  0.8882
  166MOL    N6826798   3.221   1.267   5.695  0.0016  0.1008  0.7415
  166MOL    H6926799   3.174   1.356   5.906 -1.2090  1.7494  2.2592
  166MOL    H7026800   3.060   1.252   5.980  0.8326 -2.8148 -1.5274
  166MOL    H7126801   3.060   1.166   5.723  0.0990  1.5184  0.9454
  166MOL    H7226802   3.296   1.318   5.741  0.4268  0.5813 -0.4452
  166MOL    H7326803   3.269   1.212   5.626 -0.9209  0.7284 -0.4276
  166MOL    C7426804   3.221   1.078   5.844 -0.1957  0.5866  0.6296
  166MOL    C7526805   3.139   0.986   5.933  0.7230 -0.2783  0.4207
  166MOL    N7626806   3.154   0.853   5.893  0.2337  0.0390 -0.0718
  166MOL    H7726807   3.254   1.015   5.762 -1.7110 -1.1159  1.3036
  166MOL    H7826808   3.316   1.111   5.887  0.5319  1.1849 -1.3935
  166MOL    H7926809   3.034   1.007   5.911  1.0236  1.0496  0.2220
  166MOL    H8026810   3.082   0.809   5.948 -0.1513 -0.4957 -0.9929
  166MOL    H8126811   3.110   0.861   5.803  1.6846 -0.1311 -0.8155
  166MOL    C8226812   3.183   1.010   6.076 -0.0260  1.3494 -0.1316
  166MOL    C8326813   3.120   0.930   6.193 -0.5891  0.7775 -0.3423
  166MOL    N8426814   3.196   0.938   6.317 -0.6320 -0.1263 -0.5813
  166MOL    H8526815   3.291   0.994   6.083 -0.6182 -2.9186  0.5856
  166MOL    H8626816   3.170   1.116   6.100  0.0069  1.1277  0.9077
  166MOL    H8726817   3.097   0.832   6.151  0.5406 -0.8687  2.7517
  166MOL    H8826818   3.271   0.871   6.307  0.1533  0.5838  0.4593
  166MOL    H8926819   3.143   0.895   6.391  0.6314 -0.2725  0.2712
  166MOL    C9026820   2.971   0.978   6.229  0.0380  0.2137  0.2193
  166MOL    C9126821   2.942   1.129   6.260 -0.9761 -0.0509  0.1013
  166MOL    N9226822   2.800   1.147   6.249 -0.0964  0.2157  0.3146
  166MOL    H9326823   2.903   0.947   6.150 -0.5071  1.9025  0.0086
  166MOL    H9426824   2.932   0.927   6.318  1.8806 -0.9901  0.3527
  166MOL    H9526825   2.992   1.184   6.181  0.1687 -1.5686 -0.2660
  166MOL    H9626826   2.759   1.093   6.175  0.3814  0.0209  0.1884
  166MOL    H9726827   2.765   1.242   6.240 -0.0371  0.3150  1.0756
  166MOL    C9826828   2.988   1.181   6.404 -0.2562 -0.0866  0.1679
  166MOL    C9926829   2.961   1.325   6.441  0.0235 -0.2094  0.3557
  166MOL   N10026830   2.995   1.338   6.583  0.2299  0.1107  0.0449
  166MOL   H10126831   2.940   1.122   6.483 -1.9348  0.6131 -0.3003
  166MOL   H10226832   3.096   1.171   6.403 -0.2741 -0.2675  0.0653
  166MOL   H10326833   2.853   1.336   6.429 -0.0432 -2.3017 -1.1474
  166MOL   H10426834   3.023   1.433   6.603  1.4554  0.7606 -4.2363
  166MOL   H10526835   2.907   1.329   6.633 -0.6481  0.9280 -1.3300
  166MOL   C10626836   3.045   1.420   6.352  0.7118 -0.2127 -0.2242
  166MOL   C10726837   3.015   1.566   6.386  0.0766  0.5577  0.7521
  166MOL   N10826838   3.122   1.649   6.328  0.2294  0.2984 -0.0298
  166MOL   H10926839   3.150   1.390   6.350  1.3503  1.9931 -1.8280
  166MOL   H11026840   3.021   1.403   6.247  1.0751 -0.3548 -0.2868
  166MOL   H11126841   3.001   1.580   6.493  0.5371 -0.5894  0.9662
  166MOL   H11226842   3.067   1.729   6.302  1.0378  1.4233  1.6072
  166MOL   H11326843   3.155   1.621   6.237  3.0400 -1.3128  1.4262
  166MOL   C11426844   2.877   1.623   6.338  0.0657 -1.3268 -0.1027
  166MOL   C11526845   2.847   1.769   6.378  0.8056  0.5336 -0.5947
  166MOL   N11626846   2.912   1.855   6.284  0.2172  0.0723  0.2711
  166MOL   H11726847   2.870   1.601   6.232 -0.0874 -2.1843  0.0837
  166MOL   H11826848   2.812   1.557   6.396  1.5767 -1.4145  1.5546
  166MOL   H11926849   2.893   1.779   6.475 -1.7557 -0.2572  0.7547
  166MOL   H12026850   2.917   1.950   6.316  1.4234  0.4302 -0.9179
  166MOL   H12126851   2.849   1.860   6.205 -0.1988 -1.0414  0.5214
  166MOL   C12226852   2.697   1.810   6.380  0.0983 -0.5341 -0.0803
  166MOL   C12326853   2.623   1.750   6.507 -1.1039  0.6373  0.4413
  166MOL   N12426854   2.695   1.786   6.632  0.6631 -0.5126  0.3097
  166MOL   H12526855   2.680   1.918   6.383 -1.7422 -0.7911 -0.7694
  166MOL   H12626856   2.638   1.782   6.293  2.2190 -0.5991 -1.5250
  166MOL   H12726857   2.622   1.643   6.488 -2.4783  0.7957 -0.5124
  166MOL   H12826858   2.764   1.849   6.594 -0.4571 -0.5308 -1.8248
  166MOL   H12926859   2.638   1.838   6.696  0.3485  0.3564 -0.6688
  166MOL   C13026860   2.474   1.800   6.518  0.0909  0.0966 -0.3619
  166MOL   C13126861   2.362   1.712   6.451 -0.2299 -0.3418 -0.0360
  166MOL   N13226862   2.233   1.737   6.522 -0.2533 -0.0380 -0.6952
  166MOL   H13326863   2.454   1.825   6.622 -0.2276  0.9533 -0.6251
  166MOL   H13426864   2.473   1.897   6.470 -0.4946  0.6814  0.8071
  166MOL   H13526865   2.377   1.604   6.456  0.1406 -0.3378 -0.9673
  166MOL   H13626866   2.228   1.669   6.597 -1.8437  0.6418 -0.1619
  166MOL   H13726867   2.154   1.712   6.465  0.2646 -2.7147 -0.3257
  166MOL   C13826868   2.334   1.727   6.300 -0.3379  0.2027 -0.1576
  166MOL   C13926869   2.349   1.604   6.208 -0.1908 -0.4103 -0.1459
  166MOL   N14026870   2.316   1.643   6.066 -0.2959  0.0751  0.1317
  166MOL   H14126871   2.245   1.785   6.277 -0.1608  0.3890 -0.3698
  166MOL   H14226872   2.402   1.804   6.265  1.7778 -1.1997  0.7497
  166MOL   H14326873   2.279   1.526   6.237 -1.7706  1.0804  0.1434
  166MOL   H14426874   2.221   1.677   6.055  0.5361  2.5273  0.3747
  166MOL   H14526875   2.320   1.554   6.019  0.2817 -0.4373  1.1431
  166MOL   C14626876   2.499   1.549   6.201 -0.6083  0.1891  0.0575
  166MOL   C14726877   2.523   1.404   6.164 -0.7284 -0.1330  0.4685
  166MOL   N14826878   2.661   1.383   6.129  0.5119  0.1734 -0.8398
  166MOL   H14926879   2.560   1.601   6.127 -0.8802 -1.9628 -1.7408
  166MOL   H15026880   2.541   1.561   6.301  1.6285  0.2064 -0.8500
  166MOL   H15126881   2.455   1.391   6.080  0.9523  3.1163 -1.4645
  166MOL   H15226882   2.705   1.473   6.122 -2.3980  2.0447  2.9450
  166MOL   H15326883   2.642   1.345   6.038  2.2933 -1.3118 -0.6201
  166MOL   C15426884   2.473   1.311   6.276 -0.4788 -0.3161 -1.0092
  166MOL   C15526885   2.432   1.169   6.237 -0.5734  0.3504 -0.6141
  166MOL   N15626886   2.390   1.091   6.350 -0.1841 -0.1419  0.2956
  166MOL   H15726887   2.549   1.311   6.354 -1.8642 -1.3154  0.3637
  166MOL   H15826888   2.390   1.360   6.326  1.7935  0.8926  1.6960
  166MOL   H15926889   2.514   1.117   6.187 -0.6153  1.3846 -1.7762
  166MOL   H16026890   2.446   1.120   6.430  1.1990 -0.6741 -0.4647
  166MOL   H16126891   2.298   1.124   6.372  0.8460  2.7641  0.4794
  166MOL   H16226892   2.359   1.164   6.157 -0.4543 -1.8650 -0.6173
  167MOL     C126893   0.501   5.918   5.223  0.4667 -0.7830 -0.7354
  167MOL     C226894   0.554   6.056   5.188  0.2173 -0.0425 -0.0756
  167MOL     N326895   0.599   6.043   5.047 -0.7543  0.0119  0.4112
  167MOL     H426896   0.463   5.909   5.325  1.2495 -2.3359 -0.5502
  167MOL     H526897   0.594   5.860   5.225  0.2590 -1.1033  0.7818
  167MOL     H626898   0.642   6.078   5.248  0.9342  0.7860 -1.4111
  167MOL     H726899   0.640   6.129   5.015 -2.2609  0.5348 -0.1975
  167MOL     H826900   0.680   5.982   5.049 -0.5644  0.2971  2.1554
  167MOL     H926901   0.425   5.887   5.151 -1.8210 -0.3053  1.4157
  167MOL    C1026902   0.464   6.179   5.202  0.7584 -0.1596  0.4715
  167MOL    C1126903   0.420   6.219   5.350  0.6970 -0.4352  0.1447
  167MOL    N1226904   0.533   6.286   5.420  0.3283  0.4596  0.0324
  167MOL    H1326905   0.526   6.254   5.154 -1.7992  0.8878 -1.3231
  167MOL    H1426906   0.379   6.179   5.133  1.5487  0.6499 -0.5141
  167MOL    H1526907   0.393   6.129   5.405  1.7402 -0.0992  1.2226
  167MOL    H1626908   0.495   6.307   5.511 -0.5409 -1.5762  0.1534
  167MOL    H1726909   0.544   6.381   5.387  1.8452  0.3051  0.0403
  167MOL    C1826910   0.288   6.299   5.347 -0.0349 -0.1996 -0.1440
  167MOL    C1926911   0.240   6.340   5.486  0.3164  0.2426 -0.5144
  167MOL    N2026912   0.320   6.458   5.528 -0.2567  0.4408 -0.5078
  167MOL    H2126913   0.295   6.376   5.270  0.1977  0.2744  0.3434
  167MOL    H2226914   0.206   6.239   5.307  0.8294 -2.8761  1.9295
  167MOL    H2326915   0.267   6.261   5.556  2.1980  3.0283  2.0314
  167MOL    H2426916   0.257   6.518   5.579  0.3138  2.2002 -1.8056
  167MOL    H2526917   0.346   6.522   5.454 -2.0198  1.2574 -0.4484
  167MOL    C2626918   0.094   6.381   5.492 -0.1591 -0.2606  0.0724
  167MOL    C2726919   0.003   6.287   5.571  0.1477  0.0116 -0.2852
  167MOL    N2826920   7.147   6.343   5.590 -0.8869 -0.0556  0.1727
  167MOL    H2926921   0.088   6.482   5.532 -0.4130 -0.0427 -0.5137
  167MOL    H3026922   0.052   6.393   5.392  0.4635 -1.1989 -0.3124
  167MOL    H3126923   0.039   6.271   5.673 -1.8108  0.1899  0.4525
  167MOL    H3226924   7.159   6.421   5.654  1.5939  0.2342 -0.5958
  167MOL    H3326925   7.099   6.276   5.648  0.8466 -0.1110  1.5881
  167MOL    C3426926   7.256   6.151   5.501  0.0356 -0.0825  0.0967
  167MOL    C3526927   0.049   6.021   5.565  0.0498 -0.0161 -0.0599
  167MOL    N3626928   7.248   5.985   5.676 -0.3727 -0.7336  0.5705
  167MOL    H3726929   7.150   6.127   5.508  0.2631 -0.6796  1.6298
  167MOL    H3826930   7.266   6.165   5.393  0.1380  1.2691  0.2747
  167MOL    H3926931   0.150   6.041   5.599 -0.1517 -0.3265  0.7367
  167MOL    H4026932   7.159   5.956   5.639 -0.0646 -1.5970  0.5020
  167MOL    H4126933   7.238   6.069   5.732 -3.1423 -0.1853 -0.6736
  167MOL    C4226934   0.039   5.904   5.468 -0.9864 -0.0227 -0.8942
  167MOL    C4326935   0.169   5.864   5.395 -0.4884  0.1019 -0.0668
  167MOL    N4426936   0.246   5.794   5.496 -0.4550  0.1931  0.2045
  167MOL    H4526937   7.269   5.809   5.495  2.4926 -1.2224  1.1575
  167MOL    H4626938   7.243   5.947   5.397 -1.4906  2.2635  0.9400
  167MOL    H4726939   0.232   5.946   5.359 -3.2379  3.1422  1.7893
  167MOL    H4826940   0.207   5.826   5.583  1.3194  0.4283  0.9268
  167MOL    H4926941   0.336   5.839   5.502  0.0868 -0.7776 -0.4700
  167MOL    C5026942   0.129   5.761   5.282 -0.2711 -0.1303 -0.3638
  167MOL    C5126943   0.045   5.804   5.162  0.9394 -0.8362 -0.1112
  167MOL    N5226944   0.120   5.898   5.084  0.3754 -0.1147  0.5171
  167MOL    H5326945   0.227   5.721   5.254  0.4375  1.1202  0.2867
  167MOL    H5426946   0.079   5.683   5.340 -0.7060  1.5788  1.6358
  167MOL    H5526947   7.232   5.856   5.199  0.4056 -1.2861 -0.7558
  167MOL    H5626948   0.207   5.849   5.071 -0.7438 -2.3485  1.1838
  167MOL    H5726949   0.153   5.970   5.146  2.1712 -1.8278  1.6163
  167MOL    C5826950   0.017   5.676   5.085  0.3324  0.3204  0.5552
  167MOL    C5926951   7.170   5.688   4.989  0.0237 -0.5121  0.6217
  167MOL    N6026952   7.179   5.590   4.874 -0.4174 -0.0253  0.6272
  167MOL    H6126953   0.104   5.647   5.028  1.3908 -0.8327  2.6899
  167MOL    H6226954   7.268   5.591   5.149 -0.7266  1.2502  1.4184
  167MOL    H6326955   7.166   5.790   4.952 -3.5199 -0.2918  1.4418
  167MOL    H6426956   7.105   5.594   4.806 -0.1636 -0.4808  0.3219
  167MOL    H6526957   7.204   5.494   4.893 -3.3453 -0.9026  0.1943
  167MOL    C6626958   7.028   5.669   5.060 -0.2969 -0.4259 -0.4885
  167MOL    C6726959   6.974   5.785   5.143  0.0452 -0.6114  0.2601
  167MOL    N6826960   6.949   5.899   5.061 -0.4873  1.4339 -0.3820
  167MOL    H6926961   6.960   5.648   4.978  0.6674 -1.3755 -1.0631
  167MOL    H7026962   7.031   5.578   5.121  0.8455  1.1691  1.9282
  167MOL    H7126963   7.050   5.801   5.220  1.3143 -0.7190 -0.9511
  167MOL    H7226964   6.995   5.888   4.972 -1.6134  0.0765 -0.8100
  167MOL    H7326965   6.990   5.983   5.100  0.6236  0.0738  1.4422
  167MOL    C7426966   6.843   5.748   5.215  1.2617 -0.0252 -0.4859
  167MOL    C7526967   6.786   5.852   5.314 -0.2436 -0.3014  0.1586
  167MOL    N7626968   6.655   5.809   5.343  0.0897  0.0921 -0.1010
  167MOL    H7726969   6.767   5.729   5.140  0.0492  0.0706  0.6859
  167MOL    H7826970   6.870   5.655   5.265  1.5790  0.1848 -0.2640
  167MOL    H7926971   6.783   5.948   5.261  0.6617 -1.0188 -1.2257
  167MOL    H8026972   6.619   5.863   5.420  0.2304  1.3225 -0.8922
  167MOL    H8126973   6.661   5.721   5.392 -2.2723  0.8543  1.6220
  167MOL    C8226974   6.871   5.874   5.437 -0.0361 -0.4187 -0.3990
  167MOL    C8326975   6.840   5.989   5.535  0.7127  0.5377 -0.1858
  167MOL    N8426976   6.936   5.988   5.641  0.0209 -0.1436  0.2557
  167MOL    H8526977   6.888   5.777   5.486 -1.6855 -1.7739 -2.4542
  167MOL    H8626978   6.968   5.896   5.392  0.2703 -0.5907  0.1664
  167MOL    H8726979   6.743   5.961   5.575  0.4082  0.2999 -1.0864
  167MOL    H8826980   6.880   5.999   5.725 -1.8955 -2.2474 -0.7051
  167MOL    H8926981   6.969   5.893   5.647  1.7545  0.4284 -0.1937
  167MOL    C9026982   6.835   6.133   5.477  0.8018 -0.0571 -0.2824
  167MOL    C9126983   6.759   6.231   5.571  1.1034  0.2568  0.0122
  167MOL    N9226984   6.830   6.353   5.564  0.1568 -0.1386 -0.1135
  167MOL    H9326985   6.929   6.174   5.440  0.0723  2.3044  0.3473
  167MOL    H9426986   6.774   6.133   5.387  2.2840 -1.0325 -1.3153
  167MOL    H9526987   6.751   6.187   5.671 -1.6410 -0.0173 -0.2866
  167MOL    H9626988   6.793   6.393   5.480  0.3610  0.1289 -0.0765
  167MOL    H9726989   6.930   6.343   5.553  0.2877  2.5966 -1.8072
  167MOL    C9826990   6.602   6.242   5.528  0.6226 -0.1120  0.7019
  167MOL    C9926991   6.530   6.107   5.527 -0.5036 -0.3502 -0.0201
  167MOL   N10026992   6.525   6.066   5.668  0.3795 -0.0933  0.4371
  167MOL   H10126993   6.549   6.313   5.591 -1.6393 -2.9812  2.1260
  167MOL   H10226994   6.604   6.289   5.429  0.6461 -0.9056  0.3185
  167MOL   H10326995   6.576   6.031   5.463 -1.7104 -0.7472 -0.4428
  167MOL   H10426996   6.491   5.973   5.685  0.6663  0.0127  1.5837
  167MOL   H10526997   6.451   6.117   5.715  1.0508  2.8488 -1.5063
  167MOL   C10626998   6.387   6.115   5.471 -0.1976 -0.1450  0.6318
  167MOL   C10726999   6.375   6.114   5.310 -0.2825 -0.5478 -0.0396
  167MOL   N10827000   6.264   6.026   5.285 -0.0458 -0.2279 -0.4795
  167MOL   H10927001   6.334   6.030   5.512 -0.0985 -0.4694  0.0916
  167MOL   H11027002   6.329   6.203   5.499 -0.7578  0.2702 -1.6729
  167MOL   H11127003   6.461   6.064   5.266 -0.4423 -1.2757  0.4521
  167MOL   H11227004   6.282   5.932   5.319 -1.9921 -0.4967 -0.1328
  167MOL   H11327005   6.178   6.053   5.331  1.6177  2.1188  1.3290
  167MOL   C11427006   6.348   6.254   5.239 -0.1684 -0.4100 -0.3570
  167MOL   C11527007   6.401   6.250   5.096  0.5782  0.3601 -0.0470
  167MOL   N11627008   6.337   6.361   5.030  0.0368 -0.5863 -0.1234
  167MOL   H11727009   6.245   6.280   5.263 -0.4899  0.5254 -2.6956
  167MOL   H11827010   6.395   6.337   5.292 -1.9261  1.5533 -1.7793
  167MOL   H11927011   6.364   6.159   5.048  2.8207 -2.1595  2.7624
  167MOL   H12027012   6.330   6.327   4.935  0.2497 -1.3451  0.1252
  167MOL   H12127013   6.245   6.374   5.069  0.2155 -1.6700  0.7132
  167MOL   C12227014   6.554   6.264   5.082  0.4711  0.7532  0.2820
  167MOL   C12327015   6.624   6.182   4.967  0.0238  0.0449  0.2607
  167MOL   N12427016   6.765   6.226   4.966 -0.4290  0.0632 -0.2218
  167MOL   H12527017   6.570   6.370   5.063 -3.3200  1.4587  0.6329
  167MOL   H12627018   6.608   6.247   5.175  0.8312  0.6605  0.0537
  167MOL   H12727019   6.560   6.213   4.885 -0.1616  0.7255  0.6604
  167MOL   H12827020   6.809   6.168   4.896  0.8492  2.4753 -1.4477
  167MOL   H12927021   6.809   6.183   5.046  0.2176 -1.6697 -1.4625
  167MOL   C13027022   6.618   6.021   4.973 -0.7501  0.0374 -0.0951
  167MOL   C13127023   6.654   5.947   4.839 -0.9862 -0.5195 -0.2028
  167MOL   N13227024   6.684   5.809   4.880  0.3464  0.4421  0.3097
  167MOL   H13327025   6.681   5.986   5.055 -1.3398  2.3639  1.3895
  167MOL   H13427026   6.517   5.988   4.996 -0.5199  0.6278  1.8328
  167MOL   H13527027   6.737   6.001   4.794 -0.9096 -0.4650  0.0040
  167MOL   H13627028   6.609   5.781   4.941  0.8496 -0.6857  0.4211
  167MOL   H13727029   6.762   5.816   4.943 -0.6196 -1.5577  1.7976
  167MOL   C13827030   6.542   5.937   4.733 -0.5128 -0.5402 -0.5897
  167MOL   C13927031   6.529   6.061   4.645  0.0560 -0.4935  0.7503
  167MOL   N14027032   6.613   6.040   4.522 -0.2941 -0.4591  0.1250
  167MOL   H14127033   6.544   5.849   4.670 -2.7253 -1.8590  1.1096
  167MOL   H14227034   6.452   5.916   4.791  0.4258  0.0011  1.1133
  167MOL   H14327035   6.563   6.156   4.685 -0.8790  0.1172  0.1298
  167MOL   H14427036   6.577   6.119   4.469 -0.4623  0.7838  2.0469
  167MOL   H14527037   6.704   6.068   4.554  0.3423 -1.2405 -0.9685
  167MOL   C14627038   6.385   6.087   4.596  0.4319  0.5525  0.2720
  167MOL   C14727039   6.289   6.135   4.706 -0.0406 -0.3048 -0.2381
  167MOL   N14827040   6.307   6.277   4.716  0.0031 -0.2273 -0.7329
  167MOL   H14927041   6.383   6.158   4.514  0.9748 -1.0668 -1.1820
  167MOL   H15027042   6.339   5.997   4.555  0.1399 -0.0120  1.7924
  167MOL   H15127043   6.311   6.092   4.804 -0.5607 -2.3780 -1.0001
  167MOL   H15227044   6.230   6.315   4.663  0.4079 -0.0983 -1.2294
  167MOL   H15327045   6.395   6.306   4.676 -0.4531 -0.3650 -1.8471
  167MOL   C15427046   6.144   6.094   4.671 -0.5655  0.4211  0.7409
  167MOL   C15527047   6.070   6.169   4.558  0.2299 -0.0405 -0.8747
  167MOL   N15627048   5.998   6.070   4.480 -0.2185  0.3311  0.5622
  167MOL   H15727049   6.149   5.986   4.656  1.5650  0.8683 -2.5114
  167MOL   H15827050   6.088   6.097   4.764  0.2263  2.8674  1.1698
  167MOL   H15927051   6.134   6.212   4.480  0.5177  0.5139 -0.3386
  167MOL   H16027052   5.929   6.105   4.416 -0.8227 -1.9041 -0.0447
  167MOL   H16127053   6.053   6.005   4.425 -1.0693 -0.6441  0.8475
  167MOL   H16227054   5.998   6.243   4.593  0.4413 -0.5286  0.6517
  168MOL     C127055   7.027   4.536   4.890 -0.0797  0.2646  0.3135
  168MOL     C227056   6.981   4.407   4.959 -0.4653 -0.7062 -0.4357
  168MOL     N327057   7.093   4.318   4.952  0.2876  0.3523 -0.4647
  168MOL     H427058   7.075   4.506   4.797 -3.7953  0.9217 -1.9267
  168MOL     H527059   7.108   4.584   4.946  0.1229  0.3849 -0.0847
  168MOL     H627060   6.894   4.363   4.912  0.5205 -1.7651 -1.3129
  168MOL     H727061   7.084   4.266   4.866 -0.1144  1.7561 -1.2910
  168MOL     H827062   7.083   4.249   5.026  0.8456 -2.3470 -2.8478
  168MOL     H927063   6.946   4.607   4.872  0.7883  0.6580 -2.2420
  168MOL    C1027064   6.934   4.435   5.103 -0.3902 -0.8173  0.0903
  168MOL    C1127065   6.793   4.501   5.115 -0.3594 -0.2164 -0.0990
  168MOL    N1227066   6.721   4.450   5.237  0.2794 -0.4728  0.2327
  168MOL    H1327067   6.932   4.337   5.151 -0.9297 -0.4007  0.9355
  168MOL    H1427068   7.007   4.490   5.162  1.4661 -3.2229  0.1260
  168MOL    H1527069   6.738   4.456   5.033 -2.9518 -0.7461  1.8402
  168MOL    H1627070   6.716   4.349   5.229 -0.7030 -0.3844 -0.3966
  168MOL    H1727071   6.783   4.460   5.316 -2.1478  0.3473  2.0744
  168MOL    C1827072   6.800   4.659   5.107  0.3670 -0.1777  0.9389
  168MOL    C1927073   6.689   4.729   5.022  0.1072 -0.3555  0.5917
  168MOL    N2027074   6.723   4.874   5.040  0.1394 -0.2351  0.2509
  168MOL    H2127075   6.782   4.692   5.209  0.5061 -0.0801  0.9311
  168MOL    H2227076   6.895   4.689   5.065  0.4674 -1.6785  0.0610
  168MOL    H2327077   6.594   4.708   5.072 -1.1279  1.0053 -1.1013
  168MOL    H2427078   6.640   4.905   5.089  0.0535  1.3810 -0.8748
  168MOL    H2527079   6.725   4.908   4.945 -2.3559 -0.7481 -0.0400
  168MOL    C2627080   6.687   4.699   4.866 -0.0426 -0.0358  0.5949
  168MOL    C2727081   6.553   4.732   4.803  0.4551 -0.2689 -0.5398
  168MOL    N2827082   6.559   4.736   4.656 -0.5326  0.0759  0.6164
  168MOL    H2927083   6.765   4.753   4.813  0.5294 -0.0097  1.4664
  168MOL    H3027084   6.711   4.594   4.846 -2.1918 -0.2393 -1.1147
  168MOL    H3127085   6.531   4.837   4.825  0.0371 -0.7555  1.4376
  168MOL    H3227086   6.467   4.759   4.622  0.2057  2.5869  0.2306
  168MOL    H3327087   6.566   4.643   4.617  0.4748  1.4111 -2.5122
  168MOL    C3427088   6.430   4.635   4.845 -0.3410 -0.0113  0.6814
  168MOL    C3527089   6.440   4.484   4.871 -0.2110  0.6033 -0.1926
  168MOL    N3627090   6.321   4.424   4.930  0.3429  0.1033  0.6422
  168MOL    H3727091   6.407   4.664   4.947  2.4155  2.3219  0.7089
  168MOL    H3827092   6.340   4.657   4.787 -0.3588 -1.3499  0.1826
  168MOL    H3927093   6.517   4.457   4.943  0.2159  1.0466 -0.4747
  168MOL    H4027094   6.342   4.327   4.944 -1.5516 -0.4707 -0.3446
  168MOL    H4127095   6.249   4.404   4.862 -0.5969 -0.2359  1.7111
  168MOL    C4227096   6.481   4.408   4.743  0.2198  0.2226 -0.3862
  168MOL    C4327097   6.493   4.258   4.740 -0.6351  0.4124 -0.2415
  168MOL    N4427098   6.511   4.205   4.605  0.2686  0.0216  0.4572
  168MOL    H4527099   6.415   4.436   4.660  0.7905  1.6080 -0.3826
  168MOL    H4627100   6.571   4.455   4.703  0.5924  0.4586  0.7334
  168MOL    H4727101   6.397   4.217   4.771  0.4742 -0.3913  2.2715
  168MOL    H4827102   6.538   4.108   4.616 -1.3077 -0.3854  0.8853
  168MOL    H4927103   6.600   4.246   4.580  0.8194  0.2096  2.5680
  168MOL    C5027104   6.597   4.185   4.832  0.3683  0.2185 -0.0796
  168MOL    C5127105   6.538   4.071   4.913  0.4460 -0.1506 -0.2859
  168MOL    N5227106   6.504   3.966   4.824  0.4426  0.3439 -0.1770
  168MOL    H5327107   6.679   4.137   4.778  0.1838  0.2117 -0.3565
  168MOL    H5427108   6.637   4.262   4.899  2.5966 -0.3887 -0.6790
  168MOL    H5527109   6.445   4.103   4.960 -0.5374  1.9695 -3.4997
  168MOL    H5627110   6.493   3.875   4.866  0.8152 -0.1635 -1.1796
  168MOL    H5727111   6.422   3.980   4.768 -0.6110 -2.0839  0.7332
  168MOL    C5827112   6.635   4.003   5.013 -0.2747  0.2739  0.1044
  168MOL    C5927113   6.671   4.082   5.149 -0.6826 -0.1878  0.0552
  168MOL    N6027114   6.553   4.129   5.224  0.4177  0.4323  0.2211
  168MOL    H6127115   6.590   3.910   5.047  0.3345  0.1942  0.7007
  168MOL    H6227116   6.730   3.967   4.973 -0.9462 -0.4137 -0.9047
  168MOL    H6327117   6.727   4.171   5.121  0.5172 -1.1546 -0.6291
  168MOL    H6427118   6.581   4.137   5.320  1.6743 -3.3098  0.2624
  168MOL    H6527119   6.513   4.217   5.194 -1.1360  0.0147  1.0356
  168MOL    C6627120   6.762   4.011   5.243 -0.7320  0.3581  0.5967
  168MOL    C6727121   6.903   3.974   5.192 -0.2914  0.4320 -0.6867
  168MOL    N6827122   6.970   4.094   5.149 -0.0556 -0.0050  0.5898
  168MOL    H6927123   6.776   4.072   5.332  3.2195  2.4522 -1.3376
  168MOL    H7027124   6.708   3.926   5.283 -1.1278  0.9875  1.4184
  168MOL    H7127125   6.895   3.909   5.105 -1.2069  0.4443 -0.6218
  168MOL    H7227126   6.953   4.164   5.220  1.9441 -0.3127  1.3960
  168MOL    H7327127   7.069   4.074   5.152  0.1590  0.0344 -3.8638
  168MOL    C7427128   6.989   3.912   5.307  0.1852  0.0586  0.8339
  168MOL    C7527129   7.097   3.805   5.260 -0.3311 -0.5527  0.6101
  168MOL    N7627130   7.177   3.843   5.143 -0.0623 -0.1331 -0.2983
  168MOL    H7727131   7.047   3.982   5.367  0.1767 -1.2054  2.3454
  168MOL    H7827132   6.928   3.869   5.386  0.8342 -2.0850  0.1990
  168MOL    H7927133   7.045   3.713   5.232  0.8721 -1.6261  1.7994
  168MOL    H8027134   7.122   3.856   5.060 -0.4267  0.8075  0.0777
  168MOL    H8127135   7.231   3.765   5.107  0.5699  0.3634 -0.4301
  168MOL    C8227136   7.202   3.756   5.366  0.6869 -0.5845  0.1605
  168MOL    C8327137   7.138   3.702   5.495  0.1899  0.5762 -0.2879
  168MOL    N8427138   7.093   3.562   5.481  0.8527 -0.2525  0.3067
  168MOL    H8527139   7.271   3.681   5.327 -2.1903 -2.9410 -0.5981
  168MOL    H8627140   7.265   3.843   5.386  0.1745  0.0811 -1.0572
  168MOL    H8727141   7.052   3.762   5.523  1.1785  2.5728 -1.4266
  168MOL    H8827142   7.016   3.558   5.416  0.9146  1.8856  0.0878
  168MOL    H8927143   7.169   3.519   5.431  1.4806 -0.5828  1.5175
  168MOL    C9027144   7.238   3.695   5.610 -0.2886 -1.0413 -0.1511
  168MOL    C9127145   0.094   3.609   5.598  0.2854 -0.2108  0.0503
  168MOL    N9227146   0.211   3.692   5.585 -0.0561  0.7960 -0.8808
  168MOL    H9327147   7.264   3.800   5.627  0.5257 -1.3516  0.5597
  168MOL    H9427148   7.177   3.672   5.697  2.2541 -1.4724  1.5779
  168MOL    H9527149   0.089   3.541   5.513  3.6713 -2.1210  1.2703
  168MOL    H9627150   0.206   3.780   5.635  2.3306  1.1059 -1.0968
  168MOL    H9727151   0.207   3.723   5.488  1.5279  0.8711 -0.9384
  168MOL    C9827152   0.108   3.524   5.725  0.4601 -0.3304 -0.2840
  168MOL    C9927153   0.186   3.394   5.711 -0.0304  0.4363  0.3634
  168MOL   N10027154   0.195   3.332   5.845  0.0350  0.2378  0.4856
  168MOL   H10127155   0.146   3.588   5.805  0.4519  1.5456 -1.7524
  168MOL   H10227156   0.009   3.493   5.759  0.7478 -0.4847  0.4339
  168MOL   H10327157   0.289   3.421   5.688 -0.6221  4.0322  1.5444
  168MOL   H10427158   0.227   3.236   5.842  2.8199  1.1752 -3.0022
  168MOL   H10527159   0.272   3.373   5.894  0.0618  0.5668  0.1736
  168MOL   C10627160   0.132   3.285   5.616 -0.4667  0.3495  0.9481
  168MOL   C10727161   0.250   3.208   5.552 -0.2215  0.1122 -0.0909
  168MOL   N10827162   0.191   3.095   5.480 -0.0376 -0.7031 -0.3008
  168MOL   H10927163   0.061   3.213   5.657 -2.0713 -0.5368 -3.1184
  168MOL   H11027164   0.082   3.340   5.537 -0.5087 -0.2893  0.5288
  168MOL   H11127165   0.318   3.177   5.631 -0.5742 -1.4337 -0.3776
  168MOL   H11227166   0.272   3.034   5.474 -0.3142 -1.2868  1.6280
  168MOL   H11327167   0.129   3.052   5.547 -0.4555 -1.9053 -1.4514
  168MOL   C11427168   0.331   3.288   5.451 -0.2393 -0.2654 -0.3824
  168MOL   C11527169   0.462   3.231   5.385  0.4455 -0.0267  0.5096
  168MOL   N11627170   0.504   3.322   5.279 -0.1947  0.4297 -0.0694
  168MOL   H11727171   0.262   3.338   5.383 -1.5005 -0.5901  0.6217
  168MOL   H11827172   0.375   3.372   5.505 -3.6020  0.2572  1.7019
  168MOL   H11927173   0.436   3.145   5.323  1.5826  0.0986 -0.1535
  168MOL   H12027174   0.585   3.291   5.228  1.0079 -0.0924  2.0732
  168MOL   H12127175   0.431   3.322   5.210 -1.7261  0.9422  1.5092
  168MOL   C12227176   0.574   3.188   5.486  0.0681  0.5767 -0.6397
  168MOL   C12327177   0.641   3.053   5.468 -0.1740  1.3352 -0.7230
  168MOL   N12427178   0.566   2.939   5.524 -1.4548  0.2770 -0.5992
  168MOL   H12527179   0.648   3.267   5.498  0.0018  0.7529 -1.3331
  168MOL   H12627180   0.526   3.187   5.584  2.5633 -0.1578  0.6179
  168MOL   H12727181   0.732   3.067   5.527  0.1053 -0.8168 -0.6205
  168MOL   H12827182   0.553   2.957   5.622 -0.1226 -1.7496 -0.0115
  168MOL   H12927183   0.628   2.861   5.502 -1.0126  0.0429  1.4155
  168MOL   C13027184   0.693   3.018   5.330 -0.3979  0.1681 -0.5578
  168MOL   C13127185   0.788   3.123   5.287  0.3588 -0.1515 -0.1764
  168MOL   N13227186   0.915   3.132   5.361  0.8963  0.1117 -0.1599
  168MOL   H13327187   0.748   2.924   5.331 -0.3853  0.1661  1.9045
  168MOL   H13427188   0.606   3.014   5.265  0.1511 -2.8202 -1.1909
  168MOL   H13527189   0.742   3.222   5.290  0.9735  0.0720  3.9651
  168MOL   H13627190   0.940   3.034   5.354 -2.6747 -0.9626  1.2886
  168MOL   H13727191   0.990   3.178   5.310  0.8465 -0.1416 -0.4637
  168MOL   C13827192   0.835   3.083   5.146  0.0809 -0.3773  0.3124
  168MOL   C13927193   0.726   3.120   5.042  0.2296 -0.4435  0.4508
  168MOL   N14027194   0.756   3.253   4.985  0.4117  0.0873 -0.7928
  168MOL   H14127195   0.924   3.142   5.122 -0.4486  0.0884 -0.5098
  168MOL   H14227196   0.877   2.983   5.142 -0.1461 -0.6965  3.9562
  168MOL   H14327197   0.629   3.136   5.090  0.0062  1.7807 -0.6970
  168MOL   H14427198   0.680   3.304   4.943  0.8004  2.0065  0.7345
  168MOL   H14527199   0.809   3.240   4.901  1.6174 -1.5345  0.1786
  168MOL   C14627200   0.720   3.014   4.930 -0.1482  0.0038  0.3040
  168MOL   C14727201   0.651   2.873   4.978  0.2933  0.4228 -0.6686
  168MOL   N14827202   0.509   2.875   4.962  0.6187  0.1893  0.0700
  168MOL   H14927203   0.673   3.054   4.841  0.2141  1.6074  0.8065
  168MOL   H15027204   0.821   2.989   4.900 -0.0214 -0.3751  1.0246
  168MOL   H15127205   0.671   2.849   5.082 -1.4957  3.1483  0.3461
  168MOL   H15227206   0.491   2.929   4.878 -2.1548 -0.4376  0.2090
  168MOL   H15327207   0.479   2.787   4.923  2.1572  0.0460 -0.8314
  168MOL   C15427208   0.696   2.754   4.888 -0.3817  0.3628  1.2284
  168MOL   C15527209   0.837   2.708   4.923  0.8165 -0.5667 -0.2416
  168MOL   N15627210   0.878   2.597   4.835  0.0655  0.3412  0.0792
  168MOL   H15727211   0.622   2.675   4.902 -0.0447 -0.2952 -0.5242
  168MOL   H15827212   0.695   2.790   4.785 -1.9468 -0.0942  1.0679
  168MOL   H15927213   0.838   2.663   5.022 -0.0984  1.3873  0.6726
  168MOL   H16027214   0.978   2.590   4.844  0.1355  0.9597 -0.1830
  168MOL   H16127215   0.866   2.626   4.739  1.9372  0.9214 -0.0016
  168MOL   H16227216   0.915   2.784   4.916 -0.2594  0.6453  0.6872
  169MOL     C127217   0.548   5.390   3.576  0.5601 -0.2307 -0.0697
  169MOL     C227218   0.459   5.462   3.476 -0.6143 -0.9916 -0.1536
  169MOL     N327219   0.407   5.587   3.535 -0.1061  0.4037  0.4587
  169MOL     H427220   0.483   5.366   3.660 -0.6885 -0.7877 -1.1805
  169MOL     H527221   0.625   5.458   3.614 -0.0217 -0.0919  0.9066
  169MOL     H627222   0.366   5.415   3.443 -1.8565  0.0375  1.8221
  169MOL     H727223   0.348   5.551   3.609 -2.0098  1.5884 -0.4382
  169MOL     H827224   0.339   5.620   3.467  0.2641  0.4507  0.1132
  169MOL     H927225   0.583   5.293   3.544 -0.1067 -0.4404 -0.1749
  169MOL    C1027226   0.537   5.490   3.342  0.0213  0.3265  0.4833
  169MOL    C1127227   0.533   5.387   3.235  0.5278  0.0458 -0.4733
  169MOL    N1227228   0.586   5.445   3.112  0.1704 -0.2801 -0.2152
  169MOL    H1327229   0.516   5.584   3.292  2.4215  0.7472  0.2163
  169MOL    H1427230   0.640   5.515   3.367  0.4012 -0.4418 -0.2706
  169MOL    H1527231   0.431   5.358   3.211  0.2901 -0.9953  1.6986
  169MOL    H1627232   0.520   5.518   3.089 -0.0322 -0.9061 -1.6727
  169MOL    H1727233   0.556   5.378   3.043  0.4903 -1.9318  1.2290
  169MOL    C1827234   0.598   5.248   3.263  0.5404  0.4082 -0.0178
  169MOL    C1927235   0.509   5.122   3.266 -0.0637 -1.1029  0.4845
  169MOL    N2027236   0.460   5.119   3.121 -0.2252  0.1545  0.0940
  169MOL    H2127237   0.677   5.223   3.193 -1.0940 -2.0570 -1.0496
  169MOL    H2227238   0.644   5.251   3.362 -1.5982  1.5095  0.9784
  169MOL    H2327239   0.417   5.135   3.323  0.1176  1.7827  0.2174
  169MOL    H2427240   0.418   5.203   3.083  1.5827  1.1637  0.2753
  169MOL    H2527241   0.383   5.054   3.124  0.8226 -1.2661 -2.0091
  169MOL    C2627242   0.592   4.997   3.299 -0.2399  0.1079 -1.1280
  169MOL    C2727243   0.599   4.973   3.449 -0.0564 -0.1372 -0.0558
  169MOL    N2827244   0.471   4.910   3.483 -0.4722 -0.4624  0.1660
  169MOL    H2927245   0.561   4.904   3.250 -0.2105 -0.2773 -0.4162
  169MOL    H3027246   0.694   5.004   3.261  0.1906  5.0726  0.5417
  169MOL    H3127247   0.616   5.068   3.498  0.0667 -1.5206  2.6665
  169MOL    H3227248   0.396   4.976   3.494  0.8405  1.0535  0.2246
  169MOL    H3327249   0.496   4.885   3.578  1.8024  1.2351  0.0447
  169MOL    C3427250   0.714   4.881   3.501  0.1025 -0.3054 -0.0803
  169MOL    C3527251   0.841   4.951   3.542 -0.2831 -0.5938 -0.6453
  169MOL    N3627252   0.948   4.853   3.577 -0.5154 -0.8698  0.0923
  169MOL    H3727253   0.676   4.835   3.592 -0.0518 -0.5542 -0.2692
  169MOL    H3827254   0.738   4.801   3.431  2.7648  1.3093 -1.1095
  169MOL    H3927255   0.814   5.015   3.626 -1.2015 -0.6759 -0.8694
  169MOL    H4027256   1.026   4.895   3.625 -1.8323 -1.5268  2.8760
  169MOL    H4127257   0.906   4.792   3.646  0.5210 -0.0503  1.4544
  169MOL    C4227258   0.903   5.055   3.446 -0.3347  0.5091 -0.3187
  169MOL    C4327259   0.998   5.156   3.503  0.6054  0.4230 -0.5127
  169MOL    N4427260   1.104   5.184   3.409 -0.8576 -0.0994 -0.0083
  169MOL    H4527261   0.955   5.008   3.363 -1.8725 -1.4238 -0.2220
  169MOL    H4627262   0.825   5.115   3.400 -0.4812  2.2612  2.1009
  169MOL    H4727263   1.036   5.105   3.592 -1.3125 -1.3109 -0.6444
  169MOL    H4827264   1.162   5.254   3.452  0.6358 -0.2738 -1.6843
  169MOL    H4927265   1.168   5.105   3.403  1.3923  1.7960 -1.7778
  169MOL    C5027266   0.923   5.283   3.553  0.0425  0.0780  0.0749
  169MOL    C5127267   1.009   5.404   3.600  0.1743  0.3131  0.1866
  169MOL    N5227268   0.957   5.542   3.590  0.7496 -0.4408  0.1228
  169MOL    H5327269   0.863   5.320   3.470  1.7744  0.2960 -1.1132
  169MOL    H5427270   0.857   5.246   3.632  1.2823 -1.5064  0.3910
  169MOL    H5527271   1.094   5.406   3.531  0.6130  4.4194  0.7287
  169MOL    H5627272   1.025   5.614   3.611 -0.5520  0.5758  0.9668
  169MOL    H5727273   0.917   5.553   3.498  1.3200 -0.5993 -0.1461
  169MOL    C5827274   1.062   5.379   3.747 -0.5645  0.2660 -0.6387
  169MOL    C5927275   1.212   5.363   3.779 -0.0997  0.4788  0.0219
  169MOL    N6027276   1.285   5.489   3.780 -0.6414 -0.3029 -0.1876
  169MOL    H6127277   1.016   5.452   3.813 -0.5541  0.5451 -0.9374
  169MOL    H6227278   1.009   5.288   3.775 -2.3538  1.0811 -1.3277
  169MOL    H6327279   1.247   5.299   3.698 -0.3941  1.0292 -0.5462
  169MOL    H6427280   1.379   5.452   3.779 -1.0333 -1.3046 -0.4766
  169MOL    H6527281   1.292   5.537   3.691  1.9746  1.8678  1.0830
  169MOL    C6627282   1.235   5.274   3.901 -0.2948  0.1364 -0.2952
  169MOL    C6727283   1.202   5.121   3.868 -0.1780  0.2973  0.2235
  169MOL    N6827284   1.309   5.071   3.780  0.2688 -0.5844 -0.9167
  169MOL    H6927285   1.337   5.287   3.936 -0.0154  0.8313 -1.3329
  169MOL    H7027286   1.169   5.310   3.980  0.1393 -0.1383  0.1899
  169MOL    H7127287   1.111   5.112   3.809  0.1585 -1.9313 -0.0100
  169MOL    H7227288   1.386   5.050   3.842 -0.3013 -1.2704 -0.4307
  169MOL    H7327289   1.284   4.981   3.743 -0.1945 -0.4279 -0.9893
  169MOL    C7427290   1.203   5.016   3.981 -0.0737 -0.0358 -0.2546
  169MOL    C7527291   1.081   5.023   4.078 -0.0141 -0.2271  0.4664
  169MOL    N7627292   0.961   4.968   4.010  0.5501  0.0704 -0.4295
  169MOL    H7727293   1.199   4.910   3.953  0.6630 -0.0388 -0.3688
  169MOL    H7827294   1.299   4.999   4.031  0.3487 -1.1876 -1.4172
  169MOL    H7927295   1.061   5.128   4.098 -0.5558 -0.1966 -0.2221
  169MOL    H8027296   0.982   4.869   4.000  0.0306 -0.5249  3.6511
  169MOL    H8127297   0.955   5.005   3.916 -2.3528 -1.9184 -1.1025
  169MOL    C8227298   1.092   4.958   4.218 -0.7211  0.2566  0.3936
  169MOL    C8327299   1.204   5.013   4.320  0.4061 -0.2903  1.1599
  169MOL    N8427300   1.174   5.151   4.358 -0.2095 -0.5112  0.5884
  169MOL    H8527301   0.999   4.980   4.271 -0.6914 -0.5271  0.7773
  169MOL    H8627302   1.092   4.850   4.210 -2.4144  0.2778 -0.0189
  169MOL    H8727303   1.294   5.018   4.258 -1.0161 -1.0553 -1.0106
  169MOL    H8827304   1.113   5.196   4.291  0.3555  0.3891  0.6778
  169MOL    H8927305   1.124   5.144   4.446 -0.9719 -0.2370  0.1848
  169MOL    C9027306   1.230   4.925   4.449 -0.3632  0.1001 -0.8417
  169MOL    C9127307   1.373   4.863   4.449 -0.4003 -0.7333  0.0644
  169MOL    N9227308   1.383   4.810   4.584  0.8088  0.1190  0.6466
  169MOL    H9327309   1.215   4.984   4.541 -1.8546 -0.3207 -0.7962
  169MOL    H9427310   1.158   4.845   4.467 -0.4514  0.0073 -1.6094
  169MOL    H9527311   1.453   4.936   4.441 -0.8226 -0.3643 -0.8194
  169MOL    H9627312   1.469   4.758   4.597  0.9276 -1.0242 -3.8458
  169MOL    H9727313   1.310   4.741   4.583 -0.2189  1.1958  0.6039
  169MOL    C9827314   1.405   4.755   4.357 -0.4711 -0.8944  0.4178
  169MOL    C9927315   1.420   4.792   4.201 -0.1991  0.0535 -0.0683
  169MOL   N10027316   1.513   4.902   4.191  0.1438  0.6739 -0.7012
  169MOL   H10127317   1.504   4.720   4.386 -0.9724 -0.9773  2.0932
  169MOL   H10227318   1.345   4.665   4.372 -0.6202 -0.9831 -0.6275
  169MOL   H10327319   1.324   4.827   4.163  0.0867  1.1693  0.2065
  169MOL   H10427320   1.498   4.985   4.246  0.7891 -0.6990  1.5897
  169MOL   H10527321   1.604   4.870   4.222 -1.2080 -0.8042  1.8379
  169MOL   C10627322   1.465   4.672   4.116  0.2234 -0.5327 -0.0329
  169MOL   C10727323   1.355   4.628   4.016 -0.6829  0.2897  0.6707
  169MOL   N10827324   1.418   4.525   3.931  0.4148  0.4286  0.5541
  169MOL   H10927325   1.562   4.690   4.070 -0.6081 -0.1175 -1.6526
  169MOL   H11027326   1.468   4.577   4.170 -1.1386 -1.0785 -0.8892
  169MOL   H11127327   1.319   4.707   3.951 -0.0805  0.0597  0.0539
  169MOL   H11227328   1.497   4.549   3.872  0.3154 -0.0799  0.2187
  169MOL   H11327329   1.360   4.470   3.871 -1.3827  1.6919  1.1045
  169MOL   C11427330   1.232   4.561   4.082 -0.1697 -0.2233 -0.1576
  169MOL   C11527331   1.116   4.506   3.993 -0.3133 -0.1942 -0.0185
  169MOL   N11627332   1.033   4.434   4.082 -0.5997 -0.3902  0.1192
  169MOL   H11727333   1.276   4.488   4.151 -0.0786 -0.2340 -0.2269
  169MOL   H11827334   1.195   4.634   4.154  1.3703 -2.9185  3.5066
  169MOL   H11927335   1.157   4.443   3.913  2.2284  2.5373 -0.9516
  169MOL   H12027336   0.999   4.502   4.148  0.6983  1.0996 -0.7226
  169MOL   H12127337   1.076   4.358   4.134 -0.7443 -0.2650  0.4209
  169MOL   C12227338   1.032   4.612   3.926 -0.6122  0.0302 -0.0310
  169MOL   C12327339   0.919   4.555   3.828 -0.2760 -0.1952  0.3122
  169MOL   N12427340   0.813   4.655   3.824  0.3497  0.4310  0.2755
  169MOL   H12527341   0.992   4.678   4.004  0.3719  0.7564 -0.1355
  169MOL   H12627342   1.082   4.693   3.873 -1.5253  1.3200  1.0416
  169MOL   H12727343   0.879   4.455   3.845  1.5604 -0.7216  1.7550
  169MOL   H12827344   0.757   4.631   3.744  0.3695 -1.1891  0.7367
  169MOL   H12927345   0.742   4.648   3.897  0.8102 -1.6990  0.5242
  169MOL   C13027346   0.980   4.550   3.689  0.4308  0.1082 -0.4679
  169MOL   C13127347   1.048   4.418   3.648  0.0823 -0.1151  1.1384
  169MOL   N13227348   0.952   4.325   3.602 -0.2512 -0.2232  0.4144
  169MOL   H13327349   0.893   4.565   3.625  0.9970 -0.4565 -1.3727
  169MOL   H13427350   1.048   4.633   3.670  2.4298 -1.5065 -0.4840
  169MOL   H13527351   1.093   4.374   3.737  1.6438 -0.7596  0.0477
  169MOL   H13627352   1.001   4.245   3.565  0.4490  0.0750  0.6925
  169MOL   H13727353   0.895   4.359   3.525  0.8298 -0.3440 -0.4539
  169MOL   C13827354   1.154   4.430   3.531 -0.5839 -0.2072  0.1760
  169MOL   C13927355   1.289   4.494   3.578 -0.2637 -0.0060 -0.0633
  169MOL   N14027356   1.394   4.388   3.577 -0.2263  0.6788  0.4014
  169MOL   H14127357   1.171   4.328   3.498 -0.4838 -0.3036  0.5200
  169MOL   H14227358   1.107   4.482   3.448 -0.1237 -0.0417  0.0212
  169MOL   H14327359   1.278   4.505   3.686  1.0443 -0.9918  0.1973
  169MOL   H14427360   1.336   4.315   3.614  0.9367 -0.2634  0.3771
  169MOL   H14527361   1.474   4.399   3.639  0.4854 -2.3255  0.0578
  169MOL   C14627362   1.330   4.619   3.498  0.4439  0.4364  0.9328
  169MOL   C14727363   1.276   4.754   3.548 -0.3516  0.4121  0.3877
  169MOL   N14827364   1.292   4.760   3.693 -0.1661 -0.4201 -0.0439
  169MOL   H14927365   1.439   4.617   3.488  0.5091 -1.4676  1.7741
  169MOL   H15027366   1.310   4.600   3.392 -1.6216 -0.0366  1.3963
  169MOL   H15127367   1.171   4.761   3.518 -1.6574 -0.8233  4.3793
  169MOL   H15227368   1.385   4.741   3.726 -0.6144 -0.2906  1.3380
  169MOL   H15327369   1.247   4.675   3.724 -0.3245 -0.4344 -0.3160
  169MOL   C15427370   1.360   4.866   3.476  0.4837  0.5633 -0.1868
  169MOL   C15527371   1.335   4.867   3.325  0.2113  0.5847 -0.0990
  169MOL   N15627372   1.456   4.902   3.253  0.5109 -0.6284 -0.6313
  169MOL   H15727373   1.321   4.960   3.514 -0.1293  0.1951  0.0963
  169MOL   H15827374   1.469   4.861   3.489  0.8867  2.1366 -2.6402
  169MOL   H15927375   1.256   4.940   3.305 -0.3493  0.5159  1.7678
  169MOL   H16027376   1.426   4.934   3.163  0.4793 -0.7568 -0.6666
  169MOL   H16127377   1.519   4.823   3.246 -1.9820 -2.4583 -3.6009
  169MOL   H16227378   1.297   4.772   3.287  0.9894  0.9510 -1.8606
  170MOL     C127379   3.781   4.813   0.311 -0.2059  0.5309 -0.0539
  170MOL     C227380   3.738   4.711   0.208  0.4538  0.4589 -0.3116
  170MOL     N327381   3.818   4.728   0.089 -0.0963 -0.1511  0.0636
  170MOL     H427382   3.803   4.913   0.272  0.3424  1.0324  1.4851
  170MOL     H527383   3.883   4.790   0.342  0.3016 -1.1120 -2.7953
  170MOL     H627384   3.634   4.731   0.183 -0.0123  1.0535  1.9901
  170MOL     H727385   3.794   4.816   0.045 -2.0802 -1.2015 -1.0210
  170MOL     H827386   3.806   4.652   0.024 -0.3648 -0.3388  0.3297
  170MOL     H927387   3.714   4.838   0.393  1.1103  1.4760  0.7450
  170MOL    C1027388   3.766   4.562   0.258  0.1518  0.2498  0.1418
  170MOL    C1127389   3.674   4.507   0.372  0.2299  0.2615 -0.2649
  170MOL    N1227390   3.532   4.499   0.336 -0.8512 -0.5851 -0.8475
  170MOL    H1327391   3.759   4.495   0.172 -0.1046 -0.1234  0.4509
  170MOL    H1427392   3.867   4.556   0.297 -0.4016  1.2239  1.8129
  170MOL    H1527393   3.671   4.582   0.451 -0.3796  0.7222 -0.7133
  170MOL    H1627394   3.510   4.429   0.266 -3.1192  0.2422 -1.0115
  170MOL    H1727395   3.509   4.589   0.297  0.6708  0.1297 -0.1351
  170MOL    C1827396   3.725   4.374   0.438 -0.0212 -0.1636 -0.1731
  170MOL    C1927397   3.811   4.385   0.568 -0.0334 -0.3369 -0.1610
  170MOL    N2027398   3.843   4.256   0.617 -0.3393  0.0418  0.2583
  170MOL    H2127399   3.645   4.303   0.460  1.7181 -1.5748  1.7354
  170MOL    H2227400   3.777   4.322   0.358  2.1595  1.3109  0.2445
  170MOL    H2327401   3.753   4.428   0.649 -0.1677  2.5818 -1.7218
  170MOL    H2427402   3.881   4.269   0.710  3.1941  0.2178 -1.1633
  170MOL    H2527403   3.753   4.212   0.630  0.2222 -1.2447 -0.1270
  170MOL    C2627404   3.942   4.464   0.553 -0.3812  0.1124 -0.1025
  170MOL    C2727405   4.010   4.507   0.683  0.2666  0.6963 -0.5844
  170MOL    N2827406   4.153   4.485   0.675  0.3595  0.5623  0.4602
  170MOL    H2927407   4.001   4.419   0.473 -1.8251 -0.1159 -1.0531
  170MOL    H3027408   3.915   4.557   0.502  1.1362  0.5169 -0.1954
  170MOL    H3127409   3.974   4.437   0.759  1.9875  0.9179  0.4528
  170MOL    H3227410   4.197   4.552   0.613 -0.6972 -0.5057 -1.4680
  170MOL    H3327411   4.168   4.400   0.623  0.1470  0.8191 -0.0243
  170MOL    C3427412   3.979   4.656   0.717  0.3203  0.3691  1.0733
  170MOL    C3527413   3.981   4.684   0.875  0.1784 -0.0280 -0.5895
  170MOL    N3627414   3.997   4.829   0.884  0.7562  0.8088  0.3374
  170MOL    H3727415   4.039   4.728   0.661  0.5891  0.1218  1.0468
  170MOL    H3827416   3.876   4.677   0.686  0.5167  1.7583  1.3069
  170MOL    H3927417   4.071   4.640   0.918 -1.4301 -2.7987  0.0334
  170MOL    H4027418   3.981   4.852   0.981  2.4351  1.1522  0.5437
  170MOL    H4127419   4.088   4.868   0.866  0.3035  0.8261 -2.1087
  170MOL    C4227420   3.857   4.635   0.952 -0.5313  0.3762  0.7115
  170MOL    C4327421   3.870   4.491   1.015  0.2708 -0.3508  0.1526
  170MOL    N4427422   3.961   4.505   1.127 -0.2060 -0.3633 -0.2548
  170MOL    H4527423   3.834   4.701   1.035 -0.6106  1.1664  0.0616
  170MOL    H4627424   3.767   4.645   0.892 -1.8150  1.0939  2.7044
  170MOL    H4727425   3.917   4.419   0.948  0.1741 -1.2423  1.0402
  170MOL    H4827426   3.963   4.413   1.171 -1.0333 -0.4890 -0.4632
  170MOL    H4927427   4.053   4.517   1.088  0.5408  2.9662  2.2542
  170MOL    C5027428   3.732   4.439   1.081 -0.0508 -0.2627 -1.0174
  170MOL    C5127429   3.721   4.296   1.123  0.4068  0.3640 -0.2772
  170MOL    N5227430   3.604   4.280   1.217 -0.2724 -0.4490 -0.0464
  170MOL    H5327431   3.718   4.504   1.168  1.2909 -2.1371  0.6261
  170MOL    H5427432   3.644   4.451   1.017 -0.8215  0.9777  0.2484
  170MOL    H5527433   3.812   4.267   1.175  1.2615  0.9261 -1.4557
  170MOL    H5627434   3.600   4.330   1.305 -1.1139 -1.3415  0.4250
  170MOL    H5727435   3.605   4.186   1.254 -0.0631 -0.1101  0.8222
  170MOL    C5827436   3.719   4.197   1.000 -0.4241  0.3739  0.0310
  170MOL    C5927437   3.704   4.045   1.039 -0.4170  0.1906 -0.6146
  170MOL    N6027438   3.631   3.971   0.937 -0.3719 -0.1703  0.0186
  170MOL    H6127439   3.637   4.225   0.934 -2.6544 -0.3706  2.3905
  170MOL    H6227440   3.801   4.206   0.929  0.4829 -0.0762  1.0083
  170MOL    H6327441   3.651   4.035   1.133 -0.5156 -0.5137 -0.7431
  170MOL    H6427442   3.539   4.012   0.932 -0.1902  0.1858 -0.5023
  170MOL    H6527443   3.676   3.970   0.847  1.8160 -0.3521  1.0902
  170MOL    C6627444   3.850   3.998   1.058  0.0482 -0.2084 -0.3216
  170MOL    C6727445   3.856   3.851   1.115  0.6984 -0.3032  0.6826
  170MOL    N6827446   3.992   3.795   1.096  0.4287  0.0252 -0.5452
  170MOL    H6927447   3.907   4.001   0.965  0.3880 -2.5886 -0.2220
  170MOL    H7027448   3.904   4.068   1.123 -0.8138 -1.2373  1.5356
  170MOL    H7127449   3.800   3.794   1.041  0.9279 -0.9433  0.9908
  170MOL    H7227450   4.001   3.695   1.107 -2.0293 -0.2777 -1.1200
  170MOL    H7327451   4.015   3.811   0.999  0.2011 -1.0180 -0.7723
  170MOL    C7427452   3.817   3.826   1.262 -0.0087  0.1102 -0.2391
  170MOL    C7527453   3.667   3.795   1.284  0.3487  0.1481  0.5515
  170MOL    N7627454   3.655   3.655   1.253 -0.3941 -0.4114 -0.3050
  170MOL    H7727455   3.880   3.756   1.316  0.6568  0.0950 -1.0347
  170MOL    H7827456   3.851   3.912   1.321 -0.2561 -1.0199  1.5916
  170MOL    H7927457   3.616   3.858   1.212  2.5685  2.7378  1.1502
  170MOL    H8027458   3.724   3.646   1.180 -2.6324 -0.5638 -2.4615
  170MOL    H8127459   3.570   3.664   1.200 -0.7294  0.5436  0.3747
  170MOL    C8227460   3.612   3.828   1.425  0.5498  0.1058  0.2109
  170MOL    C8327461   3.593   3.981   1.446  0.4627 -0.0790 -0.1828
  170MOL    N8427462   3.481   4.017   1.349  0.3802 -0.5193  0.1105
  170MOL    H8527463   3.524   3.769   1.451 -1.5651  1.4186 -3.5142
  170MOL    H8627464   3.684   3.786   1.495  1.0521  0.0066 -0.3662
  170MOL    H8727465   3.686   4.031   1.420  1.4881 -0.0741  3.2183
  170MOL    H8827466   3.388   4.001   1.385  0.8281 -2.4585  0.4955
  170MOL    H8927467   3.491   3.945   1.278  0.5263  0.0057 -0.4000
  170MOL    C9027468   3.551   4.036   1.588 -0.2149 -0.1703 -0.0189
  170MOL    C9127469   3.587   4.181   1.626 -0.2755 -1.2697 -0.2350
  170MOL    N9227470   3.499   4.264   1.551  0.3309 -0.2365 -0.3207
  170MOL    H9327471   3.450   4.005   1.614 -0.2989 -0.6798 -0.9210
  170MOL    H9427472   3.598   3.970   1.661 -0.6154 -2.0197 -1.3787
  170MOL    H9527473   3.687   4.214   1.595 -1.7607  3.1072 -0.7287
  170MOL    H9627474   3.404   4.270   1.584  0.1907 -0.2304 -0.7232
  170MOL    H9727475   3.489   4.224   1.458  0.1328 -2.4182  0.6024
  170MOL    C9827476   3.592   4.208   1.778 -0.1905  0.7067 -0.3556
  170MOL    C9927477   3.727   4.187   1.845 -0.5724  0.4655  0.4269
  170MOL   N10027478   3.812   4.303   1.804  0.4171  0.7158  0.3285
  170MOL   H10127479   3.565   4.309   1.807  1.4135  0.6264  1.5802
  170MOL   H10227480   3.512   4.150   1.822  0.1132  0.5434 -0.0151
  170MOL   H10327481   3.767   4.094   1.807 -1.5555  0.1999  0.0192
  170MOL   H10427482   3.808   4.317   1.704  0.9475  1.1447  0.3683
  170MOL   H10527483   3.764   4.384   1.840  1.1056  1.9325 -1.4172
  170MOL   C10627484   3.705   4.181   1.995  0.0277 -0.0858  0.4933
  170MOL   C10727485   3.833   4.152   2.081 -0.4955 -0.6990  0.4619
  170MOL   N10827486   3.799   4.136   2.221  0.3276  0.7578  0.0302
  170MOL   H10927487   3.675   4.279   2.033  2.0629  0.5642  0.4496
  170MOL   H11027488   3.619   4.120   2.023  0.3088 -0.7959 -0.1730
  170MOL   H11127489   3.903   4.236   2.085  0.3461 -1.3479 -0.3338
  170MOL   H11227490   3.796   4.227   2.266  2.5170  0.8539  0.0686
  170MOL   H11327491   3.705   4.103   2.232  0.0668  1.4828  0.0383
  170MOL   C11427492   3.912   4.031   2.032 -0.2326  0.0573 -0.5567
  170MOL   C11527493   4.054   4.059   1.984  0.0202  0.4807 -0.4429
  170MOL   N11627494   4.161   4.050   2.087 -0.1617 -0.0896 -0.1584
  170MOL   H11727495   3.930   3.968   2.120  2.6795  0.1441 -1.0244
  170MOL   H11827496   3.851   3.972   1.964  1.2739 -0.9120 -1.0887
  170MOL   H11927497   4.065   4.159   1.943  1.2259  0.8254  0.6934
  170MOL   H12027498   4.141   4.102   2.172  1.2625 -1.9187  1.3344
  170MOL   H12127499   4.194   3.960   2.116  0.2824  0.1705  0.1546
  170MOL   C12227500   4.118   3.969   1.874 -0.3664  0.0170 -0.1363
  170MOL   C12327501   4.055   3.975   1.738  0.3372  0.2831  0.5268
  170MOL   N12427502   4.070   4.110   1.686 -0.2090  0.6358  0.7043
  170MOL   H12527503   4.221   4.000   1.861 -0.4022 -0.7457 -2.3226
  170MOL   H12627504   4.126   3.865   1.906  0.5629  0.0288 -0.3142
  170MOL   H12727505   3.950   3.945   1.740  0.6490 -1.1901 -2.7819
  170MOL   H12827506   4.163   4.141   1.662  0.6947 -0.4337  2.6460
  170MOL   H12927507   4.024   4.181   1.741 -0.0969  1.3143 -0.0682
  170MOL   C13027508   4.120   3.880   1.635 -0.0952 -0.3842  0.4167
  170MOL   C13127509   4.072   3.734   1.645 -0.6663  0.0466  0.0038
  170MOL   N13227510   4.049   3.693   1.508  0.0805  0.5149  0.1390
  170MOL   H13327511   4.098   3.915   1.534  1.3061 -1.5807 -0.3092
  170MOL   H13427512   4.228   3.889   1.642  0.1840 -0.6148 -2.9661
  170MOL   H13527513   3.975   3.727   1.693  0.3627  2.2071  2.5176
  170MOL   H13627514   4.133   3.711   1.455  0.0106  1.1916  0.2536
  170MOL   H13727515   3.982   3.758   1.472  1.6627  2.8214  1.2355
  170MOL   C13827516   4.188   3.650   1.704  0.6401  0.3695  0.0414
  170MOL   C13927517   4.171   3.496   1.718  0.0111  0.0557  0.0246
  170MOL   N14027518   4.300   3.431   1.708 -0.2869  0.1422  0.5321
  170MOL   H14127519   4.280   3.657   1.646  1.4584 -0.4769  1.2178
  170MOL   H14227520   4.217   3.694   1.799  0.0542 -2.2845  1.5189
  170MOL   H14327521   4.112   3.470   1.631  3.0430  2.2686 -2.8260
  170MOL   H14427522   4.290   3.331   1.713 -1.3406  0.1381 -1.2457
  170MOL   H14527523   4.341   3.456   1.618  0.1658  0.9005  0.9419
  170MOL   C14627524   4.106   3.462   1.850  0.5509  0.1091 -0.1790
  170MOL   C14727525   4.003   3.357   1.848  0.6837  0.6351  0.1998
  170MOL   N14827526   4.008   3.295   1.976  0.1105 -0.4232  0.8003
  170MOL   H14927527   4.186   3.459   1.924  1.0262  0.7717 -0.6625
  170MOL   H15027528   4.049   3.549   1.883  0.3670  0.0684 -0.3850
  170MOL   H15127529   4.047   3.282   1.783 -0.8509  0.6063 -0.8329
  170MOL   H15227530   4.056   3.206   1.974 -2.6163 -2.0144  1.9019
  170MOL   H15327531   3.913   3.265   1.993 -0.2945  1.5443  2.2381
  170MOL   C15427532   3.856   3.396   1.817 -0.0563  0.3776  0.0355
  170MOL   C15527533   3.849   3.425   1.667 -0.0723  0.1689  0.1682
  170MOL   N15627534   3.708   3.423   1.618 -0.1210  0.4668 -0.4508
  170MOL   H15727535   3.792   3.316   1.854  1.4587 -1.0687 -0.4024
  170MOL   H15827536   3.828   3.485   1.873 -1.3143  0.4162 -0.6425
  170MOL   H15927537   3.915   3.365   1.605 -0.1881 -2.1432  2.1981
  170MOL   H16027538   3.666   3.487   1.683 -0.8999 -1.1754  0.6968
  170MOL   H16127539   3.701   3.447   1.520  1.0278 -0.7059 -0.8391
  170MOL   H16227540   3.891   3.523   1.644  1.6999 -0.1459  1.8582
  171MOL     C127541   2.465   6.846   1.952  0.4119 -0.6033  0.1479
  171MOL     C227542   2.440   6.894   1.806  0.8099 -0.2517  0.2859
  171MOL     N327543   2.480   7.036   1.814 -0.0964 -0.0717 -0.3653
  171MOL     H427544   2.567   6.827   1.986  0.9512 -0.4558 -1.3650
  171MOL     H527545   2.417   6.748   1.959 -0.4077 -0.1180  1.4822
  171MOL     H627546   2.339   6.900   1.766  0.7127  1.4773  0.7694
  171MOL     H727547   2.438   7.083   1.734 -0.2113 -0.0571 -0.2971
  171MOL     H827548   2.439   7.076   1.897 -1.2320 -2.1479  0.1345
  171MOL     H927549   2.434   6.917   2.029 -0.1380 -1.4718  0.7437
  171MOL    C1027550   2.528   6.800   1.714  0.3792  0.4847  0.6461
  171MOL    C1127551   2.473   6.659   1.690 -0.6360 -0.0216  0.0968
  171MOL    N1227552   2.515   6.621   1.556  0.3115  0.4490 -0.0206
  171MOL    H1327553   2.544   6.838   1.614 -0.5062 -2.1364 -0.5459
  171MOL    H1427554   2.634   6.790   1.739  0.9168 -0.7769 -1.8979
  171MOL    H1527555   2.364   6.661   1.696 -0.5831  0.8152  1.0094
  171MOL    H1627556   2.606   6.581   1.568  0.6001  0.7253 -1.2005
  171MOL    H1727557   2.465   6.541   1.519 -1.0530  0.3161  2.0159
  171MOL    C1827558   2.523   6.548   1.786  0.0793 -0.8684 -0.0739
  171MOL    C1927559   2.436   6.427   1.774  0.2301 -0.3164  0.0149
  171MOL    N2027560   2.511   6.340   1.859  0.0035  0.5385  0.0749
  171MOL    H2127561   2.620   6.526   1.740 -0.5097 -1.6051 -0.9895
  171MOL    H2227562   2.528   6.588   1.887  1.2565  1.8153 -1.1478
  171MOL    H2327563   2.444   6.400   1.668  1.6801 -1.2543  0.3387
  171MOL    H2427564   2.470   6.249   1.873 -2.9960  2.1320  2.1396
  171MOL    H2527565   2.514   6.382   1.951 -1.8227 -2.5896  1.6289
  171MOL    C2627566   2.290   6.420   1.820  0.5619  0.5730  0.1014
  171MOL    C2727567   2.213   6.288   1.785  0.0574 -0.1197 -0.4292
  171MOL    N2827568   2.083   6.285   1.862  0.2281  0.2202 -0.2814
  171MOL    H2927569   2.278   6.433   1.927  0.1280  0.5069  0.0600
  171MOL    H3027570   2.232   6.494   1.765 -0.7568 -1.0717 -0.7897
  171MOL    H3127571   2.283   6.210   1.813 -0.2464 -0.0738  0.4995
  171MOL    H3227572   2.034   6.198   1.842 -0.5120  0.6511 -0.3581
  171MOL    H3327573   2.088   6.272   1.962 -2.2103 -3.0404 -0.4857
  171MOL    C3427574   2.183   6.270   1.634  0.4180  0.6084  0.6005
  171MOL    C3527575   2.088   6.155   1.591  0.3097 -0.0003  0.8979
  171MOL    N3627576   2.098   6.162   1.442  0.5157  0.3901 -0.7466
  171MOL    H3727577   2.135   6.363   1.603  0.9773  0.5430 -0.4696
  171MOL    H3827578   2.280   6.265   1.586 -0.6020  0.6126 -1.5053
  171MOL    H3927579   1.986   6.173   1.625 -0.3183 -0.1539 -0.8725
  171MOL    H4027580   2.020   6.116   1.397  0.5905 -2.1790  1.6385
  171MOL    H4127581   2.077   6.255   1.410  2.5508  0.2926 -2.4855
  171MOL    C4227582   2.125   6.011   1.652 -0.7674 -0.3854  0.5256
  171MOL    C4327583   2.045   5.893   1.583 -0.1652 -0.3731  0.5162
  171MOL    N4427584   2.086   5.774   1.653  0.4189 -0.5264 -0.4363
  171MOL    H4527585   2.232   5.995   1.645 -1.0892 -2.9566  1.0994
  171MOL    H4627586   2.099   6.019   1.758 -2.7765  1.3896 -0.0587
  171MOL    H4727587   2.074   5.875   1.479  1.8454 -2.5175  1.4098
  171MOL    H4827588   2.064   5.781   1.752  2.0090 -1.0838 -0.0285
  171MOL    H4927589   2.187   5.775   1.653  0.4177  0.3506  0.3940
  171MOL    C5027590   1.891   5.912   1.592 -0.2105 -0.1731  0.2968
  171MOL    C5127591   1.802   5.798   1.557 -0.0432 -0.2136  0.0751
  171MOL    N5227592   1.663   5.839   1.566 -0.6799 -0.0063 -0.6404
  171MOL    H5327593   1.868   5.932   1.697 -1.7285  2.1964 -0.4432
  171MOL    H5427594   1.872   6.000   1.530 -1.6851 -0.1604  0.7459
  171MOL    H5527595   1.827   5.711   1.618 -1.1482 -1.9509 -1.8858
  171MOL    H5627596   1.618   5.830   1.656  1.5740 -1.4213  0.4049
  171MOL    H5727597   1.621   5.767   1.509 -1.3314 -0.3467  0.2657
  171MOL    C5827598   1.819   5.759   1.411  0.7471 -0.3085  0.0601
  171MOL    C5927599   1.721   5.652   1.352 -0.0500 -0.2460 -0.1578
  171MOL    N6027600   1.745   5.645   1.208  0.7199  0.5025 -0.1096
  171MOL    H6127601   1.804   5.847   1.349  3.5307 -0.1608 -0.4731
  171MOL    H6227602   1.923   5.731   1.397  0.5436 -1.1581  0.2358
  171MOL    H6327603   1.617   5.684   1.364 -0.1916 -0.3945 -0.9923
  171MOL    H6427604   1.668   5.590   1.172  0.6319 -0.2137  1.1338
  171MOL    H6527605   1.718   5.739   1.182  0.0695  0.3172 -0.1079
  171MOL    C6627606   1.738   5.507   1.406  0.2851  0.5821 -0.7009
  171MOL    C6727607   1.675   5.473   1.547 -0.1311 -0.4550  0.4086
  171MOL    N6827608   1.533   5.471   1.544 -0.2338 -0.3449  0.2320
  171MOL    H6927609   1.704   5.433   1.334  1.2539  0.4002 -0.9706
  171MOL    H7027610   1.842   5.492   1.435 -0.5425 -2.4581  0.8624
  171MOL    H7127611   1.705   5.556   1.611 -0.2282  0.6421 -0.9630
  171MOL    H7227612   1.506   5.530   1.622 -2.2749  2.6437 -2.6076
  171MOL    H7327613   1.488   5.384   1.569  2.0879 -2.0383 -1.2788
  171MOL    C7427614   1.736   5.343   1.605  0.0233  0.3343 -0.5791
  171MOL    C7527615   1.701   5.318   1.756  0.4114  0.1249  0.6098
  171MOL    N7627616   1.770   5.198   1.793  0.0034 -0.0485  0.4724
  171MOL    H7727617   1.712   5.257   1.542 -0.4266  0.1818 -0.2002
  171MOL    H7827618   1.844   5.353   1.596  0.0890  0.8241  0.6310
  171MOL    H7927619   1.596   5.289   1.756  0.8244 -1.5563 -1.8869
  171MOL    H8027620   1.811   5.204   1.886 -1.1092 -1.2262  1.0563
  171MOL    H8127621   1.858   5.197   1.743  0.7000 -1.4114  1.6684
  171MOL    C8227622   1.726   5.435   1.854  0.3066  0.0445  0.0856
  171MOL    C8327623   1.605   5.521   1.902 -0.8578  0.2174 -0.1768
  171MOL    N8427624   1.554   5.617   1.803  0.4737  0.0001  0.6391
  171MOL    H8527625   1.770   5.398   1.946  2.1600  0.5701 -0.5791
  171MOL    H8627626   1.785   5.521   1.823 -0.5888  1.1525  1.3542
  171MOL    H8727627   1.644   5.581   1.984 -0.6669 -0.7054  0.4114
  171MOL    H8827628   1.489   5.677   1.851  0.5208  0.7414 -0.2091
  171MOL    H8927629   1.633   5.677   1.785  3.0307 -2.7771  2.0979
  171MOL    C9027630   1.481   5.450   1.953 -0.1157 -0.0572  0.4706
  171MOL    C9127631   1.485   5.357   2.079 -0.3359 -0.3764 -0.4546
  171MOL    N9227632   1.367   5.388   2.160 -0.2383 -0.2710 -0.0895
  171MOL    H9327633   1.402   5.525   1.966 -2.9663 -2.6767 -1.1104
  171MOL    H9427634   1.444   5.385   1.874 -0.8778 -0.5320  1.1934
  171MOL    H9527635   1.577   5.383   2.131 -0.2303 -1.6322  0.0183
  171MOL    H9627636   1.380   5.474   2.211  0.2623 -0.4459  0.0840
  171MOL    H9727637   1.367   5.308   2.222 -0.4151 -0.1325  0.0894
  171MOL    C9827638   1.490   5.206   2.056  0.6955  0.2495 -0.1680
  171MOL    C9927639   1.541   5.107   2.172  0.7975  0.6058  0.4867
  171MOL   N10027640   1.431   5.100   2.270  0.4306  0.2518  0.5309
  171MOL   H10127641   1.398   5.176   2.005  0.5334  1.4532 -0.5859
  171MOL   H10227642   1.567   5.191   1.980 -0.3938 -0.4446 -1.1447
  171MOL   H10327643   1.623   5.151   2.229  0.9731 -1.6420  2.0263
  171MOL   H10427644   1.343   5.081   2.224  0.7249 -1.6487  0.7085
  171MOL   H10527645   1.449   5.017   2.325  0.0929  0.4942  1.0092
  171MOL   C10627646   1.572   4.966   2.136 -0.6895 -0.2551  0.0016
  171MOL   C10727647   1.629   4.871   2.241  0.1127 -0.1651 -0.2003
  171MOL   N10827648   1.587   4.737   2.207 -0.2225 -1.5754  0.0064
  171MOL   H10927649   1.478   4.927   2.097 -1.6377  1.4691  0.5007
  171MOL   H11027650   1.630   4.958   2.045  0.9418  1.0678  0.9004
  171MOL   H11127651   1.577   4.892   2.334  0.6962  2.4204 -0.4098
  171MOL   H11227652   1.601   4.687   2.293  3.8892  0.6485  0.7630
  171MOL   H11327653   1.486   4.740   2.211 -0.1581  0.0858  0.9177
  171MOL   C11427654   1.780   4.867   2.256  0.3635 -0.4201  0.0847
  171MOL   C11527655   1.854   5.007   2.272 -0.3679 -0.4487  0.3134
  171MOL   N11627656   1.991   4.972   2.321  0.6296  0.0073  0.5376
  171MOL   H11727657   1.793   4.794   2.336  0.0717 -1.4718 -0.7970
  171MOL   H11827658   1.818   4.825   2.162 -0.1827 -0.3746 -0.1592
  171MOL   H11927659   1.795   5.068   2.341 -1.7381 -0.2829 -0.9710
  171MOL   H12027660   1.970   4.904   2.393 -0.4992  0.4587  0.6384
  171MOL   H12127661   2.052   4.924   2.256 -0.1390 -0.0907 -0.1181
  171MOL   C12227662   1.877   5.086   2.134  0.7269  0.2292 -0.0446
  171MOL   C12327663   1.949   5.216   2.145  0.2626 -0.3859  1.0688
  171MOL   N12427664   1.995   5.236   2.011  0.8919  0.3352 -0.3338
  171MOL   H12527665   1.944   5.031   2.069 -1.5694 -3.1387  0.3041
  171MOL   H12627666   1.788   5.105   2.075 -0.9135  0.2658  2.3467
  171MOL   H12727667   2.043   5.190   2.195  0.8905  1.0858  0.6871
  171MOL   H12827668   2.073   5.176   1.987 -0.2134 -1.1298 -0.2352
  171MOL   H12927669   2.033   5.328   1.990  4.1517 -1.1273 -1.1430
  171MOL   C13027670   1.878   5.334   2.206  0.1971 -0.2442 -0.0949
  171MOL   C13127671   1.851   5.334   2.366 -0.3825  0.2958  0.1036
  171MOL   N13227672   1.973   5.271   2.425  0.2071 -0.2543 -0.6065
  171MOL   H13327673   1.933   5.427   2.190 -0.7477  0.1902 -0.8766
  171MOL   H13427674   1.785   5.339   2.149  0.7074  0.0573 -0.9150
  171MOL   H13527675   1.768   5.272   2.398 -0.3488 -0.2664 -0.8884
  171MOL   H13627676   1.975   5.180   2.381 -2.7800 -2.3902  3.4504
  171MOL   H13727677   1.965   5.255   2.524  0.3294  0.6201 -0.4460
  171MOL   C13827678   1.822   5.477   2.414 -0.1769 -0.0555 -0.9378
  171MOL   C13927679   1.827   5.505   2.563 -0.1214 -0.6676 -0.8363
  171MOL   N14027680   1.960   5.534   2.596 -0.5653  0.2093  0.0111
  171MOL   H14127681   1.872   5.555   2.357  0.6980 -0.8716 -1.3092
  171MOL   H14227682   1.717   5.498   2.392 -0.3706  1.2986  1.1844
  171MOL   H14327683   1.800   5.415   2.618  0.3981 -0.4585 -0.2381
  171MOL   H14427684   1.982   5.516   2.693  0.3308 -0.8219 -0.3758
  171MOL   H14527685   2.025   5.474   2.546  1.8739  0.6386  2.5260
  171MOL   C14627686   1.736   5.627   2.612  0.3703 -0.3301 -0.2399
  171MOL   C14727687   1.618   5.580   2.700  0.4417 -0.2308 -0.2976
  171MOL   N14827688   1.556   5.709   2.748  0.2456 -0.4284  0.8657
  171MOL   H14927689   1.792   5.691   2.680  0.4203 -0.6380  0.0094
  171MOL   H15027690   1.702   5.687   2.528 -0.7771 -0.6012  0.0137
  171MOL   H15127691   1.653   5.528   2.790  0.1833  0.7065  0.3500
  171MOL   H15227692   1.502   5.745   2.670  2.1869  1.5587  0.3903
  171MOL   H15327693   1.633   5.774   2.746  0.4629 -0.5388  4.2098
  171MOL   C15427694   1.518   5.494   2.617 -0.9756 -0.0239  0.3346
  171MOL   C15527695   1.387   5.440   2.696 -0.3030 -0.5449 -0.4505
  171MOL   N15627696   1.323   5.323   2.643 -0.7003 -0.2357  0.1463
  171MOL   H15727697   1.510   5.539   2.518  2.1030 -1.2064 -0.5456
  171MOL   H15827698   1.577   5.404   2.594 -0.5630  0.3947 -0.2636
  171MOL   H15927699   1.318   5.519   2.726  1.6681  2.1771 -2.8247
  171MOL   H16027700   1.234   5.306   2.689 -0.9190  1.3143  0.3460
  171MOL   H16127701   1.296   5.344   2.548 -1.3900  0.0614  0.4063
  171MOL   H16227702   1.425   5.409   2.793 -3.3987 -1.0884  0.6364
  172MOL     C127703   0.680   0.607   2.669  0.1135 -0.2728  0.4108
  172MOL     C227704   0.738   0.617   2.531  0.5007 -0.6848 -0.1433
  172MOL     N327705   0.801   0.497   2.490  0.2552 -0.4578  0.1865
  172MOL     H427706   0.581   0.562   2.659 -0.0931 -0.1926  1.9082
  172MOL     H527707   0.668   0.707   2.711  1.1761  0.0170  0.0452
  172MOL     H627708   0.825   0.682   2.538 -0.5802  0.8581 -0.7173
  172MOL     H727709   0.757   0.469   2.403  0.7859 -0.0975 -0.1985
  172MOL     H827710   0.896   0.516   2.465  0.4317 -1.6858 -0.1128
  172MOL     H927711   0.734   0.535   2.729 -0.3276 -1.8491 -1.0667
  172MOL    C1027712   0.639   0.658   2.420 -0.7678  0.1643 -0.1690
  172MOL    C1127713   0.613   0.808   2.424  1.0689 -0.0641  0.0496
  172MOL    N1227714   0.561   0.849   2.297 -0.0750 -0.0651 -0.1156
  172MOL    H1327715   0.692   0.634   2.327  0.1322  1.5057 -0.0215
  172MOL    H1427716   0.546   0.601   2.421 -0.4362 -0.3667  1.2443
  172MOL    H1527717   0.704   0.865   2.443 -1.5491  4.3110  0.2622
  172MOL    H1627718   0.546   0.949   2.297  1.5127  0.1839 -1.3794
  172MOL    H1727719   0.469   0.809   2.284 -0.7227  1.4171 -0.1926
  172MOL    C1827720   0.492   0.836   2.517 -0.3729 -0.0940 -0.2778
  172MOL    C1927721   0.509   0.949   2.616  0.0447 -0.0297  0.0932
  172MOL    N2027722   0.521   1.069   2.537 -1.0936 -0.0790  0.5174
  172MOL    H2127723   0.403   0.843   2.455 -0.0386 -0.4605 -0.7970
  172MOL    H2227724   0.477   0.754   2.588  1.8280 -1.0619 -0.8839
  172MOL    H2327725   0.600   0.938   2.675  0.0665  1.5661  0.3719
  172MOL    H2427726   0.521   1.141   2.608  1.4758  0.0141  0.4437
  172MOL    H2527727   0.440   1.085   2.479 -2.4649  1.0608  2.6982
  172MOL    C2627728   0.390   0.976   2.708  0.3139  0.0409  0.2894
  172MOL    C2727729   0.322   0.858   2.788 -0.0765 -0.6701  0.7608
  172MOL    N2827730   0.259   0.910   2.905 -0.2789  0.4227  0.8852
  172MOL    H2927731   0.436   1.032   2.790 -0.3258 -2.1002  2.1676
  172MOL    H3027732   0.315   1.034   2.655  0.6551 -0.0737 -0.3254
  172MOL    H3127733   0.400   0.792   2.826 -0.7590 -3.1279 -1.9254
  172MOL    H3227734   0.211   0.840   2.960 -2.4390 -0.2175 -1.7278
  172MOL    H3327735   0.322   0.965   2.962  2.5996 -2.0359  0.2517
  172MOL    C3427736   0.211   0.778   2.710  0.3360 -0.2325 -0.3250
  172MOL    C3527737   0.175   0.633   2.766  0.1690  0.9597 -0.1939
  172MOL    N3627738   0.045   0.590   2.719 -0.1604 -0.3039  0.3642
  172MOL    H3727739   0.130   0.851   2.703  0.7393  0.2877  0.4161
  172MOL    H3827740   0.232   0.770   2.603 -2.7009 -0.9254 -0.9467
  172MOL    H3927741   0.166   0.646   2.873  0.2152  1.7917 -0.2888
  172MOL    H4027742   0.037   0.490   2.727  0.5471 -0.4156 -0.2727
  172MOL    H4127743   7.245   0.629   2.773  1.0489 -0.1200  1.9597
  172MOL    C4227744   0.285   0.529   2.739 -0.1211  0.1499 -0.1446
  172MOL    C4327745   0.298   0.427   2.858 -0.5526  0.1517 -0.0424
  172MOL    N4427746   0.197   0.327   2.831  0.1661  0.6957  0.0242
  172MOL    H4527747   0.287   0.486   2.639  2.0006  1.2245 -0.5944
  172MOL    H4627748   0.376   0.588   2.727 -0.7243  1.2501  0.6209
  172MOL    H4727749   0.276   0.488   2.946  1.0919  1.9527 -0.8589
  172MOL    H4827750   0.113   0.382   2.817 -0.1850  0.4657  1.1960
  172MOL    H4927751   0.162   0.274   2.909 -1.0360  0.7647 -0.4494
  172MOL    C5027752   0.437   0.357   2.871  0.4354  0.2716 -0.4380
  172MOL    C5127753   0.463   0.303   3.015 -0.1779  0.2801  0.3236
  172MOL    N5227754   0.555   0.193   3.014 -0.3282  0.6011 -0.7664
  172MOL    H5327755   0.428   0.279   2.795  0.2732  0.3109 -0.4600
  172MOL    H5427756   0.517   0.428   2.849  0.1330  1.3686  1.8911
  172MOL    H5527757   0.369   0.267   3.056  0.0235 -0.4993  0.1020
  172MOL    H5627758   0.650   0.225   3.026  0.5667 -2.6410  1.3249
  172MOL    H5727759   0.537   0.129   3.090  1.6144  1.2538  0.2800
  172MOL    C5827760   0.533   0.429   3.092  0.4338  0.1265  0.0312
  172MOL    C5927761   0.536   0.404   3.245  0.0817  0.6876  0.2544
  172MOL    N6027762   0.649   0.469   3.305 -0.0668 -0.1402 -0.2565
  172MOL    H6127763   0.635   0.441   3.057  1.1854 -0.7989  1.8236
  172MOL    H6227764   0.481   0.523   3.073  1.7388  0.4056 -2.2175
  172MOL    H6327765   0.545   0.296   3.252  1.8801  0.9024  1.7106
  172MOL    H6427766   0.643   0.438   3.401 -0.6366  1.3391  0.1946
  172MOL    H6527767   0.728   0.419   3.265  1.4828 -1.0761  3.6736
  172MOL    C6627768   0.412   0.458   3.308  0.2004  0.1142  0.3247
  172MOL    C6727769   0.395   0.426   3.460 -1.1219  0.2423 -0.2706
  172MOL    N6827770   0.283   0.513   3.493 -0.2237  0.2580 -0.3194
  172MOL    H6927771   0.400   0.566   3.297 -2.2712 -0.1110  0.3940
  172MOL    H7027772   0.327   0.425   3.247  0.4297 -0.0699  0.1028
  172MOL    H7127773   0.493   0.444   3.504 -0.0318  1.8287 -3.2154
  172MOL    H7227774   0.278   0.497   3.593 -0.7860 -0.2457 -0.4240
  172MOL    H7327775   0.316   0.608   3.480  1.0010 -0.4156 -2.3774
  172MOL    C7427776   0.360   0.283   3.490 -0.5032 -0.0874  0.1834
  172MOL    C7527777   0.297   0.254   3.630 -0.1024 -0.5635 -0.2258
  172MOL    N7627778   0.280   0.111   3.634 -0.3126  1.1801 -0.6055
  172MOL    H7727779   0.283   0.249   3.421 -0.4796  1.6360 -0.7235
  172MOL    H7827780   0.453   0.229   3.476 -1.2666 -0.5490 -3.6883
  172MOL    H7927781   0.198   0.299   3.639 -0.5718 -1.7439  0.6965
  172MOL    H8027782   0.241   0.075   3.720 -0.3617  0.1843 -1.0342
  172MOL    H8127783   0.218   0.067   3.568  1.7603 -4.3671  0.8126
  172MOL    C8227784   0.388   0.299   3.746 -0.2192 -0.9471 -0.2479
  172MOL    C8327785   0.333   0.277   3.890 -0.9351 -0.1390 -0.5455
  172MOL    N8427786   0.418   0.326   4.002  0.9738 -0.8328  0.3386
  172MOL    H8527787   0.485   0.248   3.745 -0.1640 -0.8570  0.2602
  172MOL    H8627788   0.421   0.402   3.740  1.3080 -1.3664  0.6019
  172MOL    H8727789   0.336   0.169   3.905  2.0205 -0.0985 -0.4821
  172MOL    H8827790   0.371   0.294   4.086  0.6019 -1.8673 -0.2469
  172MOL    H8927791   0.417   0.426   3.992  1.8909 -0.5834  2.4521
  172MOL    C9027792   0.196   0.336   3.906 -0.0487  0.4681  0.0615
  172MOL    C9127793   0.077   0.237   3.926 -0.3901 -0.0905  0.2223
  172MOL    N9227794   0.087   0.189   4.061  0.0517 -0.0390  0.1527
  172MOL    H9327795   0.193   0.399   3.995 -0.5069 -0.3248  0.6254
  172MOL    H9427796   0.175   0.411   3.831  0.3414  0.9962  0.4752
  172MOL    H9527797   0.082   0.150   3.861 -1.1309 -1.0317  1.4050
  172MOL    H9627798   7.275   0.143   4.081  1.2030 -2.9693 -1.3339
  172MOL    H9727799   0.151   0.114   4.081  1.0466  0.5216 -0.8760
  172MOL    C9827800   7.213   0.312   3.914  0.4622  0.0247  0.1418
  172MOL    C9927801   7.174   0.354   3.767 -0.0828  0.4901 -0.5341
  172MOL   N10027802   7.048   0.288   3.728  0.5848  0.7046  0.5279
  172MOL   H10127803   7.137   0.241   3.947 -0.1376  0.3080 -0.6182
  172MOL   H10227804   7.220   0.395   3.983  0.8576 -1.2417  1.6594
  172MOL   H10327805   7.239   0.320   3.686 -0.3527 -1.9269  0.2276
  172MOL   H10427806   6.994   0.355   3.675  0.1644  0.4161  0.5901
  172MOL   H10527807   7.067   0.215   3.660  0.7126  0.8686  0.3845
  172MOL   C10627808   7.147   0.506   3.751  0.4876  0.0285 -0.3297
  172MOL   C10727809   7.151   0.557   3.603 -0.1250  0.0310 -0.2654
  172MOL   N10827810   7.050   0.496   3.521  0.2995 -0.5375 -0.0191
  172MOL   H10927811   7.056   0.539   3.802  1.5539  2.0463  0.3392
  172MOL   H11027812   7.223   0.561   3.806  0.9777 -1.5866  0.6120
  172MOL   H11127813   7.242   0.515   3.559 -0.4386  1.2554 -2.1595
  172MOL   H11227814   7.093   0.407   3.502  0.7824 -0.4785  0.7674
  172MOL   H11327815   7.037   0.547   3.435 -0.6285  0.5332  0.7381
  172MOL   C11427816   7.146   0.705   3.586  0.0227 -0.3768  0.7072
  172MOL   C11527817   7.176   0.755   3.441  0.2260 -0.3852  0.2610
  172MOL   N11627818   7.159   0.895   3.450 -0.4681 -0.0349 -0.1411
  172MOL   H11727819   7.066   0.755   3.640 -0.1910  0.2576 -0.1763
  172MOL   H11827820   7.227   0.731   3.654 -0.4356 -1.2211  1.5726
  172MOL   H11927821   7.100   0.722   3.371  1.9472  1.9492 -2.8257
  172MOL   H12027822   7.063   0.919   3.469 -0.6880 -1.5286  0.7195
  172MOL   H12127823   7.207   0.932   3.532  0.1268 -0.2862 -0.3728
  172MOL   C12227824   0.044   0.728   3.395  0.4094 -0.5039 -0.5154
  172MOL   C12327825   0.072   0.778   3.253  0.4859 -0.0813  0.4487
  172MOL   N12427826   0.217   0.750   3.236  0.7042  0.0608  0.0803
  172MOL   H12527827   0.106   0.770   3.474 -0.3775  0.9347 -0.6461
  172MOL   H12627828   0.062   0.620   3.398  0.5536 -0.4758 -0.3821
  172MOL   H12727829   0.078   0.886   3.261  0.9322 -0.1833  1.5374
  172MOL   H12827830   0.281   0.769   3.312  0.7240  2.1951 -0.4445
  172MOL   H12927831   0.222   0.652   3.213  1.0635  0.9247 -3.7340
  172MOL   C13027832   7.258   0.727   3.134 -1.0388  0.2295  0.0510
  172MOL   C13127833   7.196   0.588   3.136  0.8260 -0.2667  0.1119
  172MOL   N13227834   7.096   0.581   3.025 -0.1384 -0.3927 -0.3019
  172MOL   H13327835   7.172   0.793   3.146  0.1202  1.2429  3.5553
  172MOL   H13427836   0.036   0.758   3.045 -1.2406  3.4905  1.0104
  172MOL   H13527837   7.143   0.578   3.231 -1.1915  0.6642 -0.8848
  172MOL   H13627838   7.042   0.666   3.038 -0.2455 -0.5615  0.3797
  172MOL   H13727839   7.133   0.590   2.932 -2.2580 -0.6610 -1.1829
  172MOL   C13827840   0.028   0.480   3.112 -0.0412  0.0480 -0.5173
  172MOL   C13927841   7.254   0.335   3.136 -0.1505  0.2932  0.1207
  172MOL   N14027842   0.095   0.246   3.105 -0.3297 -0.3503  0.1731
  172MOL   H14127843   0.069   0.492   3.012 -0.0157  0.5661 -0.4442
  172MOL   H14227844   0.105   0.500   3.187 -0.2071 -0.3024 -0.2523
  172MOL   H14327845   7.161   0.320   3.081  0.6705 -0.4486 -1.0939
  172MOL   H14427846   0.154   0.244   3.187  2.5563 -1.4272 -1.8469
  172MOL   H14527847   0.058   0.153   3.098  1.6970 -1.4391  2.8227
  172MOL   C14627848   7.236   0.310   3.284 -0.2930  0.0976 -0.2753
  172MOL   C14727849   7.146   0.195   3.315  0.6408  0.0488  0.2934
  172MOL   N14827850   7.161   0.164   3.457  0.5672 -0.5536  0.1638
  172MOL   H14927851   0.051   0.322   3.344 -0.7308  2.5359 -0.0715
  172MOL   H15027852   7.183   0.399   3.317  1.0191  1.2303 -1.1895
  172MOL   H15127853   7.172   0.109   3.254 -1.7495 -0.7876  0.3992
  172MOL   H15227854   7.248   0.115   3.469  0.9868 -0.1184 -0.9711
  172MOL   H15327855   7.102   0.084   3.477 -0.0683  0.0799  0.8498
  172MOL   C15427856   6.987   0.222   3.304 -0.0487  0.4829  0.3726
  172MOL   C15527857   6.935   0.228   3.156 -0.3907  0.4198 -0.3237
  172MOL   N15627858   6.795   0.182   3.144  0.0607 -0.0262  0.2007
  172MOL   H15727859   6.935   0.142   3.355  0.4603  1.3608  2.3340
  172MOL   H15827860   6.952   0.313   3.354 -0.8511 -0.0131  0.7110
  172MOL   H15927861   6.986   0.160   3.087 -2.1642 -1.1884 -0.0765
  172MOL   H16027862   6.766   0.208   3.051 -1.6699 -0.9361  0.4649
  172MOL   H16127863   6.732   0.238   3.200 -1.6577 -1.4324 -0.2832
  172MOL   H16227864   6.948   0.331   3.123  1.0749 -0.0017 -1.1280
  173MOL     C127865   1.631   6.295   6.412 -0.7411  0.1930 -0.4175
  173MOL     C227866   1.547   6.255   6.293 -0.3249 -0.2434  0.1654
  173MOL     N327867   1.558   6.112   6.272  0.3330  0.0845  0.5468
  173MOL     H427868   1.677   6.393   6.402  0.3296 -0.3625 -1.0511
  173MOL     H527869   1.715   6.230   6.439 -1.4638 -0.9629 -0.9064
  173MOL     H627870   1.575   6.321   6.211  0.8076  0.0220  0.7563
  173MOL     H727871   1.647   6.077   6.304  1.9306  0.4092 -3.2221
  173MOL     H827872   1.486   6.068   6.328 -1.2490 -1.2163 -2.3330
  173MOL     H927873   1.584   6.293   6.511 -0.5460 -0.7049 -0.3301
  173MOL    C1027874   1.396   6.286   6.317 -0.5464  0.3501 -0.3637
  173MOL    C1127875   1.355   6.433   6.293 -0.2618  0.0223 -0.1296
  173MOL    N1227876   1.209   6.443   6.277 -0.5856 -0.3151  0.2887
  173MOL    H1327877   1.335   6.219   6.255  0.0541  0.1102 -0.6989
  173MOL    H1427878   1.370   6.257   6.419 -0.9112 -0.5503 -0.7064
  173MOL    H1527879   1.402   6.459   6.199  0.7653 -0.0606  0.3541
  173MOL    H1627880   1.168   6.389   6.201  1.0365 -0.1289 -0.7467
  173MOL    H1727881   1.161   6.408   6.359 -2.3314  2.2781  0.4184
  173MOL    C1827882   1.405   6.526   6.399 -0.0890  0.4219  0.9259
  173MOL    C1927883   1.361   6.676   6.393 -0.1680 -0.4316  0.4013
  173MOL    N2027884   1.421   6.753   6.503 -0.0487  0.0239  0.2831
  173MOL    H2127885   1.384   6.482   6.496 -3.4914  1.3651  0.6815
  173MOL    H2227886   1.513   6.521   6.391 -0.0716  0.4863  1.1094
  173MOL    H2327887   1.253   6.679   6.407 -0.3889 -0.5360 -1.2852
  173MOL    H2427888   1.429   6.850   6.479 -0.7389 -0.2402 -1.0194
  173MOL    H2527889   1.363   6.749   6.586  2.4623 -2.9473  2.0074
  173MOL    C2627890   1.409   6.745   6.263 -0.3173 -0.0618 -0.1191
  173MOL    C2727891   1.367   6.893   6.240  0.0265  0.0166 -0.8004
  173MOL    N2827892   1.486   6.970   6.281 -0.1790  0.5127  0.5413
  173MOL    H2927893   1.517   6.734   6.254 -0.4913 -2.3007  0.1727
  173MOL    H3027894   1.374   6.701   6.169 -0.7327  2.8006 -1.3416
  173MOL    H3127895   1.287   6.931   6.303  1.3228  0.3902  0.6823
  173MOL    H3227896   1.465   7.066   6.306 -0.6440  0.2216  1.2902
  173MOL    H3327897   1.563   6.966   6.216 -0.6060  1.2308 -0.0234
  173MOL    C3427898   1.336   6.925   6.090  0.7447  0.3119 -0.1402
  173MOL    C3527899   1.190   6.903   6.045 -0.1727 -0.3862 -0.6498
  173MOL    N3627900   1.176   6.980   5.925  0.0984 -0.3533  0.0739
  173MOL    H3727901   1.357   7.032   6.087 -2.5095  1.0027  0.1772
  173MOL    H3827902   1.409   6.868   6.033  0.0095 -0.9148  0.1206
  173MOL    H3927903   1.121   6.951   6.114 -0.5271 -1.9840  0.1377
  173MOL    H4027904   1.230   6.926   5.858  0.6388 -0.3446  0.5027
  173MOL    H4127905   1.079   6.990   5.901 -0.1294  1.4895  1.6862
  173MOL    C4227906   1.145   6.756   6.017 -0.2224 -0.0566  0.9438
  173MOL    C4327907   0.995   6.740   6.034  0.3154 -0.2344  0.5732
  173MOL    N4427908   0.952   6.616   5.978  0.5747  0.1015  0.3727
  173MOL    H4527909   1.166   6.737   5.912 -1.8050 -1.0674  0.7936
  173MOL    H4627910   1.196   6.683   6.080  0.6515  1.6183  2.2372
  173MOL    H4727911   0.941   6.814   5.974 -0.8138 -1.8338 -0.4464
  173MOL    H4827912   0.855   6.623   5.952 -0.8219  0.0038  5.0537
  173MOL    H4927913   1.001   6.594   5.893  1.3361 -0.1652  0.8706
  173MOL    C5027914   0.943   6.747   6.187 -0.3630  0.6968 -0.0988
  173MOL    C5127915   0.821   6.844   6.198 -0.0356 -0.6375  0.1650
  173MOL    N5227916   0.738   6.791   6.305  0.0698 -0.1630  0.2584
  173MOL    H5327917   0.911   6.646   6.212 -0.6752  0.9045  0.3314
  173MOL    H5427918   1.029   6.768   6.250  0.3100  0.4299 -0.9142
  173MOL    H5527919   0.765   6.828   6.105 -0.9919 -2.5905  1.0496
  173MOL    H5627920   0.692   6.708   6.271  1.8816 -1.1330  0.1037
  173MOL    H5727921   0.654   6.846   6.318 -0.2488 -0.1033 -1.8390
  173MOL    C5827922   0.838   6.994   6.211 -0.4907  0.3607 -0.3505
  173MOL    C5927923   0.876   7.076   6.089  0.1928  0.6575 -0.1294
  173MOL    N6027924   0.762   7.074   6.003  0.0705 -0.3170 -0.1841
  173MOL    H6127925   0.756   7.040   6.267  0.6574  0.0604  1.6078
  173MOL    H6227926   0.930   6.997   6.269  0.4839  0.6899 -1.8811
  173MOL    H6327927   0.957   7.026   6.037  0.6926  1.0793  0.2429
  173MOL    H6427928   0.676   7.080   6.056 -0.9286 -2.5454 -1.4693
  173MOL    H6527929   0.748   7.155   5.945 -0.9735  1.1541  2.0281
  173MOL    C6627930   0.919   7.224   6.114 -0.2697  1.3125 -0.4779
  173MOL    C6727931   1.063   7.243   6.173 -0.3235  0.0948 -0.3267
  173MOL    N6827932   1.155   7.267   6.062  0.2965  0.4745 -0.5053
  173MOL    H6927933   0.903   7.271   6.017  0.8831  0.3603 -1.1356
  173MOL    H7027934   0.855   0.011   6.177  0.4445 -0.0216  1.6614
  173MOL    H7127935   1.111   7.159   6.221 -2.6116 -0.3038  1.3770
  173MOL    H7227936   1.157   7.176   6.017  0.8546 -0.1008  0.6686
  173MOL    H7327937   1.087   0.037   6.003 -1.5579 -2.4274 -0.7468
  173MOL    C7427938   1.051   0.098   6.260  0.0440  0.7423 -0.2235
  173MOL    C7527939   1.194   0.148   6.313  0.0409  0.1801  0.5959
  173MOL    N7627940   1.188   0.297   6.317 -0.2071 -0.7956  0.2750
  173MOL    H7727941   1.012   0.185   6.207  1.1600  1.5126  0.1790
  173MOL    H7827942   0.984   0.065   6.339 -0.2224 -2.1378 -1.6044
  173MOL    H7927943   1.271   0.116   6.243 -0.2778 -0.6460  0.6223
  173MOL    H8027944   1.171   0.342   6.228  0.9373  0.3545  0.6294
  173MOL    H8127945   1.133   0.341   6.389  1.4082  0.1170  0.9642
  173MOL    C8227946   1.234   0.095   6.456  0.1169 -0.4140 -0.5269
  173MOL    C8327947   1.298   7.231   6.455  0.2539  0.1454  0.4159
  173MOL    N8427948   1.433   7.241   6.402 -0.1404 -0.3015  0.2661
  173MOL    H8527949   1.295   0.161   6.518  1.4017  0.1580 -2.3606
  173MOL    H8627950   1.146   0.075   6.518 -0.3268 -0.7516 -1.2663
  173MOL    H8727951   1.250   7.156   6.392 -0.7623 -0.1728  1.5682
  173MOL    H8827952   1.432   7.265   6.304 -3.0694  2.3047  0.8328
  173MOL    H8927953   1.468   0.049   6.446 -0.7178  0.5138 -0.7993
  173MOL    C9027954   1.315   7.178   6.599  0.9133 -0.1227  0.4379
  173MOL    C9127955   1.253   7.040   6.634  0.1024 -0.6810 -0.1738
  173MOL    N9227956   1.316   6.991   6.760 -0.2970 -0.3743  0.4578
  173MOL    H9327957   1.417   7.182   6.635  0.3127 -1.7992  2.4323
  173MOL    H9427958   1.279   7.250   6.672 -0.4654  0.1622 -0.5057
  173MOL    H9527959   1.274   6.970   6.554  0.1953 -0.2471 -0.5325
  173MOL    H9627960   1.416   7.006   6.756 -0.1091 -1.6392  0.2955
  173MOL    H9727961   1.305   6.895   6.788  2.7136 -1.0293 -0.4427
  173MOL    C9827962   1.096   7.052   6.655 -0.7158 -0.0503 -0.4953
  173MOL    C9927963   1.034   6.914   6.692  0.0348 -0.6227  0.1200
  173MOL   N10027964   0.891   6.944   6.724  0.3699  0.1863 -0.5685
  173MOL   H10127965   1.070   7.125   6.732  2.2261 -1.0213  1.5136
  173MOL   H10227966   1.051   7.086   6.562  1.0297 -0.2655 -1.4350
  173MOL   H10327967   1.087   6.854   6.765 -0.5439 -1.5652 -0.2242
  173MOL   H10427968   0.834   6.976   6.647 -3.4741 -0.9700  1.6730
  173MOL   H10527969   0.872   7.001   6.805  1.8011 -3.6818  2.6869
  173MOL   C10627970   1.037   6.820   6.573  0.5541 -0.4859 -0.7330
  173MOL   C10727971   0.957   6.688   6.600 -0.5199  0.4879  0.6931
  173MOL   N10827972   0.907   6.626   6.476 -0.6646 -0.1934  0.1443
  173MOL   H10927973   1.003   6.874   6.485 -0.7070 -0.1309 -0.0415
  173MOL   H11027974   1.142   6.791   6.565  1.0240  0.9609 -0.0738
  173MOL   H11127975   0.877   6.698   6.673 -0.5676  0.4627  0.6444
  173MOL   H11227976   0.983   6.615   6.411 -0.9080  1.5391 -0.4651
  173MOL   H11327977   0.845   6.692   6.432 -0.4336 -0.4794 -0.6059
  173MOL   C11427978   1.038   6.576   6.657 -0.2339  0.5068 -0.0391
  173MOL   C11527979   0.970   6.455   6.719  0.4102 -0.0343  1.1211
  173MOL   N11627980   1.063   6.344   6.733  0.7887  0.2852 -0.3726
  173MOL   H11727981   1.113   6.540   6.587 -0.5597  0.2201 -0.2460
  173MOL   H11827982   1.101   6.611   6.738  1.2416 -0.6751 -0.6481
  173MOL   H11927983   0.903   6.425   6.638  0.4933 -4.3284  2.5314
  173MOL   H12027984   1.050   6.310   6.639  2.0315 -1.6343  0.1241
  173MOL   H12127985   1.024   6.267   6.784 -1.1214  1.4801  0.0256
  173MOL   C12227986   0.900   6.484   6.856 -0.1031 -0.2631 -0.2645
  173MOL   C12327987   0.780   6.398   6.876 -0.3653  0.3290  0.9559
  173MOL   N12427988   0.783   6.351   7.013 -0.0894 -0.1403  0.2928
  173MOL   H12527989   0.980   6.474   6.929 -1.0266 -2.2969  0.4872
  173MOL   H12627990   0.864   6.587   6.863 -0.2601 -0.1784 -2.1068
  173MOL   H12727991   0.781   6.311   6.810  0.6929  0.3109  0.9832
  173MOL   H12827992   0.744   6.428   7.066 -1.6985  0.3186 -1.4753
  173MOL   H12927993   0.874   6.353   7.057  1.0885  2.5612 -2.1049
  173MOL   C13027994   0.642   6.453   6.858 -0.0606 -0.0043  0.0013
  173MOL   C13127995   0.615   6.510   6.718 -0.4642 -0.0535 -1.2662
  173MOL   N13227996   0.590   6.401   6.627 -0.1546  0.4485 -0.0433
  173MOL   H13327997   0.572   6.378   6.893 -1.3328  0.8028 -0.7865
  173MOL   H13427998   0.633   6.541   6.923 -0.0757 -1.0331  1.4119
  173MOL   H13527999   0.702   6.559   6.675  1.9630 -2.4489  0.8043
  173MOL   H13628000   0.666   6.342   6.657 -0.9788 -1.5248 -1.6847
  173MOL   H13728001   0.514   6.345   6.661 -1.4076  0.8383 -2.1053
  173MOL   C13828002   0.494   6.602   6.723 -0.1638  0.1790  0.5758
  173MOL   C13928003   0.531   6.745   6.765  0.9683  0.7377 -0.5828
  173MOL   N14028004   0.599   6.817   6.657  0.2681 -0.4776  0.2270
  173MOL   H14128005   0.447   6.600   6.624  0.2255 -0.8125  0.4023
  173MOL   H14228006   0.415   6.567   6.790 -0.3348 -0.8585 -0.1495
  173MOL   H14328007   0.602   6.742   6.848  0.2395 -2.1255  0.0079
  173MOL   H14428008   0.642   6.747   6.598 -0.4398  0.3682 -1.3220
  173MOL   H14528009   0.675   6.873   6.693 -0.0079 -0.1821  0.3413
  173MOL   C14628010   0.404   6.823   6.820  0.2616 -0.0259 -1.1615
  173MOL   C14728011   0.371   6.791   6.970 -0.1716  0.2998 -0.1997
  173MOL   N14828012   0.469   6.857   7.055  0.0921 -0.0630  0.7441
  173MOL   H14928013   0.429   6.928   6.809  1.1616 -0.0864  0.1503
  173MOL   H15028014   0.321   6.808   6.750 -1.7631  0.9459  0.9786
  173MOL   H15128015   0.384   6.685   6.988  0.7607  0.7357  1.8544
  173MOL   H15228016   0.439   6.945   7.095 -0.8817 -0.0940  0.1128
  173MOL   H15328017   0.472   6.791   7.131  2.2943 -1.3788 -0.4491
  173MOL   C15428018   0.234   6.834   7.009 -0.0850  0.4983  0.0665
  173MOL   C15528019   0.132   6.731   6.966  0.4406 -0.0389  0.7394
  173MOL   N15628020   7.275   6.787   6.979 -0.1757 -0.2733 -0.4328
  173MOL   H15728021   0.215   6.845   7.116 -2.0934  0.3932 -0.2698
  173MOL   H15828022   0.223   6.930   6.958  1.4506  0.5592 -0.1732
  173MOL   H15928023   0.137   6.641   7.026 -0.3378 -0.6349 -0.0705
  173MOL   H16028024   0.013   6.821   7.073 -2.4832  2.9619 -1.2124
  173MOL   H16128025   7.220   6.704   7.000  0.6838 -0.0895  2.8690
  173MOL   H16228026   0.148   6.696   6.864  0.7485  2.4825 -0.1338
  174MOL     C128027   3.940   2.871   0.483  0.5869  0.4035  0.6350
  174MOL     C228028   3.934   2.727   0.438 -0.2956 -0.1988 -0.2032
  174MOL     N328029   3.964   2.646   0.558 -0.3777  0.1553 -0.3709
  174MOL     H428030   3.854   2.892   0.548  1.4761  1.8928  1.3675
  174MOL     H528031   3.918   2.941   0.403 -2.9663  0.5117  1.5770
  174MOL     H628032   4.019   2.721   0.370 -0.2907 -0.0202 -0.2122
  174MOL     H728033   4.046   2.683   0.604 -1.7447  0.5441  1.8436
  174MOL     H828034   3.996   2.557   0.523  2.1146  0.5976  0.6760
  174MOL     H928035   4.028   2.890   0.544  1.3506 -1.2394  0.0685
  174MOL    C1028036   3.797   2.682   0.376  0.3301 -0.7085 -1.0707
  174MOL    C1128037   3.731   2.788   0.279 -0.3062  0.0180 -0.4917
  174MOL    N1228038   3.821   2.802   0.167  0.1454  0.2243  0.4781
  174MOL    H1328039   3.794   2.583   0.329  0.6153 -0.4224 -1.6983
  174MOL    H1428040   3.729   2.668   0.460  1.2066  1.1213 -0.0394
  174MOL    H1528041   3.710   2.884   0.326  0.3862  0.1356 -0.4149
  174MOL    H1628042   3.916   2.805   0.200 -0.2629 -0.1227  1.7115
  174MOL    H1728043   3.808   2.890   0.120  0.9878  0.3329  0.4501
  174MOL    C1828044   3.597   2.744   0.216 -0.2952  0.1641 -0.0088
  174MOL    C1928045   3.491   2.683   0.312  0.2917 -0.6246  0.0794
  174MOL    N2028046   3.430   2.796   0.373 -0.3080  0.1052 -0.6154
  174MOL    H2128047   3.555   2.823   0.155 -1.6110  0.3712  1.1390
  174MOL    H2228048   3.619   2.673   0.136 -0.1864  0.2639 -0.0657
  174MOL    H2328049   3.539   2.622   0.389 -0.0830  0.5538  1.2731
  174MOL    H2428050   3.362   2.777   0.446  0.2666  1.7074  0.3680
  174MOL    H2528051   3.494   2.865   0.408  0.8495 -1.8044  1.1923
  174MOL    C2628052   3.390   2.585   0.252  0.1682 -0.6237  0.7234
  174MOL    C2728053   3.446   2.446   0.212  0.5232 -0.0073 -0.0784
  174MOL    N2828054   3.490   2.373   0.330 -0.4896 -0.2226  0.4714
  174MOL    H2928055   3.313   2.574   0.329 -0.3100 -0.0179  0.3385
  174MOL    H3028056   3.347   2.628   0.162  2.3762  1.6190  0.6821
  174MOL    H3128057   3.527   2.470   0.143  0.3103  1.3534  0.1253
  174MOL    H3228058   3.587   2.362   0.305 -0.7378  0.7623 -0.9328
  174MOL    H3328059   3.459   2.276   0.330 -1.7734  0.1685  1.2087
  174MOL    C3428060   3.341   2.355   0.150 -0.1843  0.0933  0.2639
  174MOL    C3528061   3.333   2.369   7.272  0.2145 -0.1876  0.9226
  174MOL    N3628062   3.454   2.332   7.207  0.2957  0.1791  0.6060
  174MOL    H3728063   3.370   2.251   0.166 -1.9491 -0.5802 -0.8335
  174MOL    H3828064   3.245   2.361   0.200  0.2875 -1.4219  1.3760
  174MOL    H3928065   3.309   2.472   7.243 -2.9898 -1.0410  0.3118
  174MOL    H4028066   3.423   2.329   7.111  0.1163 -1.7282  0.7127
  174MOL    H4128067   3.481   2.237   7.226  0.4426 -0.6858 -3.4826
  174MOL    C4228068   3.232   2.280   7.197  0.1990 -0.3305  0.0671
  174MOL    C4328069   3.089   2.289   7.251 -0.1844  0.7214 -0.1505
  174MOL    N4428070   3.045   2.423   7.226 -0.1516 -0.2649  0.0208
  174MOL    H4528071   3.232   2.301   7.090 -0.3370  0.1532  0.1630
  174MOL    H4628072   3.264   2.176   7.207  0.4212 -0.2850 -0.1661
  174MOL    H4728073   3.091   2.265   0.082  2.6216 -1.4608 -0.6648
  174MOL    H4828074   2.946   2.409   7.244 -0.0318 -1.1866 -0.0099
  174MOL    H4928075   3.077   2.492   0.016  0.7141  0.5802 -1.2771
  174MOL    C5028076   2.986   2.210   7.165  0.0009  0.1286 -0.3061
  174MOL    C5128077   3.014   2.060   7.160 -0.4544  0.0692  0.5461
  174MOL    N5228078   3.010   1.997   0.015  0.0922 -0.3102 -0.4926
  174MOL    H5328079   2.889   2.229   7.211 -1.3201 -1.7479 -2.2031
  174MOL    H5428080   2.990   2.251   7.064 -0.2259  0.8640 -0.0143
  174MOL    H5528081   3.111   2.051   7.113 -2.2536 -2.1353 -2.9702
  174MOL    H5628082   3.064   2.035   0.092  0.1490  1.6184 -1.4472
  174MOL    H5728083   2.918   2.021   0.050  0.2364  0.1180 -0.3985
  174MOL    C5828084   2.927   1.970   7.073 -0.2791 -0.5517  0.3245
  174MOL    C5928085   2.905   1.992   6.917  0.0152 -0.4754 -1.0780
  174MOL    N6028086   2.785   2.072   6.893 -0.4758 -0.0154 -0.1643
  174MOL    H6128087   2.979   1.875   7.089  0.2443  0.1893  3.3220
  174MOL    H6228088   2.828   1.970   7.117 -0.1432 -2.1067  0.6539
  174MOL    H6328089   2.890   1.896   6.869 -2.2429 -0.4113 -0.5548
  174MOL    H6428090   2.729   2.087   6.976 -0.0295  0.0567  0.1256
  174MOL    H6528091   2.728   2.000   6.852  0.3890  0.8092 -2.9508
  174MOL    C6628092   3.022   2.060   6.844 -1.2295  0.1173  0.2386
  174MOL    C6728093   3.081   1.973   6.729 -0.3926 -0.4438 -0.4583
  174MOL    N6828094   3.157   2.067   6.643  0.8003  0.0368 -0.3765
  174MOL    H6928095   2.986   2.151   6.797 -0.4505  0.0748 -0.4554
  174MOL    H7028096   3.102   2.096   6.909 -0.9351  1.2786 -0.7643
  174MOL    H7128097   2.996   1.929   6.678 -0.6570 -0.7977  0.2795
  174MOL    H7228098   3.226   2.115   6.700  0.0703  1.0236 -0.3195
  174MOL    H7328099   3.227   2.011   6.596  2.1209  1.8653 -0.6791
  174MOL    C7428100   3.194   1.879   6.783  1.1163 -0.7922 -0.1549
  174MOL    C7528101   3.199   1.749   6.704  0.4200  0.6962 -0.3332
  174MOL    N7628102   3.234   1.780   6.563 -0.4819 -0.7756 -0.1557
  174MOL    H7728103   3.289   1.929   6.766 -0.0671  0.9594 -1.8434
  174MOL    H7828104   3.177   1.861   6.889  1.3691  4.5203  0.9250
  174MOL    H7928105   3.098   1.709   6.712  0.5464  0.7483  1.6356
  174MOL    H8028106   3.167   1.847   6.528  1.5216  0.7949 -1.0968
  174MOL    H8128107   3.221   1.700   6.502  0.6118  0.3605 -1.9269
  174MOL    C8228108   3.296   1.646   6.753 -0.8055  0.1964 -0.0826
  174MOL    C8328109   3.237   1.584   6.888  0.1767  0.3372  0.1137
  174MOL    N8428110   3.129   1.490   6.860 -0.2809 -0.2477  0.5621
  174MOL    H8528111   3.313   1.572   6.675  2.4566  1.8607 -1.0622
  174MOL    H8628112   3.394   1.689   6.777 -0.8483 -0.2358  0.8840
  174MOL    H8728113   3.196   1.666   6.947 -1.2286 -2.5284  3.2585
  174MOL    H8828114   3.055   1.524   6.800 -0.3985  1.9768  1.9139
  174MOL    H8928115   3.173   1.417   6.807 -0.2076  1.0612 -1.2010
  174MOL    C9028116   3.345   1.518   6.966  0.2297  0.0154 -0.0683
  174MOL    C9128117   3.317   1.517   7.117 -0.0588  0.3455 -0.7021
  174MOL    N9228118   3.373   1.390   7.174  0.3258  0.1539 -0.0087
  174MOL    H9328119   3.368   1.419   6.925  0.4324 -0.3280  0.8515
  174MOL    H9428120   3.433   1.580   6.951  1.0562 -1.1812 -0.2852
  174MOL    H9528121   3.209   1.510   7.130  0.1909  0.1135  1.4201
  174MOL    H9628122   3.325   1.317   7.125  2.4229 -2.0988  1.1718
  174MOL    H9728123   3.357   1.391   7.274 -1.0710  1.6317 -0.2268
  174MOL    C9828124   3.389   1.636   7.198  0.3041  0.3053 -0.9979
  174MOL    C9928125   3.327   1.778   7.191 -0.2864  0.5269  0.0151
  174MOL   N10028126   3.213   1.769   0.002  0.3661  0.1068  0.7952
  174MOL   H10128127   3.390   1.612   0.029 -0.7731  2.5184 -0.4628
  174MOL   H10228128   3.495   1.651   7.179  0.1990  0.6954 -1.2844
  174MOL   H10328129   3.305   1.793   7.085  1.2434 -2.4229 -0.7601
  174MOL   H10428130   3.155   1.851   0.009 -0.1084 -0.2319  0.8834
  174MOL   H10528131   3.157   1.700   7.228  1.1975  0.9410 -1.3396
  174MOL   C10628132   3.427   1.885   7.229 -0.2475 -0.3182 -0.1353
  174MOL   C10728133   3.502   1.957   7.113 -0.2719  0.1221 -0.4507
  174MOL   N10828134   3.589   2.060   7.169 -0.1621 -0.1173  0.8316
  174MOL   H10928135   3.378   1.963   0.013  1.5252  0.5838  0.1809
  174MOL   H11028136   3.495   1.850   0.031 -1.1091  2.2739  1.8686
  174MOL   H11128137   3.424   1.999   7.051  0.1316  1.1369 -0.2936
  174MOL   H11228138   3.652   2.077   7.092 -0.4571  0.6813  0.7606
  174MOL   H11328139   3.649   2.022   7.241  0.5210  1.7361  1.2594
  174MOL   C11428140   3.584   1.871   7.014  0.0029 -0.4133 -0.2701
  174MOL   C11528141   3.653   1.931   6.890  0.1852  0.6919 -0.2870
  174MOL   N11628142   3.571   2.016   6.808  0.4080  0.0237  0.2094
  174MOL   H11728143   3.645   1.802   7.072 -0.8597  0.5893  1.8655
  174MOL   H11828144   3.508   1.811   6.964 -0.8812 -0.4630  1.1125
  174MOL   H11928145   3.667   1.845   6.825 -1.0971  0.2862 -0.0261
  174MOL   H12028146   3.628   2.030   6.726  1.2283  1.3478  0.9758
  174MOL   H12128147   3.498   1.956   6.772  0.8688 -0.6748  0.4335
  174MOL   C12228148   3.796   1.987   6.908 -0.1839 -0.2850  0.3257
  174MOL   C12328149   3.899   1.881   6.961  0.0980 -0.4677  0.4270
  174MOL   N12428150   3.909   1.768   6.870 -0.4778  0.4442 -0.6659
  174MOL   H12528151   3.842   2.040   6.825 -2.3798 -1.8458 -1.9757
  174MOL   H12628152   3.796   2.066   6.983  2.8567 -0.1754  0.2865
  174MOL   H12728153   3.855   1.852   7.057 -0.6999  1.5717  0.6893
  174MOL   H12828154   4.004   1.746   6.844 -0.6403  1.5538 -2.2287
  174MOL   H12928155   3.880   1.677   6.904 -1.5838  1.6800  1.8317
  174MOL   C13028156   4.044   1.919   6.993 -0.1875  0.5060  0.2619
  174MOL   C13128157   4.073   2.040   7.078 -1.1162 -0.3892 -0.1948
  174MOL   N13228158   4.209   2.014   7.134 -0.6772 -0.7595  0.6410
  174MOL   H13328159   4.078   1.830   7.046  0.5549  1.5406  1.5584
  174MOL   H13428160   4.100   1.921   6.900  2.3856  1.2476  1.7785
  174MOL   H13528161   4.001   2.036   7.159 -0.2428 -3.1762  0.4965
  174MOL   H13628162   4.261   2.098   7.115 -2.1924  0.1098  0.2749
  174MOL   H13728163   4.262   1.951   7.075  1.2017  0.0397  1.4436
  174MOL   C13828164   4.073   2.176   7.004  1.0716  0.4131  0.8806
  174MOL   C13928165   4.092   2.309   7.089 -0.3352  0.0465  0.2508
  174MOL   N14028166   4.083   2.419   6.991 -0.4302  0.2624  0.6403
  174MOL   H14128167   4.126   2.172   6.910 -0.1270 -0.4905  0.2207
  174MOL   H14228168   3.968   2.182   6.974  0.4562 -0.0598  2.8552
  174MOL   H14328169   4.193   2.314   7.129  0.5671  2.1307 -2.1187
  174MOL   H14428170   4.075   2.509   7.034  0.1532  0.5655  0.1292
  174MOL   H14528171   3.992   2.413   6.949  0.6266  1.6091 -1.9232
  174MOL   C14628172   3.984   2.340   7.198 -0.3737  0.1595  0.3804
  174MOL   C14728173   4.020   2.438   0.033 -0.6011 -1.0141  0.0663
  174MOL   N14828174   3.899   2.498   0.090  0.2224 -0.2188  0.1001
  174MOL   H14928175   3.890   2.360   7.147 -0.4691 -0.6365  0.2326
  174MOL   H15028176   3.950   2.255   7.257 -0.7379  1.1998  1.6799
  174MOL   H15128177   4.087   2.516   7.272  1.9287 -2.0035  2.4373
  174MOL   H15228178   3.908   2.582   0.145 -0.8437 -0.4935  0.7147
  174MOL   H15328179   3.837   2.524   0.015  2.6147 -1.5899 -2.4368
  174MOL   C15428180   4.077   2.369   0.162  0.1088 -0.2823 -0.5136
  174MOL   C15528181   4.215   2.303   0.141  0.4587 -0.1458 -0.2204
  174MOL   N15628182   4.264   2.244   0.266 -0.1868  0.1831  0.3609
  174MOL   H15728183   4.088   2.446   0.238  1.9029 -1.5838  0.5998
  174MOL   H15828184   4.000   2.302   0.201 -1.1174  1.5911  0.3493
  174MOL   H15928185   4.286   2.362   0.084  0.8005 -0.1679  0.1813
  174MOL   H16028186   4.357   2.221   0.234 -0.8061  1.3951 -2.4046
  174MOL   H16128187   4.217   2.156   0.282  1.2474 -0.9774 -1.5344
  174MOL   H16228188   4.203   2.221   0.070  0.8733  0.6000 -1.1522
  175MOL     C128189   5.246   1.767   4.754 -0.0792 -0.6696 -0.6528
  175MOL     C228190   5.116   1.801   4.825 -0.3406  0.2509  0.1300
  175MOL     N328191   5.103   1.944   4.843  0.6649  0.0914  0.0631
  175MOL     H428192   5.270   1.846   4.683 -1.5972  0.2732 -0.1447
  175MOL     H528193   5.236   1.669   4.707 -2.1086 -0.7976 -0.0165
  175MOL     H628194   5.122   1.744   4.918  0.6002  0.0817 -0.0249
  175MOL     H728195   5.112   1.997   4.758  2.0504 -0.4222 -0.1332
  175MOL     H828196   5.165   1.985   4.912 -0.1971 -0.1787  1.0029
  175MOL     H928197   5.330   1.766   4.822  1.3131 -2.1617 -2.3277
  175MOL    C1028198   4.992   1.745   4.753 -0.4323  0.3777 -0.0952
  175MOL    C1128199   4.973   1.593   4.725  0.8594  0.7943  1.1603
  175MOL    N1228200   4.976   1.516   4.850  0.2687 -0.4685  1.0296
  175MOL    H1328201   4.907   1.779   4.812 -0.9770  0.6674 -1.0447
  175MOL    H1428202   4.983   1.797   4.657 -1.6193 -1.3580 -0.9490
  175MOL    H1528203   5.055   1.556   4.664 -0.2474  0.1618  0.0196
  175MOL    H1628204   4.888   1.545   4.891 -1.3940 -2.2363 -1.1312
  175MOL    H1728205   4.963   1.421   4.821  1.1169 -0.2980  0.0474
  175MOL    C1828206   4.834   1.566   4.651 -0.7840  0.3249  0.1854
  175MOL    C1928207   4.837   1.589   4.496  0.2246  0.2548 -0.9481
  175MOL    N2028208   4.833   1.730   4.457 -0.3624  0.1295  1.0055
  175MOL    H2128209   4.799   1.464   4.660  0.2432  0.1579  2.7990
  175MOL    H2228210   4.751   1.634   4.675  0.6646  4.2233 -4.9248
  175MOL    H2328211   4.736   1.560   4.469 -0.2289  0.4717  0.5122
  175MOL    H2428212   4.785   1.747   4.369 -0.5517 -0.0993  1.0640
  175MOL    H2528213   4.771   1.773   4.524 -0.0641 -1.3928  2.3083
  175MOL    C2628214   4.942   1.509   4.420 -0.2704  0.0147  0.2384
  175MOL    C2728215   4.877   1.425   4.305 -0.0850  0.3360  0.2096
  175MOL    N2828216   4.985   1.397   4.214  0.5135 -0.4688 -0.4463
  175MOL    H2928217   5.018   1.578   4.383 -0.2655  0.1211  0.4472
  175MOL    H3028218   5.000   1.446   4.487  1.6533  1.8318  0.3295
  175MOL    H3128219   4.810   1.484   4.242 -0.6429 -2.3415 -1.7608
  175MOL    H3228220   4.950   1.359   4.127  0.7280  0.6415 -1.0169
  175MOL    H3328221   5.012   1.492   4.192  1.3835 -0.2740  1.3168
  175MOL    C3428222   4.799   1.300   4.352  0.1539  0.3925 -0.0647
  175MOL    C3528223   4.697   1.237   4.246 -0.9242 -0.2965 -0.3676
  175MOL    N3628224   4.660   1.108   4.295  0.1474  0.6089  0.3133
  175MOL    H3728225   4.865   1.227   4.398 -0.4999  0.5431  1.1548
  175MOL    H3828226   4.743   1.324   4.443  0.1793  0.8121 -0.1558
  175MOL    H3928227   4.761   1.231   4.158  0.7952  1.2446  0.7525
  175MOL    H4028228   4.600   1.067   4.224  1.9918  1.8954 -2.0501
  175MOL    H4128229   4.597   1.121   4.373  0.6266  1.1339  0.6123
  175MOL    C4228230   4.571   1.317   4.231  0.2011 -0.3534  0.8398
  175MOL    C4328231   4.513   1.324   4.092  0.2643  0.3229 -0.4105
  175MOL    N4428232   4.384   1.371   4.107  0.2939 -0.5360 -0.3494
  175MOL    H4528233   4.495   1.276   4.298 -0.3365  0.8301  0.9550
  175MOL    H4628234   4.593   1.417   4.267 -1.0040 -0.6861  2.5427
  175MOL    H4728235   4.523   1.229   4.040  0.8333 -0.9737  1.9954
  175MOL    H4828236   4.344   1.326   4.188 -0.0222  0.0368 -0.1841
  175MOL    H4928237   4.329   1.349   4.025 -2.3595  0.0278  1.2067
  175MOL    C5028238   4.594   1.418   4.000 -0.2471  0.1091 -0.1812
  175MOL    C5128239   4.616   1.377   3.852  0.3751  0.2993  0.0119
  175MOL    N5228240   4.489   1.397   3.783 -0.1150  0.1946  0.1790
  175MOL    H5328241   4.552   1.519   4.002 -1.3247 -0.3275 -0.4872
  175MOL    H5428242   4.697   1.435   4.030 -0.6886  2.5104  0.0988
  175MOL    H5528243   4.632   1.270   3.838  0.4622  0.1453  1.2491
  175MOL    H5628244   4.409   1.347   3.820 -0.4149 -0.8261 -1.8182
  175MOL    H5728245   4.489   1.364   3.688  1.9874  1.5068 -0.3081
  175MOL    C5828246   4.739   1.436   3.790  0.2234 -0.5619  0.3890
  175MOL    C5928247   4.767   1.406   3.638  0.1175  0.5208  0.3533
  175MOL    N6028248   4.899   1.467   3.612 -0.2800 -0.2880 -0.3318
  175MOL    H6128249   4.731   1.545   3.794  0.4614 -0.5851  2.0194
  175MOL    H6228250   4.830   1.416   3.847  1.8902 -2.0668 -2.6699
  175MOL    H6328251   4.707   1.458   3.564  1.9088 -0.7152 -2.0321
  175MOL    H6428252   4.915   1.481   3.513 -3.3727  1.4554 -0.6589
  175MOL    H6528253   4.957   1.389   3.639 -1.7666 -1.9982 -1.9773
  175MOL    C6628254   4.754   1.254   3.604  0.0963  0.4954 -0.2891
  175MOL    C6728255   4.840   1.154   3.692  0.8769 -0.3461 -0.6100
  175MOL    N6828256   4.760   1.031   3.725  0.3362  0.0808 -0.2986
  175MOL    H6928257   4.651   1.217   3.601  0.5449 -0.7087 -1.4157
  175MOL    H7028258   4.775   1.235   3.499  0.0704 -0.8997 -0.0441
  175MOL    H7128259   4.859   1.184   3.795 -0.1056 -0.0371 -0.5221
  175MOL    H7228260   4.748   0.968   3.646  0.2881 -2.9967  2.0840
  175MOL    H7328261   4.802   0.976   3.798 -1.8672  0.1689  1.0559
  175MOL    C7428262   4.972   1.105   3.615  0.0659 -0.7001 -0.5493
  175MOL    C7528263   5.089   1.059   3.701 -0.3283  0.6079 -0.5679
  175MOL    N7628264   5.176   0.989   3.605  0.2729 -0.5241 -0.5311
  175MOL    H7728265   4.946   1.022   3.550 -1.1169  0.2578 -1.3253
  175MOL    H7828266   5.012   1.181   3.548  1.2013 -1.4112 -0.6928
  175MOL    H7928267   5.062   0.982   3.774  0.8796 -0.4405 -1.2193
  175MOL    H8028268   5.130   0.901   3.586 -2.2488  0.7089 -0.4355
  175MOL    H8128269   5.258   0.966   3.658  1.0751  1.9989 -0.5881
  175MOL    C8228270   5.174   1.178   3.751 -0.5179 -0.3034  0.3938
  175MOL    C8328271   5.126   1.253   3.874 -0.5257  0.0794 -0.0303
  175MOL    N8428272   5.126   1.157   3.988  0.2885 -0.6498  0.2639
  175MOL    H8528273   5.270   1.135   3.779  0.4105  1.2786 -0.2536
  175MOL    H8628274   5.197   1.249   3.670 -0.3890 -1.1969 -0.3641
  175MOL    H8728275   5.021   1.281   3.865 -0.7521 -1.0335 -0.9427
  175MOL    H8828276   5.100   1.218   4.065  0.0556  1.5945 -1.5292
  175MOL    H8928277   5.064   1.078   3.983 -0.9260  0.3157 -0.1378
  175MOL    C9028278   5.210   1.371   3.907 -0.2781 -0.3908  0.0581
  175MOL    C9128279   5.189   1.487   3.803 -0.2939 -0.5695  0.6126
  175MOL    N9228280   5.069   1.559   3.843 -0.2336  0.4346 -0.6467
  175MOL    H9328281   5.190   1.404   4.009 -1.0021 -1.7652  0.3789
  175MOL    H9428282   5.312   1.334   3.893  0.2503  0.2141  2.1771
  175MOL    H9528283   5.181   1.457   3.698 -0.5404 -2.3934  1.1392
  175MOL    H9628284   4.988   1.524   3.793 -1.1584  0.8909  0.4894
  175MOL    H9728285   5.086   1.656   3.824  1.3848  0.1068 -0.9473
  175MOL    C9828286   5.308   1.588   3.814 -0.2251 -0.0175  0.3875
  175MOL    C9928287   5.383   1.619   3.681 -0.1892 -1.2763 -0.3870
  175MOL   N10028288   5.448   1.499   3.635 -0.1850  0.4389 -0.2959
  175MOL   H10128289   5.285   1.685   3.857 -0.7822  0.0569 -0.0609
  175MOL   H10228290   5.381   1.545   3.883 -0.6751 -2.7029 -0.7267
  175MOL   H10328291   5.460   1.695   3.693 -2.7711  1.1268  1.3999
  175MOL   H10428292   5.479   1.526   3.542  1.3143 -0.1710  0.0174
  175MOL   H10528293   5.377   1.431   3.610  1.1219 -1.6957  1.6158
  175MOL   C10628294   5.290   1.664   3.574 -0.5175  0.5200  0.3915
  175MOL   C10728295   5.202   1.796   3.583 -0.4055 -0.2852  0.8597
  175MOL   N10828296   5.083   1.778   3.655  0.1949  0.6711  0.0158
  175MOL   H10928297   5.348   1.678   3.483 -0.3094 -3.2878 -0.1580
  175MOL   H11028298   5.227   1.581   3.542 -0.6429  0.3913  0.9566
  175MOL   H11128299   5.162   1.815   3.484 -0.9753 -0.9453  0.9668
  175MOL   H11228300   4.996   1.826   3.634 -0.9770 -1.7275 -0.6816
  175MOL   H11328301   5.054   1.683   3.639  4.4055 -0.7211  0.2638
  175MOL   C11428302   5.281   1.915   3.636 -0.3044 -0.0352  0.2760
  175MOL   C11528303   5.370   1.974   3.527  0.3149 -0.2996 -0.0587
  175MOL   N11628304   5.369   2.120   3.544  0.6813  0.1073 -0.2379
  175MOL   H11728305   5.212   1.984   3.685 -2.2039 -1.4600 -0.3723
  175MOL   H11828306   5.326   1.883   3.731 -1.5429 -1.9765  0.2256
  175MOL   H11928307   5.333   1.947   3.428  1.2600 -0.6120 -0.3409
  175MOL   H12028308   5.397   2.158   3.455  0.6255  1.9150  0.4977
  175MOL   H12128309   5.277   2.159   3.563  1.9616  3.1655 -0.1434
  175MOL   C12228310   5.519   1.938   3.511  0.4620 -0.2172 -0.1020
  175MOL   C12328311   5.574   1.958   3.363  0.3373 -0.4241 -0.0819
  175MOL   N12428312   5.718   1.960   3.361 -0.1765 -0.0153  0.0125
  175MOL   H12528313   5.579   1.999   3.579  0.5603 -1.2284  0.7449
  175MOL   H12628314   5.542   1.835   3.540  0.5910 -0.5776 -1.4526
  175MOL   H12728315   5.548   2.062   3.345  0.5062 -0.6689 -1.8091
  175MOL   H12828316   5.756   1.980   3.270 -0.4498 -1.9738 -0.5392
  175MOL   H12928317   5.760   2.039   3.409  0.4011 -0.4977  0.3112
  175MOL   C13028318   5.522   1.862   3.257 -0.1229  0.3029 -0.4010
  175MOL   C13128319   5.541   1.921   3.114  0.7276  0.0830 -0.5243
  175MOL   N13228320   5.506   1.804   3.037  0.1923  0.1276  0.1337
  175MOL   H13328321   5.571   1.765   3.270  1.5546  1.3293  1.3023
  175MOL   H13428322   5.417   1.842   3.280  0.0019  2.2793  2.1005
  175MOL   H13528323   5.648   1.936   3.100  0.7536  0.9837  0.5378
  175MOL   H13628324   5.410   1.776   3.048  0.1921 -0.1368 -0.5292
  175MOL   H13728325   5.506   1.822   2.938  0.0986  1.1011  0.3034
  175MOL   C13828326   5.442   2.033   3.065 -0.0845 -0.1402 -0.3569
  175MOL   C13928327   5.507   2.174   3.082 -0.0649  0.2768  0.1807
  175MOL   N14028328   5.564   2.219   2.957  0.0719 -0.6568  0.3775
  175MOL   H14128329   5.421   2.024   2.958 -0.6269 -1.0063 -0.1800
  175MOL   H14228330   5.341   2.020   3.105 -0.9165  0.0006 -2.3487
  175MOL   H14328331   5.592   2.181   3.150  0.9409  0.1099 -1.0382
  175MOL   H14428332   5.639   2.156   2.932  0.5039 -0.1966  0.5088
  175MOL   H14528333   5.498   2.210   2.881 -2.6039  0.2613  2.5529
  175MOL   C14628334   5.406   2.282   3.124 -0.3763  0.5459  0.5034
  175MOL   C14728335   5.355   2.272   3.268  0.3639  0.2539 -0.5614
  175MOL   N14828336   5.444   2.357   3.348 -0.1314 -0.1862  0.3780
  175MOL   H14928337   5.432   2.384   3.096  1.4020 -0.0549 -0.1729
  175MOL   H15028338   5.322   2.245   3.066 -1.4656  0.8598  1.8423
  175MOL   H15128339   5.356   2.168   3.301  0.9210  0.1754 -0.8169
  175MOL   H15228340   5.538   2.326   3.331 -0.3205 -0.4649 -0.1758
  175MOL   H15328341   5.441   2.454   3.320  2.7946 -0.1161  0.2062
  175MOL   C15428342   5.217   2.335   3.297  0.0664 -0.1636 -0.0848
  175MOL   C15528343   5.095   2.265   3.225  0.1681  0.2932 -0.4678
  175MOL   N15628344   4.994   2.366   3.188  0.7781 -0.0623 -0.0665
  175MOL   H15728345   5.187   2.347   3.401 -1.2423 -1.1945 -0.3343
  175MOL   H15828346   5.212   2.438   3.262  1.6699 -0.1082 -0.2195
  175MOL   H15928347   5.051   2.186   3.286 -2.1440 -0.0953 -2.5378
  175MOL   H16028348   4.928   2.373   3.264 -1.5882  0.8849 -2.1395
  175MOL   H16128349   4.929   2.347   3.114 -0.9042 -1.7907  1.8030
  175MOL   H16228350   5.120   2.213   3.133 -1.0916 -0.3454 -0.4666
  176MOL     C128351   3.585   4.547   4.976 -0.5119 -0.6695  0.2459
  176MOL     C228352   3.693   4.429   4.981  0.5963  0.1777  0.6999
  176MOL     N328353   3.702   4.374   4.846  0.2422  0.3318  0.6633
  176MOL     H428354   3.600   4.609   4.887 -0.6827 -2.4042 -1.0101
  176MOL     H528355   3.603   4.601   5.069 -2.3109 -0.9685  0.7853
  176MOL     H628356   3.665   4.351   5.053 -0.6338  2.3845  2.6696
  176MOL     H728357   3.764   4.297   4.825 -2.2007 -1.3680 -0.4762
  176MOL     H828358   3.617   4.334   4.810  1.6879 -1.8246 -0.4119
  176MOL     H928359   3.486   4.503   4.965  0.1497 -1.5467 -2.5040
  176MOL    C1028360   3.825   4.479   5.024  0.0634  0.2750  0.2688
  176MOL    C1128361   3.848   4.524   5.174 -0.9280  0.5526  0.6183
  176MOL    N1228362   3.837   4.406   5.269 -0.0747  0.6888  0.0836
  176MOL    H1328363   3.906   4.407   5.016  0.6615  0.9238  0.4036
  176MOL    H1428364   3.838   4.566   4.960 -0.2114  0.4831  0.4920
  176MOL    H1528365   3.770   4.597   5.191 -0.6739  1.8212 -3.3068
  176MOL    H1628366   3.904   4.339   5.233 -0.0616  0.6215  0.2334
  176MOL    H1728367   3.865   4.433   5.362 -1.7271 -1.3186  1.2103
  176MOL    C1828368   3.983   4.590   5.198 -0.1546  0.0152  0.0459
  176MOL    C1928369   3.977   4.681   5.331 -0.6203 -0.0099  0.0960
  176MOL    N2028370   3.947   4.599   5.449  0.2858  0.9400  0.7182
  176MOL    H2128371   4.071   4.527   5.203  0.6666  1.1733  0.2351
  176MOL    H2228372   4.009   4.654   5.113 -1.5830 -0.4100 -0.7416
  176MOL    H2328373   3.901   4.759   5.322  0.9198  1.4300 -0.6593
  176MOL    H2428374   3.943   4.668   5.522  0.1913  0.9257  0.7269
  176MOL    H2528375   3.848   4.580   5.444  0.4961 -0.2841  1.1019
  176MOL    C2628376   4.104   4.759   5.360 -0.1036  0.2171  0.0308
  176MOL    C2728377   4.087   4.877   5.452 -0.1408  0.2924 -0.5825
  176MOL    N2828378   4.216   4.891   5.525  0.0890 -0.0179  0.5050
  176MOL    H2928379   4.185   4.693   5.392 -0.6442  0.0421  1.0332
  176MOL    H3028380   4.145   4.801   5.268 -0.8290  0.0104 -0.3900
  176MOL    H3128381   4.014   4.852   5.529  0.4112 -1.3425 -0.5714
  176MOL    H3228382   4.217   4.942   5.612  2.7255 -0.2403  0.6265
  176MOL    H3328383   4.248   4.801   5.558 -1.3090 -0.3473  0.9953
  176MOL    C3428384   4.041   5.004   5.373 -0.2533  0.6664 -0.4945
  176MOL    C3528385   4.018   5.129   5.458 -0.4749 -0.2859  0.8775
  176MOL    N3628386   4.028   5.243   5.368 -0.4755  0.2094 -0.4957
  176MOL    H3728387   4.115   5.021   5.294  1.1870 -1.7142  0.2924
  176MOL    H3828388   3.954   4.978   5.314 -0.3094 -0.6434  0.1612
  176MOL    H3928389   4.105   5.144   5.523 -0.4042 -0.7296  0.8863
  176MOL    H4028390   4.122   5.235   5.330  0.4558 -1.6146  1.9986
  176MOL    H4128391   4.030   5.331   5.417 -0.6270 -0.4637  0.7389
  176MOL    C4228392   3.886   5.127   5.528 -0.5315 -0.0552  0.6866
  176MOL    C4328393   3.839   5.257   5.588 -0.4175  0.5282  0.8383
  176MOL    N4428394   3.702   5.244   5.596  0.7645 -0.6173 -0.4546
  176MOL    H4528395   3.810   5.090   5.459  2.8587  0.3749 -3.5134
  176MOL    H4628396   3.888   5.048   5.604  1.0208 -0.6864  0.0179
  176MOL    H4728397   3.856   5.339   5.518  1.1203  0.1140  0.7258
  176MOL    H4828398   3.662   5.303   5.524  0.6823  1.1023  0.9706
  176MOL    H4928399   3.673   5.152   5.566 -2.7805  0.7215 -1.3158
  176MOL    C5028400   3.908   5.300   5.722  0.0915  0.4295 -0.9436
  176MOL    C5128401   4.050   5.360   5.720  0.1352  0.4507  0.2831
  176MOL    N5228402   4.055   5.506   5.716  0.2727  0.9539 -0.5803
  176MOL    H5328403   3.856   5.363   5.794  2.5590 -0.2658  1.5623
  176MOL    H5428404   3.910   5.202   5.772 -1.3523 -0.1663 -2.0401
  176MOL    H5528405   4.094   5.325   5.627 -3.5942 -0.8612 -1.0810
  176MOL    H5628406   3.986   5.532   5.646  0.2126 -2.4227 -1.8804
  176MOL    H5728407   4.142   5.536   5.674 -0.4902  0.5400 -2.5513
  176MOL    C5828408   4.142   5.305   5.827 -0.3696 -0.1746 -0.5267
  176MOL    C5928409   4.169   5.155   5.808 -0.3690  0.2793 -0.1378
  176MOL    N6028410   4.294   5.148   5.748  0.4550 -0.5689 -0.5355
  176MOL    H6128411   4.231   5.367   5.829 -1.8418  2.0352 -1.0655
  176MOL    H6228412   4.093   5.323   5.923  0.6901 -3.0491  0.6046
  176MOL    H6328413   4.092   5.109   5.746  0.1400  0.4991 -0.9388
  176MOL    H6428414   4.322   5.053   5.727  1.8143 -0.1886 -0.4917
  176MOL    H6528415   4.289   5.198   5.661 -0.5331 -0.8491 -0.6407
  176MOL    C6628416   4.188   5.085   5.943 -0.1790 -0.4287 -0.8297
  176MOL    C6728417   4.140   4.940   5.947  0.0323 -0.0205  0.1742
  176MOL    N6828418   4.240   4.860   5.876 -0.5446  0.7333  0.0835
  176MOL    H6928419   4.279   5.114   5.994 -2.4910  2.9138  1.6019
  176MOL    H7028420   4.110   5.135   6.000  1.9488  1.7204  0.2412
  176MOL    H7128421   4.041   4.933   5.902  0.2726  1.3451 -0.5964
  176MOL    H7228422   4.326   4.880   5.926  0.2949 -1.0374 -0.5934
  176MOL    H7328423   4.222   4.763   5.898 -1.2661  0.6752 -0.7749
  176MOL    C7428424   4.140   4.893   6.097  0.1976 -0.2773  0.6802
  176MOL    C7528425   4.095   4.747   6.134  0.0389  0.2797 -0.3954
  176MOL    N7628426   4.172   4.700   6.244 -0.0537  0.2979  0.1537
  176MOL    H7728427   4.242   4.901   6.137  0.9119  2.1622 -1.5225
  176MOL    H7828428   4.078   4.958   6.158 -0.7479 -1.0774  0.5662
  176MOL    H7928429   4.125   4.676   6.056 -1.8576 -0.8713 -0.1118
  176MOL    H8028430   4.149   4.609   6.280  0.4715 -0.6221 -1.7957
  176MOL    H8128431   4.266   4.688   6.209 -0.8095 -2.8693 -0.8817
  176MOL    C8228432   3.942   4.725   6.168 -0.0702 -0.6164  0.2276
  176MOL    C8328433   3.846   4.757   6.051  0.8820  0.4970 -0.2944
  176MOL    N8428434   3.792   4.635   5.984 -0.2793  0.7422 -0.0880
  176MOL    H8528435   3.932   4.622   6.203 -0.8846 -0.5840  0.1066
  176MOL    H8628436   3.908   4.788   6.251  1.2202 -0.5052  0.6800
  176MOL    H8728437   3.909   4.793   5.970  0.4758  1.1764 -0.3053
  176MOL    H8828438   3.711   4.650   5.927  0.0253  0.6563 -0.5436
  176MOL    H8928439   3.861   4.588   5.927 -0.9326 -0.8741  0.4347
  176MOL    C9028440   3.734   4.848   6.082 -0.7890  0.4708 -0.0854
  176MOL    C9128441   3.781   4.995   6.110  1.5348  0.9475 -0.6428
  176MOL    N9228442   3.819   5.062   5.978 -0.1442  0.2272  0.2241
  176MOL    H9328443   3.661   4.849   6.001  1.1818 -1.5783 -1.9595
  176MOL    H9428444   3.684   4.810   6.171 -1.1187  0.6449 -0.1992
  176MOL    H9528445   3.860   5.001   6.185  0.2793  0.3572  0.7607
  176MOL    H9628446   3.738   5.090   5.924  0.9423  0.0684 -1.5276
  176MOL    H9728447   3.864   5.003   5.910 -1.0490 -0.7788  0.4784
  176MOL    C9828448   3.664   5.074   6.183 -0.4859 -0.2475 -0.1908
  176MOL    C9928449   3.647   5.045   6.337  0.5510  0.1628  0.0487
  176MOL   N10028450   3.711   5.164   6.397  0.4880  0.3061  0.7740
  176MOL   H10128451   3.668   5.182   6.170  0.8491  0.0564  2.4213
  176MOL   H10228452   3.579   5.044   6.122  0.4062  1.6348 -2.4340
  176MOL   H10328453   3.693   4.957   6.382 -0.0437  0.4503  1.2462
  176MOL   H10428454   3.807   5.175   6.367 -0.4265  1.1795 -2.0137
  176MOL   H10528455   3.714   5.174   6.498  0.7350 -2.7689  1.1155
  176MOL   C10628456   3.499   5.055   6.372  0.7393 -0.1085 -0.2692
  176MOL   C10728457   3.429   4.928   6.391  0.3725  0.2400 -0.3593
  176MOL   N10828458   3.459   4.865   6.520 -0.2873 -0.0404 -0.5965
  176MOL   H10928459   3.482   5.106   6.466 -2.1246 -0.7934 -0.3676
  176MOL   H11028460   3.444   5.125   6.309 -0.3033 -1.1307 -0.4977
  176MOL   H11128461   3.455   4.848   6.321  2.2058  0.6687 -0.1822
  176MOL   H11228462   3.452   4.944   6.582 -2.7619 -1.2902  0.7859
  176MOL   H11328463   3.550   4.821   6.529  0.8452  1.7682 -2.5938
  176MOL   C11428464   3.277   4.933   6.384  0.5711 -0.1518 -0.6836
  176MOL   C11528465   3.222   4.957   6.242  0.8244 -0.1731 -0.7841
  176MOL   N11628466   3.227   4.835   6.164 -0.1364  0.1765 -0.4847
  176MOL   H11728467   3.218   4.854   6.431 -0.7934  1.0376 -0.3599
  176MOL   H11828468   3.242   5.013   6.450  0.9260  0.1272 -0.8281
  176MOL   H11928469   3.289   5.020   6.184  2.7225 -2.3697 -1.0435
  176MOL   H12028470   3.187   4.865   6.076  1.6485  2.3368 -0.6170
  176MOL   H12128471   3.322   4.802   6.150  0.0326 -0.1802  1.4792
  176MOL   C12228472   3.081   5.023   6.236 -0.1943  0.3554 -0.4892
  176MOL   C12328473   3.082   5.179   6.261 -0.3564 -0.2546 -0.6733
  176MOL   N12428474   3.129   5.238   6.133 -0.9173 -0.1571 -0.0500
  176MOL   H12528475   3.033   4.989   6.144 -0.9291  0.4762 -0.1487
  176MOL   H12628476   3.019   4.978   6.314 -0.8515 -0.8898 -1.6957
  176MOL   H12728477   3.153   5.201   6.341 -1.2135  1.7149 -0.4323
  176MOL   H12828478   3.059   5.258   6.064 -0.2208 -0.3677 -0.8323
  176MOL   H12928479   3.218   5.208   6.095  0.0995  1.7864  0.7517
  176MOL   C13028480   2.939   5.234   6.285 -0.5587  0.1077  0.0313
  176MOL   C13128481   2.908   5.267   6.432  0.3031 -0.2529  0.2125
  176MOL   N13228482   2.836   5.398   6.437 -0.2600  0.1191  0.1529
  176MOL   H13328483   2.925   5.318   6.218 -2.6869  0.4346  0.8500
  176MOL   H13428484   2.868   5.157   6.253  1.4691 -1.9964  0.4479
  176MOL   H13528485   2.999   5.282   6.490  0.1701 -0.6372  0.5216
  176MOL   H13628486   2.903   5.470   6.461  2.6439 -2.1551 -0.8206
  176MOL   H13728487   2.769   5.396   6.513 -0.4830 -2.7950 -0.0846
  176MOL   C13828488   2.839   5.154   6.504 -0.0639 -0.0297 -0.0091
  176MOL   C13928489   2.892   5.134   6.646  0.2512 -0.1993 -0.8502
  176MOL   N14028490   2.859   5.244   6.731  0.0725 -0.3894 -0.5853
  176MOL   H14128491   2.731   5.170   6.505 -0.1249 -0.4851  0.9543
  176MOL   H14228492   2.848   5.065   6.442 -1.6230  0.8522 -1.5496
  176MOL   H14328493   2.996   5.100   6.648  0.5387  0.7089  0.5043
  176MOL   H14428494   2.905   5.228   6.820 -1.3841 -1.1650  0.0526
  176MOL   H14528495   2.892   5.329   6.689  0.8591 -0.2451  0.2949
  176MOL   C14628496   2.832   5.004   6.706 -0.3327  0.2635 -0.5678
  176MOL   C14728497   2.857   4.863   6.642 -0.1283 -0.3071  0.6435
  176MOL   N14828498   2.994   4.840   6.602 -0.4831 -0.3803  0.4000
  176MOL   H14928499   2.865   4.997   6.810 -1.7646  2.0251  0.0376
  176MOL   H15028500   2.725   5.021   6.723 -0.0909 -0.9407  2.3809
  176MOL   H15128501   2.801   4.861   6.548  1.3955  3.8280 -0.4547
  176MOL   H15228502   3.019   4.900   6.525  0.5355 -0.2661  0.8119
  176MOL   H15328503   2.990   4.747   6.563  0.7098 -0.0282 -0.5986
  176MOL   C15428504   2.827   4.743   6.732 -0.8369 -0.0712  0.1777
  176MOL   C15528505   2.673   4.725   6.754 -0.5847  0.3860  0.5857
  176MOL   N15628506   2.637   4.609   6.842  0.1425 -0.2511  0.1653
  176MOL   H15728507   2.863   4.647   6.695 -2.3001  0.1256 -1.8406
  176MOL   H15828508   2.877   4.768   6.826  0.4707 -1.6460 -0.0793
  176MOL   H15928509   2.611   4.705   6.666 -0.1436  0.1934  0.3181
  176MOL   H16028510   2.616   4.640   6.936  1.2642 -1.0893  0.6979
  176MOL   H16128511   2.707   4.539   6.863 -0.1426 -0.4470  0.4579
  176MOL   H16228512   2.632   4.819   6.791 -1.1056  1.2735 -2.1376
  177MOL     C128513   5.774   5.528   1.447  0.4787  1.0059 -0.0587
  177MOL     C228514   5.757   5.380   1.453 -0.1555  0.4697 -0.3927
  177MOL     N328515   5.802   5.352   1.587 -0.3554 -0.3354 -0.6011
  177MOL     H428516   5.701   5.568   1.518  0.8255 -0.9533  1.4408
  177MOL     H528517   5.741   5.561   1.349  1.4381  1.7505 -0.1349
  177MOL     H628518   5.824   5.328   1.385  1.8205  0.5746  1.4131
  177MOL     H728519   5.897   5.371   1.616 -0.8034  2.0781 -0.6453
  177MOL     H828520   5.808   5.251   1.592  4.6301 -0.0804  2.7653
  177MOL     H928521   5.878   5.554   1.461  0.9545 -1.2836  0.9391
  177MOL    C1028522   5.611   5.346   1.436  0.1849 -0.3968 -0.1248
  177MOL    C1128523   5.541   5.366   1.296  0.8805 -0.0656 -0.8088
  177MOL    N1228524   5.602   5.273   1.205  0.1980 -0.8105 -0.6446
  177MOL    H1328525   5.609   5.239   1.460  0.8332 -0.4768 -0.4250
  177MOL    H1428526   5.553   5.387   1.519  1.3140  2.1205 -0.5335
  177MOL    H1528527   5.559   5.464   1.251 -0.2075  0.6277  0.2398
  177MOL    H1628528   5.696   5.306   1.190  0.7364 -1.2462  1.5406
  177MOL    H1728529   5.563   5.274   1.112  0.1464  0.2690 -0.6214
  177MOL    C1828530   5.392   5.331   1.303  0.2638 -0.0463  0.1600
  177MOL    C1928531   5.305   5.449   1.353 -0.4662  0.1216  0.2187
  177MOL    N2028532   5.282   5.538   1.241 -0.0096  0.4459 -0.7893
  177MOL    H2128533   5.350   5.303   1.206 -1.4297  1.5999  0.3824
  177MOL    H2228534   5.377   5.242   1.364  0.7489  0.5623  1.1741
  177MOL    H2328535   5.359   5.504   1.431 -0.1721  0.0033  0.0986
  177MOL    H2428536   5.361   5.601   1.235  0.1058  0.2660 -1.1500
  177MOL    H2528537   5.203   5.598   1.263 -0.7149 -1.0200  0.8223
  177MOL    C2628538   5.167   5.395   1.399 -0.1078 -0.2165  0.8828
  177MOL    C2728539   5.151   5.393   1.557 -0.7220 -0.5950  1.1662
  177MOL    N2828540   5.008   5.368   1.576  0.3457  0.0208  0.5132
  177MOL    H2928541   5.084   5.453   1.359 -1.0480 -1.1000  1.5446
  177MOL    H3028542   5.142   5.296   1.364  1.0930 -0.0048 -0.6076
  177MOL    H3128543   5.175   5.498   1.576  0.5358  0.0972 -3.5616
  177MOL    H3228544   4.992   5.268   1.579  1.0305 -0.1422 -0.7793
  177MOL    H3328545   5.005   5.392   1.674  0.8653  1.2879  0.2276
  177MOL    C3428546   5.247   5.310   1.630  0.2015  0.4420 -0.6262
  177MOL    C3528547   5.229   5.313   1.787 -0.9199 -0.8862 -0.1311
  177MOL    N3628548   5.275   5.195   1.850 -0.3298  0.2493 -0.2597
  177MOL    H3728549   5.235   5.205   1.605  0.2752  0.7298 -1.9207
  177MOL    H3828550   5.350   5.325   1.600  0.3177 -1.0658 -1.0219
  177MOL    H3928551   5.121   5.313   1.801 -1.2013 -0.3629 -2.1748
  177MOL    H4028552   5.211   5.120   1.829 -2.5013  1.8548  0.4112
  177MOL    H4128553   5.271   5.220   1.948 -0.9165  0.6471 -0.3777
  177MOL    C4228554   5.300   5.445   1.843 -0.7999  0.0144 -0.7995
  177MOL    C4328555   5.213   5.573   1.839  0.8249  0.3940  0.0456
  177MOL    N4428556   5.167   5.583   1.971 -0.3323  0.3511  0.1120
  177MOL    H4528557   5.338   5.430   1.944 -0.9425 -0.2284 -0.7820
  177MOL    H4628558   5.385   5.461   1.776 -0.9907 -0.2194 -1.1010
  177MOL    H4728559   5.132   5.548   1.770  0.2893  0.9888  0.4555
  177MOL    H4828560   5.228   5.545   2.042  0.5335  1.6219  0.0642
  177MOL    H4928561   5.159   5.681   1.995 -1.0695  0.4603 -0.5631
  177MOL    C5028562   5.292   5.701   1.798 -0.4355 -0.3802  0.0214
  177MOL    C5128563   5.280   5.754   1.657  0.5841  0.1593  0.6105
  177MOL    N5228564   5.145   5.779   1.615  0.2335  0.0379  0.1437
  177MOL    H5328565   5.270   5.790   1.857  0.5243 -0.8328  1.0964
  177MOL    H5428566   5.395   5.674   1.821 -0.1267 -0.4867 -1.4698
  177MOL    H5528567   5.330   5.674   1.602 -0.5183 -0.8935  1.0988
  177MOL    H5628568   5.144   5.784   1.514 -0.9728  2.6774  0.2319
  177MOL    H5728569   5.087   5.700   1.638 -0.0343  0.8045  2.1959
  177MOL    C5828570   5.350   5.882   1.638  0.1741  0.7718  0.1056
  177MOL    C5928571   5.497   5.891   1.676  0.0933  0.6188  0.1577
  177MOL    N6028572   5.576   5.792   1.613 -0.0326 -0.6718 -0.2173
  177MOL    H6128573   5.345   5.909   1.532  0.3364 -1.2290 -0.4308
  177MOL    H6228574   5.297   5.968   1.679 -1.2435 -0.2670  0.5061
  177MOL    H6328575   5.499   5.871   1.784 -1.0409 -0.6865 -0.0501
  177MOL    H6428576   5.567   5.707   1.667  1.4987 -1.0116 -0.5045
  177MOL    H6528577   5.668   5.815   1.648 -0.6165 -0.0997  0.9844
  177MOL    C6628578   5.547   6.028   1.647  0.0647 -0.6852 -0.2260
  177MOL    C6728579   5.661   6.069   1.737 -0.0033  0.2864 -0.4767
  177MOL    N6828580   5.777   6.125   1.661 -0.0011 -0.1458  0.4736
  177MOL    H6928581   5.567   6.029   1.540  1.4012  0.6002  0.0244
  177MOL    H7028582   5.462   6.096   1.659 -0.3590 -1.5952  2.1182
  177MOL    H7128583   5.703   5.985   1.792 -0.3872  0.6267  0.3527
  177MOL    H7228584   5.763   6.107   1.562  0.5304 -1.8782  0.7020
  177MOL    H7328585   5.779   6.225   1.668  0.6402 -0.3052  2.7109
  177MOL    C7428586   5.623   6.180   1.839  0.6924 -0.3182 -0.1847
  177MOL    C7528587   5.610   6.127   1.987  0.2121  0.1065  0.4725
  177MOL    N7628588   5.608   6.241   2.075  0.2787  0.5264  0.4581
  177MOL    H7728589   5.703   6.254   1.834  0.3048  0.0162 -1.7325
  177MOL    H7828590   5.532   6.236   1.818 -0.0783 -2.0580 -1.5746
  177MOL    H7928591   5.698   6.072   2.020 -0.8433 -2.7795 -1.3147
  177MOL    H8028592   5.703   6.270   2.092  0.4382 -0.2668  0.9133
  177MOL    H8128593   5.593   6.211   2.170  0.0758 -1.6066 -0.2173
  177MOL    C8228594   5.493   6.033   2.013  0.1553  0.4752  0.1790
  177MOL    C8328595   5.536   5.915   2.102 -0.7967  0.2868 -0.9858
  177MOL    N8428596   5.554   5.975   2.236 -0.5548  0.4263 -0.7202
  177MOL    H8528597   5.405   6.086   2.049  1.0881  0.8240  2.0432
  177MOL    H8628598   5.452   5.989   1.922 -0.2112  0.5635  0.2994
  177MOL    H8728599   5.627   5.872   2.061  0.0726 -0.0101  1.1641
  177MOL    H8828600   5.478   6.035   2.264  0.4214  1.7947 -0.9780
  177MOL    H8928601   5.637   6.031   2.242 -1.4704  1.7641 -0.3962
  177MOL    C9028602   5.428   5.803   2.120 -0.0350 -0.4314  0.3517
  177MOL    C9128603   5.489   5.676   2.179 -0.0585  0.4615 -0.3393
  177MOL    N9228604   5.381   5.593   2.219  0.3070  0.1723  0.2600
  177MOL    H9328605   5.343   5.848   2.172  0.2331  0.2232  0.2275
  177MOL    H9428606   5.376   5.785   2.026  1.4833 -0.2291 -0.5453
  177MOL    H9528607   5.552   5.696   2.266  2.0784  0.0437 -1.7471
  177MOL    H9628608   5.409   5.547   2.305 -1.0998  0.5134  0.9095
  177MOL    H9728609   5.311   5.661   2.247 -0.0514  0.4090 -1.1909
  177MOL    C9828610   5.570   5.601   2.067  0.9490  0.4851 -0.0294
  177MOL    C9928611   5.716   5.570   2.098 -0.1966  0.6214  0.0422
  177MOL   N10028612   5.724   5.475   2.205  0.2510  0.1399 -0.2562
  177MOL   H10128613   5.514   5.521   2.018  1.1676  1.4786 -1.9690
  177MOL   H10228614   5.595   5.675   1.990  1.1723 -1.3068 -1.7175
  177MOL   H10328615   5.760   5.666   2.126  0.0883  0.8778 -1.2584
  177MOL   H10428616   5.653   5.405   2.187 -1.7104  1.6214  1.4360
  177MOL   H10528617   5.688   5.521   2.288  1.5900  1.2916 -0.2996
  177MOL   C10628618   5.801   5.509   1.981  0.5768  0.8048 -0.8331
  177MOL   C10728619   5.795   5.599   1.851  0.6416 -0.2987  0.1486
  177MOL   N10828620   5.679   5.570   1.773  0.2904 -0.6226 -0.5405
  177MOL   H10928621   5.904   5.489   2.010  0.2687 -2.1179 -1.6312
  177MOL   H11028622   5.759   5.412   1.956  1.1076  0.4511 -0.3580
  177MOL   H11128623   5.872   5.560   1.784  2.5113  1.0131  1.4924
  177MOL   H11228624   5.702   5.499   1.705  0.2079 -1.6215  0.4537
  177MOL   H11328625   5.600   5.532   1.824 -0.1689  2.0011  0.7864
  177MOL   C11428626   5.835   5.747   1.861 -0.0718 -0.0302 -0.1020
  177MOL   C11528627   5.985   5.779   1.857  0.5615 -0.2020  0.0331
  177MOL   N11628628   6.012   5.906   1.806  0.0697 -0.0866 -0.1471
  177MOL   H11728629   5.803   5.805   1.774  0.8175  2.3050  1.0672
  177MOL   H11828630   5.786   5.799   1.943  0.1500 -0.1691  0.1176
  177MOL   H11928631   6.044   5.711   1.796  0.4110  0.8103 -1.2597
  177MOL   H12028632   6.064   5.905   1.719 -0.1885  0.4040 -0.3090
  177MOL   H12128633   5.927   5.958   1.789  1.2061  1.5994 -0.7764
  177MOL   C12228634   6.053   5.799   1.996 -0.0204  0.0289  0.0582
  177MOL   C12328635   6.208   5.790   1.982  0.3473 -0.0795 -0.0844
  177MOL   N12428636   6.279   5.852   2.092  0.1893  0.4347  0.8442
  177MOL   H12528637   6.017   5.888   2.048  1.0051  1.3103 -1.3771
  177MOL   H12628638   6.022   5.718   2.062 -0.2675  1.6295  1.9591
  177MOL   H12728639   6.228   5.861   1.902 -0.2235  1.0895  0.8123
  177MOL   H12828640   6.246   5.947   2.103 -2.2943 -0.6644  3.6756
  177MOL   H12928641   6.377   5.853   2.068 -0.0556  0.0285 -0.1831
  177MOL   C13028642   6.267   5.652   1.962  0.5643 -0.2588  0.2225
  177MOL   C13128643   6.426   5.642   1.949  0.3819  0.1273 -0.2481
  177MOL   N13228644   6.457   5.495   1.938  0.9202 -1.1173 -0.6235
  177MOL   H13328645   6.230   5.590   2.043  0.1122  0.6288  0.7045
  177MOL   H13428646   6.222   5.608   1.873  0.9625 -2.7834  1.2185
  177MOL   H13528647   6.482   5.680   2.035  0.1737 -2.5522  1.1292
  177MOL   H13628648   6.410   5.474   1.851  0.2769 -0.6544 -0.3867
  177MOL   H13728649   6.404   5.440   2.004 -2.1474 -0.3056 -2.2889
  177MOL   C13828650   6.487   5.692   1.818  0.0764  0.1402 -0.1638
  177MOL   C13928651   6.493   5.843   1.810 -0.3129  0.0412  0.7491
  177MOL   N14028652   6.608   5.879   1.901  0.3338 -0.5263 -0.4061
  177MOL   H14128653   6.584   5.648   1.796  0.6597  1.3429 -0.0584
  177MOL   H14228654   6.424   5.656   1.736 -1.2813  0.6416  0.6344
  177MOL   H14328655   6.404   5.894   1.847 -0.8467 -0.3124 -0.0289
  177MOL   H14428656   6.584   5.815   1.975  0.4166 -0.7244 -0.5525
  177MOL   H14528657   6.580   5.969   1.939  0.7878 -0.6379  0.2010
  177MOL   C14628658   6.528   5.893   1.665 -0.4958  0.2807 -0.6356
  177MOL   C14728659   6.406   5.916   1.577 -0.0606  0.0621 -0.6474
  177MOL   N14828660   6.389   6.058   1.567  0.2031 -0.1997  0.4434
  177MOL   H14928661   6.606   5.969   1.654 -1.6057  1.3096 -1.5168
  177MOL   H15028662   6.587   5.815   1.617 -0.7741 -0.7583  0.6895
  177MOL   H15128663   6.318   5.870   1.624 -1.2192  0.5476 -2.3096
  177MOL   H15228664   6.296   6.078   1.533  0.6702  0.9725 -0.1648
  177MOL   H15328665   6.395   6.098   1.659 -0.6803  0.2629  0.3037
  177MOL   C15428666   6.393   5.851   1.436 -0.6658 -0.1356  0.0599
  177MOL   C15528667   6.351   5.704   1.440 -0.4720 -0.4740 -0.1229
  177MOL   N15628668   6.305   5.657   1.305  0.0619  0.3725  0.5474
  177MOL   H15728669   6.318   5.914   1.388 -0.3093  0.3851  0.1780
  177MOL   H15828670   6.484   5.856   1.376  0.2483 -0.6520  1.3808
  177MOL   H15928671   6.263   5.692   1.502  0.4114 -1.9009  0.8747
  177MOL   H16028672   6.263   5.565   1.310 -2.7737  1.4352 -2.3904
  177MOL   H16128673   6.383   5.663   1.240 -0.0004  1.0616  0.5296
  177MOL   H16228674   6.426   5.636   1.481 -0.6591 -1.0507 -0.7298
  178MOL     C128675   1.994   5.214   3.223 -0.0471  0.4438  0.1942
  178MOL     C228676   2.002   5.224   3.376 -0.5783  1.4440  0.1312
  178MOL     N328677   2.111   5.141   3.420 -0.8535 -0.0964 -0.5025
  178MOL     H428678   2.082   5.250   3.170 -0.6977  0.3460 -0.9599
  178MOL     H528679   1.914   5.279   3.187  0.9987  0.5711 -1.9395
  178MOL     H628680   1.908   5.193   3.423  0.1723  0.4777  1.0106
  178MOL     H728681   2.098   5.150   3.519 -0.0679 -1.0045 -0.3159
  178MOL     H828682   2.198   5.182   3.388  0.8512 -2.1379  1.4275
  178MOL     H928683   1.972   5.114   3.186 -0.1441  0.2173  0.8534
  178MOL    C1028684   2.040   5.371   3.412 -0.6484  0.8107 -0.4931
  178MOL    C1128685   1.948   5.482   3.369  0.5665 -0.4947 -0.0790
  178MOL    N1228686   1.929   5.567   3.482  0.3204 -0.5856  0.1791
  178MOL    H1328687   2.057   5.378   3.519  1.5940 -0.8581 -0.6988
  178MOL    H1428688   2.135   5.392   3.364 -0.5821 -1.3335 -1.3897
  178MOL    H1528689   1.858   5.426   3.346  0.4776  0.0916 -1.2025
  178MOL    H1628690   1.852   5.524   3.532 -1.7068  0.4507 -1.9342
  178MOL    H1728691   1.906   5.663   3.465  1.6359  0.0845  2.0186
  178MOL    C1828692   2.009   5.564   3.245 -0.1542 -0.2376  0.7400
  178MOL    C1928693   1.906   5.649   3.169 -0.7591  0.4345 -0.5160
  178MOL    N2028694   1.980   5.729   3.071 -0.4676 -0.0952 -0.0444
  178MOL    H2128695   2.086   5.633   3.282 -2.0966  2.7449 -0.5942
  178MOL    H2228696   2.059   5.507   3.167 -1.6105 -0.5275  0.0240
  178MOL    H2328697   1.847   5.708   3.239  0.4394 -2.0463  2.6935
  178MOL    H2428698   1.915   5.794   3.028  0.3414  0.5311 -0.3504
  178MOL    H2528699   2.027   5.797   3.128 -1.5682  1.0197 -0.4232
  178MOL    C2628700   1.796   5.565   3.095 -0.1995  0.5214 -0.9151
  178MOL    C2728701   1.654   5.568   3.166 -0.7553 -0.1656  0.7743
  178MOL    N2828702   1.598   5.698   3.160  0.6249 -0.8441 -0.0074
  178MOL    H2928703   1.786   5.609   2.995  1.3669  2.0148 -0.4174
  178MOL    H3028704   1.827   5.461   3.092  1.2086  0.8847  0.3928
  178MOL    H3128705   1.661   5.556   3.274 -2.0394  2.1059  1.1475
  178MOL    H3228706   1.578   5.720   3.063 -1.2866 -0.1187  0.5381
  178MOL    H3328707   1.671   5.761   3.191  0.1181 -0.5866  0.6744
  178MOL    C3428708   1.558   5.478   3.092 -0.0941 -0.0052  0.1702
  178MOL    C3528709   1.443   5.421   3.185 -0.1497 -0.1326 -0.0674
  178MOL    N3628710   1.347   5.353   3.106 -0.5060  0.8446 -0.0110
  178MOL    H3728711   1.515   5.535   3.010  0.3253  0.3996  0.2286
  178MOL    H3828712   1.597   5.385   3.051 -1.2838 -0.6963  0.5846
  178MOL    H3928713   1.405   5.506   3.241 -0.1354 -0.8530  1.0577
  178MOL    H4028714   1.327   5.428   3.041  0.5152  0.8110 -0.3765
  178MOL    H4128715   1.259   5.335   3.151  0.6768 -0.9562  1.6667
  178MOL    C4228716   1.504   5.318   3.286  0.0101  0.0759 -0.3888
  178MOL    C4328717   1.445   5.328   3.431 -0.2880 -0.1003 -0.2340
  178MOL    N4428718   1.482   5.198   3.493 -0.4638  0.0881  0.0450
  178MOL    H4528719   1.478   5.219   3.247  3.0721 -0.4619 -1.1632
  178MOL    H4628720   1.613   5.319   3.289  0.0526  2.3486 -1.7123
  178MOL    H4728721   1.337   5.340   3.427 -0.3826 -0.7657  0.1801
  178MOL    H4828722   1.445   5.134   3.424 -0.5005  2.0261 -1.7880
  178MOL    H4928723   1.423   5.174   3.571  0.5511  0.7852  1.0457
  178MOL    C5028724   1.488   5.451   3.517  0.1866 -0.2851  0.9169
  178MOL    C5128725   1.440   5.594   3.484 -0.1577 -0.7244  0.2877
  178MOL    N5228726   1.296   5.580   3.502 -0.0541  0.2771 -0.3827
  178MOL    H5328727   1.476   5.428   3.623 -0.9753  0.8044  1.0393
  178MOL    H5428728   1.597   5.449   3.525  0.4175  2.7051 -0.6143
  178MOL    H5528729   1.464   5.631   3.385  0.9320 -1.5055  0.2563
  178MOL    H5628730   1.252   5.671   3.497  0.1756  0.3834 -0.5052
  178MOL    H5728731   1.247   5.548   3.419 -1.0293  0.1484  0.2426
  178MOL    C5828732   1.490   5.710   3.577  0.2029  0.6231  0.1062
  178MOL    C5928733   1.645   5.731   3.569 -0.6920  0.3039  0.6820
  178MOL    N6028734   1.693   5.756   3.436 -0.0356 -0.5495 -0.7270
  178MOL    H6128735   1.441   5.803   3.546  2.1427  1.1290 -1.5538
  178MOL    H6228736   1.457   5.685   3.677  0.9584  0.6783  0.3740
  178MOL    H6328737   1.698   5.639   3.592  0.8715  0.9669 -0.1982
  178MOL    H6428738   1.654   5.846   3.412  0.5907 -0.3618 -1.0518
  178MOL    H6528739   1.643   5.695   3.373 -0.3437  0.0742 -1.0975
  178MOL    C6628740   1.698   5.841   3.652 -0.2141 -0.1837 -0.1885
  178MOL    C6728741   1.674   5.831   3.804 -0.1530 -0.0664  0.2722
  178MOL    N6828742   1.754   5.723   3.865 -0.3225 -0.1664  0.6341
  178MOL    H6928743   1.803   5.841   3.622 -0.8316  1.4123 -2.5534
  178MOL    H7028744   1.659   5.937   3.620  0.3288 -0.6735 -2.4586
  178MOL    H7128745   1.569   5.821   3.832 -0.2388 -3.5799 -0.9844
  178MOL    H7228746   1.728   5.636   3.822 -0.8843  0.3962 -0.1876
  178MOL    H7328747   1.849   5.741   3.834 -0.6855  0.7077 -0.0045
  178MOL    C7428748   1.709   5.973   3.869  0.3830 -0.3551 -0.4186
  178MOL    C7528749   1.590   6.071   3.902  0.0012  0.6111 -0.1484
  178MOL    N7628750   1.652   6.180   3.966  0.4278  0.2337 -0.4222
  178MOL    H7728751   1.761   5.963   3.964  2.0434 -1.3934 -1.4016
  178MOL    H7828752   1.777   6.017   3.795 -0.2520  0.2459 -0.6489
  178MOL    H7928753   1.529   6.027   3.981  0.0448  2.2980  0.8311
  178MOL    H8028754   1.667   6.163   4.064  0.1926  0.0515 -0.4174
  178MOL    H8128755   1.741   6.202   3.924 -0.0901  0.3779 -1.4543
  178MOL    C8228756   1.524   6.123   3.766  0.0841  0.7686  0.9693
  178MOL    C8328757   1.396   6.210   3.783  0.2909 -0.4698 -0.2687
  178MOL    N8428758   1.423   6.352   3.817 -0.3968  0.1074  0.5621
  178MOL    H8528759   1.593   6.170   3.695  0.5973 -1.8311 -0.3171
  178MOL    H8628760   1.497   6.035   3.707  1.3587 -0.0327  1.5499
  178MOL    H8728761   1.339   6.161   3.862  1.2648 -0.6856  0.3211
  178MOL    H8828762   1.487   6.339   3.894  0.8482 -0.6400 -0.5897
  178MOL    H8928763   1.349   6.395   3.871 -0.5769 -0.1371  0.5161
  178MOL    C9028764   1.306   6.217   3.659  0.0302 -0.4335 -0.8411
  178MOL    C9128765   1.176   6.142   3.692  0.1085  0.5776 -0.7937
  178MOL    N9228766   1.081   6.193   3.604 -0.0941  0.2340 -0.5053
  178MOL    H9328767   1.290   6.319   3.623 -0.8421  0.9571  3.1306
  178MOL    H9428768   1.349   6.177   3.568 -1.6364 -0.7476 -1.4999
  178MOL    H9528769   1.145   6.174   3.791  0.8889 -0.6074 -0.1528
  178MOL    H9628770   1.077   6.293   3.610 -1.2066  0.1594  0.0751
  178MOL    H9728771   0.985   6.179   3.632  0.1516  0.2145  0.3502
  178MOL    C9828772   1.193   5.987   3.666  0.7939  0.2215 -0.4398
  178MOL    C9928773   1.075   5.898   3.715 -0.2358 -0.0799 -0.2846
  178MOL   N10028774   1.033   5.824   3.601  0.6520  0.9519  0.4577
  178MOL   H10128775   1.218   5.963   3.562 -1.4191 -2.4446 -0.4304
  178MOL   H10228776   1.280   5.952   3.721 -0.4976  0.0699  1.5644
  178MOL   H10328777   0.985   5.953   3.743  0.7553  2.2326 -1.4391
  178MOL   H10428778   0.945   5.781   3.627  0.6870  0.3295 -0.4285
  178MOL   H10528779   1.000   5.887   3.529 -0.8788  3.0939  2.9456
  178MOL   C10628780   1.107   5.795   3.828  1.1594 -0.0142 -0.4194
  178MOL   C10728781   1.078   5.856   3.970 -0.9029  0.1828  0.1779
  178MOL   N10828782   1.058   5.750   4.071 -0.1098 -0.0256  0.4437
  178MOL   H10928783   1.038   5.710   3.823  1.7211 -0.4667 -0.5786
  178MOL   H11028784   1.208   5.757   3.819  1.4568  0.7883 -0.5267
  178MOL   H11128785   0.989   5.918   3.962 -0.0158  1.3259 -1.1208
  178MOL   H11228786   1.008   5.672   4.029 -0.5952  0.8353 -0.6152
  178MOL   H11328787   1.150   5.713   4.088 -0.8581 -3.0189 -1.6289
  178MOL   C11428788   1.195   5.949   4.032 -0.2892  0.2106  0.1599
  178MOL   C11528789   1.150   6.064   4.115 -0.2912  0.6570  0.0335
  178MOL   N11628790   1.070   6.004   4.219 -0.1097 -0.1676 -0.9777
  178MOL   H11728791   1.261   5.888   4.094  1.5830  1.7112 -0.2874
  178MOL   H11828792   1.253   5.999   3.954 -0.3010 -0.3715 -0.2301
  178MOL   H11928793   1.085   6.127   4.054  0.7957  0.5974 -1.1970
  178MOL   H12028794   1.018   5.927   4.179 -2.7333  2.5953 -3.0972
  178MOL   H12128795   1.139   5.965   4.282  2.3226  2.3723 -1.9965
  178MOL   C12228796   1.264   6.149   4.169 -1.0028 -0.2099 -0.7541
  178MOL   C12328797   1.218   6.262   4.265  0.2318  0.4120 -0.8395
  178MOL   N12428798   1.337   6.305   4.346  0.1542 -0.2200 -0.2446
  178MOL   H12528799   1.333   6.078   4.215  0.4923  2.5037  1.3737
  178MOL   H12628800   1.325   6.183   4.085 -0.0562 -0.5609 -0.2188
  178MOL   H12728801   1.151   6.229   4.344  0.9021  0.0980 -0.3990
  178MOL   H12828802   1.390   6.357   4.278 -1.0752  1.0421 -0.2642
  178MOL   H12928803   1.397   6.226   4.367  1.8945  1.0451 -0.3624
  178MOL   C13028804   1.162   6.381   4.183  0.4719  0.2944  0.6534
  178MOL   C13128805   1.067   6.476   4.261  0.4410  0.3154  0.3855
  178MOL   N13228806   1.040   6.592   4.180  0.0133 -0.2617 -0.3599
  178MOL   H13328807   1.242   6.427   4.125 -0.8286  1.4498 -0.2598
  178MOL   H13428808   1.100   6.349   4.099 -2.2062 -0.0557  2.6677
  178MOL   H13528809   1.108   6.502   4.359 -0.5390 -0.8495  1.1161
  178MOL   H13628810   1.128   6.634   4.154  0.6020 -1.9609 -1.2096
  178MOL   H13728811   0.979   6.641   4.243 -3.1483 -2.7705 -1.3183
  178MOL   C13828812   0.939   6.395   4.286  0.2726  0.2787 -0.3009
  178MOL   C13928813   0.876   6.410   4.424  0.7747 -0.5103 -0.8672
  178MOL   N14028814   0.735   6.377   4.414  0.1381 -0.4548  0.0308
  178MOL   H14128815   0.864   6.431   4.216 -0.2043  2.0200  1.0852
  178MOL   H14228816   0.956   6.288   4.272  1.9502  0.3801  0.7950
  178MOL   H14328817   0.875   6.510   4.469 -0.1824 -0.9473  0.1204
  178MOL   H14428818   0.729   6.277   4.402 -2.7939 -0.4281  0.8696
  178MOL   H14528819   0.689   6.382   4.504  1.8490 -0.2006  0.9177
  178MOL   C14628820   0.953   6.325   4.531  0.3313 -0.1911  0.5686
  178MOL   C14728821   0.893   6.338   4.670  0.1034 -0.3787 -0.9533
  178MOL   N14828822   0.978   6.245   4.743 -0.0339  0.4315 -0.2765
  178MOL   H14928823   0.937   6.223   4.494 -2.0046  0.7794 -1.2150
  178MOL   H15028824   1.059   6.347   4.520  0.6370 -2.8565 -2.9557
  178MOL   H15128825   0.789   6.307   4.682 -0.5522  2.5833  1.7220
  178MOL   H15228826   1.073   6.274   4.728  0.2180 -0.3718 -0.2581
  178MOL   H15328827   0.962   6.158   4.694 -0.8643  0.5545 -0.2358
  178MOL   C15428828   0.919   6.475   4.740  0.2939 -0.1214  0.5210
  178MOL   C15528829   0.778   6.521   4.797  0.2227  0.2877  0.4816
  178MOL   N15628830   0.785   6.656   4.853  0.6123 -0.7299 -0.3000
  178MOL   H15728831   0.982   6.461   4.829 -0.9203  2.0040  1.7537
  178MOL   H15828832   0.958   6.546   4.667  1.6047 -1.1786  0.1781
  178MOL   H15928833   0.725   6.455   4.864  0.8428 -0.9355 -0.2038
  178MOL   H16028834   0.839   6.661   4.938 -0.2222 -2.2265  0.3332
  178MOL   H16128835   0.698   6.693   4.887  1.5570  2.7704 -1.4596
  178MOL   H16228836   0.705   6.535   4.718 -0.0357  0.2237  0.7105
  179MOL     C128837   0.526   5.112   2.441  0.2419 -0.1770 -0.2810
  179MOL     C228838   0.505   5.232   2.349 -0.4872 -0.1444 -0.2974
  179MOL     N328839   0.443   5.182   2.229  0.0950  0.2993 -0.0310
  179MOL     H428840   0.430   5.065   2.466 -0.2535  0.9803  0.0288
  179MOL     H528841   0.569   5.138   2.538 -2.5809  0.2921  0.9113
  179MOL     H628842   0.594   5.291   2.327 -0.7097  0.6755  0.9211
  179MOL     H728843   0.485   5.097   2.193  1.4673  0.7590  0.4663
  179MOL     H828844   0.481   5.252   2.167  1.3907 -1.4736 -1.2857
  179MOL     H928845   0.595   5.045   2.389  0.0710  0.3006 -1.1216
  179MOL    C1028846   0.407   5.329   2.423 -0.1026 -1.4019 -0.2034
  179MOL    C1128847   0.448   5.409   2.547  0.1670  0.5730 -0.0675
  179MOL    N1228848   0.538   5.515   2.498 -0.0444 -0.5088 -0.6931
  179MOL    H1328849   0.388   5.399   2.342 -1.9602 -1.2559  0.3367
  179MOL    H1428850   0.315   5.278   2.451 -1.7076  1.1353 -0.6857
  179MOL    H1528851   0.502   5.344   2.617  1.0629  0.7350 -0.6049
  179MOL    H1628852   0.618   5.492   2.441  1.0400  2.0563 -0.3009
  179MOL    H1728853   0.578   5.540   2.587  0.0412 -1.0473 -0.5826
  179MOL    C1828854   0.325   5.482   2.607 -0.6442 -0.6365 -0.4123
  179MOL    C1928855   0.230   5.396   2.686 -0.6065 -0.1267 -0.4762
  179MOL    N2028856   0.284   5.357   2.816  0.5112 -0.1119  0.0993
  179MOL    H2128857   0.360   5.565   2.667  0.7645 -2.2361  1.0405
  179MOL    H2228858   0.279   5.530   2.520  2.4321 -1.0500 -2.3644
  179MOL    H2328859   0.203   5.307   2.630 -0.7109 -0.8694  0.7529
  179MOL    H2428860   0.218   5.284   2.839 -1.1666  0.8491 -1.5544
  179MOL    H2528861   0.372   5.309   2.802  0.9560  0.3197  1.3796
  179MOL    C2628862   0.091   5.461   2.702 -0.0038 -0.3886 -0.2687
  179MOL    C2728863   0.005   5.450   2.572  0.0602 -0.9055  0.2086
  179MOL    N2828864   7.222   5.323   2.563  0.0115  0.0157 -0.1943
  179MOL    H2928865   0.034   5.421   2.786 -0.5272  0.6151 -0.1303
  179MOL    H3028866   0.105   5.563   2.738 -1.4575 -0.0710 -0.5579
  179MOL    H3128867   0.064   5.448   2.480 -0.6618  1.5307 -0.3334
  179MOL    H3228868   7.139   5.310   2.618 -0.5375 -2.1340 -1.4697
  179MOL    H3328869   7.198   5.303   2.467 -1.8686  2.3767 -0.2530
  179MOL    C3428870   7.172   5.560   2.553  0.3811  0.0331  0.4119
  179MOL    C3528871   7.228   5.690   2.501  0.0276 -0.5260 -0.3337
  179MOL    N3628872   7.248   5.672   2.359 -0.0834  0.5869 -0.2116
  179MOL    H3728873   7.088   5.522   2.495 -0.0890 -0.4189  1.3808
  179MOL    H3828874   7.136   5.577   2.654 -0.8580 -1.3022  0.2125
  179MOL    H3928875   0.044   5.719   2.552 -0.4177  0.7264 -0.2431
  179MOL    H4028876   0.066   5.637   2.344 -0.3140 -0.4877  0.8101
  179MOL    H4128877   7.175   5.610   2.327 -2.0102  3.0677 -0.8019
  179MOL    C4228878   7.118   5.798   2.511  0.1893  0.0829 -0.2679
  179MOL    C4328879   7.097   5.874   2.646 -0.1015 -0.3827  0.5561
  179MOL    N4428880   7.229   5.937   2.681  0.6356 -0.0911 -0.4468
  179MOL    H4528881   7.117   5.862   2.423 -0.2131  0.5484  0.0742
  179MOL    H4628882   7.024   5.748   2.488  0.3913 -1.6379  2.3851
  179MOL    H4728883   7.066   5.817   2.733  0.0839 -1.0709  0.1763
  179MOL    H4828884   0.011   5.863   2.717 -1.2318 -1.5570 -0.4453
  179MOL    H4928885   7.211   6.000   2.758 -0.8953  1.3588 -1.9485
  179MOL    C5028886   6.974   5.973   2.637  0.5699  0.3851 -0.4039
  179MOL    C5128887   6.832   5.894   2.656  0.1167 -0.1353  0.2445
  179MOL    N5228888   6.807   5.846   2.787  0.1547  0.3892 -0.3960
  179MOL    H5328889   6.988   6.056   2.706  1.6433  0.0930 -0.2688
  179MOL    H5428890   6.986   6.026   2.543  0.9978  0.4261 -0.3275
  179MOL    H5528891   6.827   5.799   2.603  0.2913 -0.3182  0.5518
  179MOL    H5628892   6.817   5.925   2.850 -1.8991 -0.0908  0.5680
  179MOL    H5728893   6.886   5.788   2.810 -0.4333 -0.1894  0.1928
  179MOL    C5828894   6.710   5.962   2.600 -0.0813  0.2017 -0.3351
  179MOL    C5928895   6.705   6.034   2.465 -0.0539 -0.6851  0.1576
  179MOL    N6028896   6.573   6.031   2.411  0.1321 -0.1148  0.2523
  179MOL    H6128897   6.625   5.894   2.592 -0.2376  0.2727  0.7306
  179MOL    H6228898   6.676   6.031   2.677 -0.5160  0.8315 -1.0743
  179MOL    H6328899   6.765   5.964   2.408  0.8375 -0.1429  0.4167
  179MOL    H6428900   6.550   6.116   2.362  0.9242  0.4391  0.8272
  179MOL    H6528901   6.508   6.021   2.488 -0.3995 -0.6380 -0.2490
  179MOL    C6628902   6.762   6.176   2.463  0.2300 -0.6425  0.0261
  179MOL    C6728903   6.795   6.238   2.322 -0.6464 -0.1834  0.3047
  179MOL    N6828904   6.816   6.379   2.351  0.6136 -0.8982  0.2245
  179MOL    H6928905   6.696   6.238   2.523  0.7604  0.0841 -0.1287
  179MOL    H7028906   6.848   6.168   2.528 -0.2590 -1.0489  0.6263
  179MOL    H7128907   6.716   6.236   2.246 -1.6466 -2.2152  1.3563
  179MOL    H7228908   6.860   6.428   2.274 -0.8121  0.2126  0.0795
  179MOL    H7328909   6.728   6.429   2.345  0.3328 -1.5284 -1.3127
  179MOL    C7428910   6.914   6.181   2.246  0.1134  0.1088 -0.2250
  179MOL    C7528911   6.895   6.048   2.162  0.0051 -0.2580  0.5857
  179MOL    N7628912   6.790   6.063   2.069 -0.2678 -0.2119  0.0598
  179MOL    H7728913   6.956   6.258   2.181 -0.8674 -0.0140 -1.0151
  179MOL    H7828914   6.982   6.160   2.328  0.2123  3.6225  0.7037
  179MOL    H7928915   6.862   5.976   2.238 -0.4203 -0.0886  0.5628
  179MOL    H8028916   6.704   6.064   2.121 -1.0370  0.3054 -1.2042
  179MOL    H8128917   6.782   5.988   2.002  3.8608 -0.6723 -0.0440
  179MOL    C8228918   7.020   6.011   2.084 -0.1258 -0.1492 -0.0726
  179MOL    C8328919   7.025   5.875   2.023  0.4491  0.8421 -0.2990
  179MOL    N8428920   7.149   5.855   1.959  0.0582 -0.0556 -0.0022
  179MOL    H8528921   7.035   6.087   2.007  2.5058 -1.9440 -1.4281
  179MOL    H8628922   7.107   6.025   2.148  1.5632 -1.1575 -2.0599
  179MOL    H8728923   6.947   5.880   1.946  0.1772 -1.3534 -0.2143
  179MOL    H8828924   7.162   5.757   1.937  2.5246  0.8323 -2.8033
  179MOL    H8928925   7.128   5.878   1.863 -2.8624 -0.1871  0.5639
  179MOL    C9028926   7.011   5.754   2.126  0.3291  0.1886 -0.1355
  179MOL    C9128927   6.867   5.696   2.133 -0.2732  0.2062  0.3193
  179MOL    N9228928   6.876   5.563   2.072 -0.1182 -0.0651  0.0016
  179MOL    H9328929   7.077   5.668   2.115  1.7491  1.1998  0.4014
  179MOL    H9428930   7.030   5.787   2.228 -1.2282 -0.4893  0.3946
  179MOL    H9528931   6.817   5.771   2.071 -1.4768 -1.0982 -0.3063
  179MOL    H9628932   6.783   5.531   2.048  0.6143 -0.3140 -2.6551
  179MOL    H9728933   6.915   5.572   1.979  1.5152 -3.4030  0.3029
  179MOL    C9828934   6.820   5.670   2.278  0.7226  0.3553 -0.8052
  179MOL    C9928935   6.671   5.677   2.313 -0.6188 -0.1837  0.6614
  179MOL   N10028936   6.612   5.791   2.246 -0.5313 -0.0732 -0.3484
  179MOL   H10128937   6.860   5.573   2.306 -0.0593  0.4326  0.6418
  179MOL   H10228938   6.869   5.737   2.349 -0.6405 -1.6346  2.1290
  179MOL   H10328939   6.656   5.697   2.419 -0.9519  0.5053  0.4880
  179MOL   H10428940   6.637   5.875   2.296  0.8537 -0.2315 -0.7547
  179MOL   H10528941   6.512   5.785   2.260 -0.4487  1.3092  0.9571
  179MOL   C10628942   6.591   5.552   2.277  0.0314  0.6337 -0.3999
  179MOL   C10728943   6.617   5.445   2.386 -0.5813 -0.2988  0.5255
  179MOL   N10828944   6.508   5.443   2.482  0.0959 -0.4123 -0.3572
  179MOL   H10928945   6.484   5.568   2.265 -0.6267 -2.0695  1.6378
  179MOL   H11028946   6.621   5.522   2.176  2.0942 -0.3288  0.4791
  179MOL   H11128947   6.706   5.474   2.442 -0.3766 -0.3834  0.2478
  179MOL   H11228948   6.490   5.367   2.546  0.2022  0.0581  0.2371
  179MOL   H11328949   6.536   5.512   2.550 -1.1349 -2.4201  2.2620
  179MOL   C11428950   6.650   5.301   2.337 -0.0925  0.2807 -0.5188
  179MOL   C11528951   6.790   5.266   2.279 -0.0285  0.3676  0.1308
  179MOL   N11628952   6.875   5.238   2.391 -0.1945 -0.3204  0.3921
  179MOL   H11728953   6.634   5.224   2.413  1.0749 -0.3747 -0.9325
  179MOL   H11828954   6.585   5.305   2.250  1.1618 -0.7553 -1.5005
  179MOL   H11928955   6.839   5.350   2.229  0.0940  0.5161  0.4975
  179MOL   H12028956   6.965   5.216   2.349 -0.6126 -0.4553 -0.4530
  179MOL   H12128957   6.896   5.323   2.441 -2.4190  1.5194 -1.6710
  179MOL   C12228958   6.790   5.138   2.187 -0.2076 -0.7146  0.2025
  179MOL   C12328959   6.764   5.172   2.036 -0.0908  0.0674 -0.5599
  179MOL   N12428960   6.888   5.222   1.981 -0.4748  0.0345  0.2382
  179MOL   H12528961   6.886   5.086   2.187  0.6258  0.7269  2.7022
  179MOL   H12628962   6.717   5.062   2.215 -1.6024  0.2808 -0.6670
  179MOL   H12728963   6.682   5.243   2.026 -1.0956 -1.0660 -0.4625
  179MOL   H12828964   6.914   5.297   2.042  1.4857 -1.2641  1.0640
  179MOL   H12928965   6.883   5.270   1.892 -2.5359 -0.4486  0.0850
  179MOL   C13028966   6.709   5.064   1.950 -0.1823 -0.0869 -0.0478
  179MOL   C13128967   6.560   5.035   1.967  0.0172  0.8161 -0.6333
  179MOL   N13228968   6.488   5.131   1.894  0.2461 -0.5822 -0.2899
  179MOL   H13328969   6.732   5.091   1.846 -0.1010 -1.5603 -0.4214
  179MOL   H13428970   6.764   4.971   1.963 -1.9392 -1.3306 -1.3250
  179MOL   H13528971   6.544   5.044   2.075 -0.0736  0.9113 -0.6545
  179MOL   H13628972   6.394   5.118   1.929 -0.8154  0.1012 -2.8383
  179MOL   H13728973   6.520   5.223   1.920 -0.4147 -0.7259  1.0854
  179MOL   C13828974   6.510   4.901   1.924  0.4013 -0.4700 -0.2670
  179MOL   C13928975   6.567   4.777   1.992 -0.5004 -0.5443  0.7489
  179MOL   N14028976   6.543   4.766   2.138 -0.3566  0.0749  0.1608
  179MOL   H14128977   6.403   4.899   1.942  0.7934 -0.1964  2.4529
  179MOL   H14228978   6.519   4.889   1.817  0.9182  1.5971 -0.4851
  179MOL   H14328979   6.671   4.793   1.965 -0.3344 -0.2517  1.5638
  179MOL   H14428980   6.443   4.759   2.149 -0.5552  1.8163 -0.3752
  179MOL   H14528981   6.584   4.686   2.184 -1.7987 -0.7771  0.0127
  179MOL   C14628982   6.520   4.652   1.918  0.2912  0.4040  0.0493
  179MOL   C14728983   6.575   4.635   1.767  0.2636 -0.4594 -0.7770
  179MOL   N14828984   6.685   4.545   1.769 -0.3109  0.3642  0.4180
  179MOL   H14928985   6.540   4.568   1.985  1.8813  0.8723  0.1964
  179MOL   H15028986   6.412   4.659   1.917  0.2140 -0.6402  0.5846
  179MOL   H15128987   6.603   4.735   1.732 -0.8322  0.7438  1.6869
  179MOL   H15228988   6.749   4.599   1.825 -0.1825  2.2356 -1.4363
  179MOL   H15328989   6.728   4.549   1.677 -1.1085 -0.2584  0.0119
  179MOL   C15428990   6.467   4.584   1.661 -0.7338  0.1135  0.0106
  179MOL   C15528991   6.353   4.682   1.630  0.7554  0.4061  0.5395
  179MOL   N15628992   6.259   4.614   1.530  0.1469 -0.0050 -0.7209
  179MOL   H15728993   6.520   4.563   1.568 -1.9137  0.9239 -0.8557
  179MOL   H15828994   6.426   4.488   1.692 -0.3425 -0.3476 -0.9030
  179MOL   H15928995   6.409   4.752   1.569  0.5704 -0.1386 -0.2611
  179MOL   H16028996   6.165   4.649   1.517  0.5465  0.4886 -2.5274
  179MOL   H16128997   6.250   4.514   1.541  1.8511 -0.1733 -0.7563
  179MOL   H16228998   6.310   4.728   1.719 -0.5194  2.2637 -0.9966
  180MOL     C128999   1.481   4.062   6.019 -0.0914 -0.0887  0.2090
  180MOL     C229000   1.529   3.913   6.040 -0.4123 -0.5844 -0.6708
  180MOL     N329001   1.671   3.922   6.080 -0.1457 -0.6353 -0.2443
  180MOL     H429002   1.379   4.069   5.981  0.6190  0.7290 -1.6365
  180MOL     H529003   1.546   4.105   5.942 -2.2617  0.7937 -1.1539
  180MOL     H629004   1.511   3.852   5.952 -2.8269 -1.1942  0.2172
  180MOL     H729005   1.709   3.830   6.063  0.0036 -0.4086 -1.1499
  180MOL     H829006   1.723   3.967   6.006 -0.2762 -1.3259 -0.7547
  180MOL     H929007   1.486   4.115   6.114 -1.0707 -0.6700  0.5972
  180MOL    C1029008   1.452   3.841   6.152 -0.4063  0.4331 -0.3960
  180MOL    C1129009   1.474   3.688   6.160 -0.2351 -0.7219 -0.6491
  180MOL    N1229010   1.475   3.654   6.304 -0.0119  0.8543  0.9642
  180MOL    H1329011   1.466   3.890   6.249  0.2597 -1.3360  0.4076
  180MOL    H1429012   1.344   3.860   6.153 -0.9178 -2.3129 -0.0579
  180MOL    H1529013   1.575   3.657   6.131 -0.5450 -0.2744 -2.2776
  180MOL    H1629014   1.556   3.687   6.353  0.1861 -0.7069  1.7228
  180MOL    H1729015   1.488   3.556   6.326  0.1670  1.0570  1.7782
  180MOL    C1829016   1.364   3.608   6.095 -0.8569 -0.0660  0.2295
  180MOL    C1929017   1.336   3.627   5.945  0.9344  0.2676 -0.5063
  180MOL    N2029018   1.312   3.496   5.888 -0.1830 -0.7781 -0.1217
  180MOL    H2129019   1.387   3.505   6.120 -1.5575 -0.2186  0.2500
  180MOL    H2229020   1.276   3.627   6.156 -1.6418 -1.5530 -0.4355
  180MOL    H2329021   1.420   3.672   5.891  0.9558  0.1642 -0.5609
  180MOL    H2429022   1.399   3.447   5.898  0.1789  0.1048  1.1447
  180MOL    H2529023   1.244   3.446   5.943 -0.2840  0.8600  1.2794
  180MOL    C2629024   1.197   3.702   5.919 -0.3386  0.7006  0.1274
  180MOL    C2729025   1.169   3.742   5.774 -0.3467 -0.0146  1.1116
  180MOL    N2829026   1.030   3.783   5.770  0.1000 -0.4901  0.6806
  180MOL    H2929027   1.117   3.638   5.956  1.5192 -1.2823  0.8549
  180MOL    H3029028   1.191   3.800   5.966  1.7974  1.4245 -1.0277
  180MOL    H3129029   1.170   3.660   5.702  0.4972 -0.2921  1.4338
  180MOL    H3229030   0.982   3.783   5.680  0.1153  1.4034  0.6564
  180MOL    H3329031   0.974   3.719   5.824 -0.9049 -1.7700 -1.7804
  180MOL    C3429032   1.251   3.859   5.727 -0.2062  0.3265 -0.0191
  180MOL    C3529033   1.241   3.906   5.573  0.0061 -0.2298  0.0640
  180MOL    N3629034   1.243   4.049   5.551 -0.3117 -0.3669 -0.2851
  180MOL    H3729035   1.231   3.945   5.790 -1.3737 -0.9139  1.3347
  180MOL    H3829036   1.357   3.841   5.746  0.2866  3.7854  0.8854
  180MOL    H3929037   1.142   3.867   5.549  0.9964 -1.1081 -2.8109
  180MOL    H4029038   1.173   4.091   5.610 -0.1027 -1.4094  0.7102
  180MOL    H4129039   1.214   4.071   5.456  0.7166 -0.7693 -0.6995
  180MOL    C4229040   1.339   3.842   5.468  0.6850 -0.1958  0.0947
  180MOL    C4329041   1.361   3.692   5.473 -0.0718  0.3576  0.0311
  180MOL    N4429042   1.239   3.607   5.470  0.2414 -0.0125 -0.2205
  180MOL    H4529043   1.317   3.861   5.363 -1.2096  1.3218  0.7455
  180MOL    H4629044   1.437   3.891   5.472  0.5265  0.3471 -2.2579
  180MOL    H4729045   1.397   3.676   5.575 -1.0675  2.3625  0.7152
  180MOL    H4829046   1.262   3.515   5.505 -2.5624 -0.6184  0.1365
  180MOL    H4929047   1.176   3.632   5.545  1.2267 -2.1453  1.3753
  180MOL    C5029048   1.456   3.648   5.363  0.6213  0.0998 -0.0877
  180MOL    C5129049   1.501   3.504   5.378 -0.6555  1.1132 -0.3527
  180MOL    N5229050   1.540   3.457   5.242 -0.3048 -0.1571  0.7890
  180MOL    H5329051   1.409   3.655   5.265  0.7074 -0.3191 -0.1617
  180MOL    H5429052   1.539   3.719   5.363  1.8520 -1.2739 -1.8993
  180MOL    H5529053   1.415   3.452   5.421  0.1733  0.6188  0.7357
  180MOL    H5629054   1.576   3.363   5.248  0.2984 -0.0295 -0.7948
  180MOL    H5729055   1.615   3.509   5.200  0.4797 -2.4162 -0.7262
  180MOL    C5829056   1.624   3.486   5.472  0.4980 -0.4174  0.2249
  180MOL    C5929057   1.645   3.331   5.504 -0.3507 -0.0391  0.0906
  180MOL    N6029058   1.785   3.303   5.530  0.0657  0.5503 -0.2105
  180MOL    H6129059   1.714   3.526   5.426 -0.5477  2.5335  0.6256
  180MOL    H6229060   1.614   3.564   5.548  1.1619 -0.2899  0.1860
  180MOL    H6329061   1.623   3.274   5.414 -0.4774 -0.9423  0.6801
  180MOL    H6429062   1.852   3.325   5.458 -0.5051  2.7667 -0.1045
  180MOL    H6529063   1.829   3.338   5.614  3.0834 -1.7281 -0.7578
  180MOL    C6629064   1.572   3.258   5.626  0.2664  0.0301 -0.2586
  180MOL    C6729065   1.422   3.236   5.611  1.4415 -0.7821 -0.3494
  180MOL    N6829066   1.338   3.346   5.631  0.0287  0.1687  0.3434
  180MOL    H6929067   1.614   3.161   5.652 -1.2310 -0.3853  0.6345
  180MOL    H7029068   1.591   3.324   5.711 -0.3756  2.4575 -1.9396
  180MOL    H7129069   1.383   3.178   5.694  2.2886 -2.8236 -1.3361
  180MOL    H7229070   1.240   3.324   5.621  0.1709 -0.7183  0.8267
  180MOL    H7329071   1.349   3.382   5.725 -0.5180  2.2445 -0.3625
  180MOL    C7429072   1.380   3.147   5.489 -0.3641  0.5962 -0.6000
  180MOL    C7529073   1.431   3.000   5.479 -0.5282  0.1807 -0.1703
  180MOL    N7629074   1.351   2.916   5.568  0.4659  0.6632  0.6206
  180MOL    H7729075   1.273   3.133   5.469 -0.1409 -0.8764 -0.8233
  180MOL    H7829076   1.409   3.195   5.396 -1.5138 -0.8429 -1.7280
  180MOL    H7929077   1.532   3.003   5.519 -0.7929  0.7597  0.4707
  180MOL    H8029078   1.410   2.834   5.575  1.7939  1.3546 -1.9027
  180MOL    H8129079   1.351   2.954   5.661  0.9050 -1.2768  1.4204
  180MOL    C8229080   1.420   2.943   5.334 -0.2779 -0.2308 -0.4373
  180MOL    C8329081   1.554   2.899   5.271 -0.4133 -0.3292 -0.1693
  180MOL    N8429082   1.553   2.752   5.276  0.3052  0.5911  0.4850
  180MOL    H8529083   1.354   2.856   5.326 -0.7729  0.2540 -1.7680
  180MOL    H8629084   1.364   2.998   5.258  1.0976  0.4617 -0.9627
  180MOL    H8729085   1.633   2.937   5.336 -0.4772 -4.1627  2.3186
  180MOL    H8829086   1.605   2.700   5.206 -0.6523  0.2059  0.0539
  180MOL    H8929087   1.594   2.730   5.365 -0.4364 -2.5205  0.1274
  180MOL    C9029088   1.596   2.949   5.127  0.2680 -0.2855 -0.6947
  180MOL    C9129089   1.612   3.103   5.111 -0.6229 -0.1519  0.0609
  180MOL    N9229090   1.726   3.154   5.178 -0.3907 -0.3010  0.3645
  180MOL    H9329091   1.691   2.907   5.093  1.3338  0.8744  0.7704
  180MOL    H9429092   1.516   2.917   5.059 -0.2374 -0.8476  0.1596
  180MOL    H9529093   1.525   3.158   5.145 -0.9800 -0.9912  0.5255
  180MOL    H9629094   1.725   3.133   5.277  0.3298 -1.1125  0.2139
  180MOL    H9729095   1.739   3.254   5.172  1.1492 -0.4322  1.1376
  180MOL    C9829096   1.636   3.161   4.966  0.1694 -0.1228  0.8939
  180MOL    C9929097   1.532   3.107   4.867 -0.3725 -0.0208 -0.1618
  180MOL   N10029098   1.505   3.215   4.771 -0.2887  0.2802  0.3169
  180MOL   H10129099   1.622   3.269   4.974 -0.7977 -0.2516  0.8941
  180MOL   H10229100   1.732   3.127   4.926 -0.3450 -2.2668  1.4188
  180MOL   H10329101   1.440   3.090   4.923 -0.0046 -0.7481  0.2210
  180MOL   H10429102   1.458   3.279   4.835 -1.5473  1.0869 -1.3750
  180MOL   H10529103   1.435   3.191   4.702 -1.6370 -0.4198  1.8983
  180MOL   C10629104   1.575   2.984   4.783 -0.3714 -0.3357 -0.3950
  180MOL   C10729105   1.477   2.922   4.681 -0.2132 -0.3490 -0.4648
  180MOL   N10829106   1.517   2.795   4.621 -0.4964 -0.6283  0.6742
  180MOL   H10929107   1.668   3.005   4.729 -0.3835  2.5976  0.6332
  180MOL   H11029108   1.602   2.903   4.851  2.3379  0.9731  0.1722
  180MOL   H11129109   1.463   2.998   4.604  0.0733 -0.7970 -0.9630
  180MOL   H11229110   1.445   2.754   4.564 -1.3209  1.5471  0.0996
  180MOL   H11329111   1.594   2.816   4.559  0.1125  0.2745  1.7104
  180MOL   C11429112   1.332   2.893   4.736  0.4244 -0.8301 -0.1871
  180MOL   C11529113   1.211   2.886   4.630 -0.2374  0.0183 -0.1597
  180MOL   N11629114   1.160   2.750   4.630  0.3145 -0.0367 -0.4042
  180MOL   H11729115   1.333   2.808   4.805 -2.7026 -0.5207  0.3442
  180MOL   H11829116   1.304   2.973   4.805  0.6475  0.3595 -1.4604
  180MOL   H11929117   1.235   2.899   4.525 -2.4319 -2.1578 -0.9573
  180MOL   H12029118   1.237   2.690   4.605 -0.0755 -0.4831 -0.5460
  180MOL   H12129119   1.144   2.734   4.728  0.3163 -3.0132 -0.8216
  180MOL   C12229120   1.085   2.980   4.660  0.3374 -0.4163  0.3806
  180MOL   C12329121   1.102   3.135   4.662  0.8092 -0.1889  0.8557
  180MOL   N12429122   1.154   3.161   4.528  0.2809  0.2261  0.2135
  180MOL   H12529123   1.006   2.950   4.590  0.9329 -0.9905 -0.0505
  180MOL   H12629124   1.053   2.966   4.763  1.8279 -0.3959  0.8498
  180MOL   H12729125   1.176   3.164   4.737 -0.0055 -0.6755  1.8612
  180MOL   H12829126   1.107   3.240   4.486 -0.5276 -0.1301  0.4323
  180MOL   H12929127   1.127   3.085   4.468  2.4439  0.1800 -0.7317
  180MOL   C13029128   0.951   3.188   4.678  0.4046 -0.5526  0.2141
  180MOL   C13129129   0.933   3.344   4.684  0.7437  0.3672 -0.3645
  180MOL   N13229130   0.794   3.371   4.703  0.2154 -0.4801 -0.0200
  180MOL   H13329131   0.887   3.136   4.608  0.9239 -0.0496 -0.6420
  180MOL   H13429132   0.915   3.156   4.776  0.1850 -2.2975 -0.4225
  180MOL   H13529133   0.950   3.375   4.581 -0.2552 -0.1594 -0.6938
  180MOL   H13629134   0.739   3.340   4.624 -1.2687  0.7412  0.5024
  180MOL   H13729135   0.784   3.471   4.694  2.5669 -0.1095  1.1312
  180MOL   C13829136   1.012   3.423   4.787 -0.0865  0.3571 -0.3936
  180MOL   C13929137   1.115   3.525   4.734  1.0126  0.6665  0.9386
  180MOL   N14029138   1.047   3.627   4.655  0.0072 -0.2624 -0.0189
  180MOL   H14129139   0.949   3.472   4.861 -1.1250 -1.5620 -0.0006
  180MOL   H14229140   1.079   3.350   4.832 -0.5655 -0.5860 -1.1903
  180MOL   H14329141   1.176   3.468   4.664  0.0010  1.3825 -0.5532
  180MOL   H14429142   1.108   3.663   4.584 -1.0695  0.6381 -0.5090
  180MOL   H14529143   0.972   3.586   4.601  0.1690  0.9255 -1.1541
  180MOL   C14629144   1.218   3.593   4.824  0.9688  0.6235 -0.1895
  180MOL   C14729145   1.285   3.512   4.943  0.1339  0.1873  0.3237
  180MOL   N14829146   1.404   3.577   4.981 -0.0626  0.3255 -0.2006
  180MOL   H14929147   1.297   3.629   4.759  1.7025  0.9739  0.8723
  180MOL   H15029148   1.187   3.685   4.874  0.7266  0.3827  0.1125
  180MOL   H15129149   1.328   3.421   4.899  0.2713  0.7442 -0.7116
  180MOL   H15229150   1.445   3.524   5.057  1.4634 -0.2487 -1.3867
  180MOL   H15329151   1.380   3.670   5.012  2.3054  0.5539  1.0895
  180MOL   C15429152   1.193   3.473   5.061  0.0164 -0.0049 -0.2709
  180MOL   C15529153   1.209   3.330   5.111 -0.1676  0.3207 -0.2448
  180MOL   N15629154   1.121   3.305   5.228  0.3721  0.4535 -0.0937
  180MOL   H15729155   1.220   3.536   5.146  1.8823 -1.7504  0.4885
  180MOL   H15829156   1.088   3.482   5.034 -0.5536 -0.4959  1.7434
  180MOL   H15929157   1.314   3.323   5.140 -0.1581  0.9832 -0.1095
  180MOL   H16029158   1.167   3.351   5.305  0.3752  0.5585 -0.1585
  180MOL   H16129159   1.032   3.353   5.222 -0.9569 -1.8229  0.7203
  180MOL   H16229160   1.195   3.253   5.036 -1.1586 -1.1912  1.4500
  181MOL     C129161   0.281   6.622   2.436 -0.1901  0.0228 -0.5411
  181MOL     C229162   0.215   6.749   2.495  0.2669  0.5744 -0.9537
  181MOL     N329163   0.266   6.870   2.430 -0.6789 -0.3579 -0.1839
  181MOL     H429164   0.287   6.550   2.517  1.3090 -0.4442 -1.0677
  181MOL     H529165   0.382   6.642   2.400 -1.0567  0.5062 -2.7703
  181MOL     H629166   0.239   6.755   2.601 -0.1064  0.6428 -0.8734
  181MOL     H729167   0.258   6.851   2.331 -0.8624  0.6870 -0.3749
  181MOL     H829168   0.205   6.948   2.449 -0.6149 -0.4603  0.4291
  181MOL     H929169   0.229   6.576   2.352  0.6217 -1.3214 -0.3176
  181MOL    C1029170   0.059   6.749   2.474 -0.7218 -0.4200 -0.3585
  181MOL    C1129171   7.256   6.667   2.584 -0.6907  0.1095  0.6605
  181MOL    N1229172   7.197   6.747   2.692 -0.1878  0.1042  0.2083
  181MOL    H1329173   0.009   6.844   2.459  1.4096  0.5104 -1.7996
  181MOL    H1429174   0.040   6.693   2.382  0.6649 -1.2066 -0.1835
  181MOL    H1529175   0.047   6.603   2.643 -0.2725  0.0492  0.1309
  181MOL    H1629176   7.133   6.692   2.748 -0.2539  1.1977  1.2147
  181MOL    H1729177   7.127   6.801   2.643 -0.8419  0.7441  1.8048
  181MOL    C1829178   7.149   6.577   2.522  0.2688 -0.2441  0.4118
  181MOL    C1929179   7.199   6.435   2.489  0.4685  0.0432 -0.1629
  181MOL    N2029180   7.107   6.334   2.549  0.1095  0.3856  0.1230
  181MOL    H2129181   7.060   6.568   2.585 -0.7454  0.5543 -0.8852
  181MOL    H2229182   7.096   6.617   2.436  2.5432  0.2181 -0.8162
  181MOL    H2329183   0.021   6.413   2.533  0.3366  0.0154  0.1108
  181MOL    H2429184   7.020   6.341   2.498 -1.0956 -0.6430  1.9889
  181MOL    H2529185   7.135   6.243   2.512 -3.7439 -0.9028  0.1843
  181MOL    C2629186   7.221   6.415   2.335 -0.2856 -0.3281  0.9439
  181MOL    C2729187   7.275   6.277   2.286  0.5232 -0.1310 -0.2369
  181MOL    N2829188   7.268   6.276   2.142 -0.3460  0.5733 -0.2232
  181MOL    H2929189   7.127   6.435   2.283  0.8171 -2.0364 -1.8152
  181MOL    H3029190   0.007   6.498   2.300 -0.2418 -1.2035 -1.1054
  181MOL    H3129191   7.207   6.196   2.311  1.4221 -0.2705  1.8967
  181MOL    H3229192   0.038   6.190   2.113 -2.6968 -0.6092 -0.5233
  181MOL    H3329193   0.066   6.339   2.113 -0.1434  0.6274  0.3890
  181MOL    C3429194   0.138   6.228   2.339  0.1306  0.7356 -0.1094
  181MOL    C3529195   0.141   6.154   2.475  0.4526 -1.1240  0.4039
  181MOL    N3629196   0.095   6.021   2.438  0.1732  0.3018 -0.0522
  181MOL    H3729197   0.187   6.160   2.268 -0.9445  0.4690 -0.6143
  181MOL    H3829198   0.212   6.308   2.333  0.8858  0.1133  0.8597
  181MOL    H3929199   0.059   6.196   2.534 -0.4418 -0.9471 -0.9579
  181MOL    H4029200   0.022   6.035   2.370 -0.1906 -0.3267  0.2072
  181MOL    H4129201   0.050   5.987   2.522 -0.0479  0.3639 -0.1453
  181MOL    C4229202   0.270   6.162   2.553  0.2807 -0.0223  0.1949
  181MOL    C4329203   0.281   6.085   2.682 -0.5233 -0.0445 -0.7195
  181MOL    N4429204   0.414   6.050   2.703  0.9087  0.2105  0.3852
  181MOL    H4529205   0.344   6.112   2.490 -1.1207  1.1164 -2.4236
  181MOL    H4629206   0.308   6.264   2.564  0.2637  0.1482 -1.2063
  181MOL    H4729207   0.224   5.993   2.667  0.7146 -0.7122 -1.3389
  181MOL    H4829208   0.455   5.996   2.627 -2.5484 -1.4971 -0.3689
  181MOL    H4929209   0.422   5.988   2.782 -2.1170 -0.8616 -0.0702
  181MOL    C5029210   0.235   6.164   2.808 -0.6680 -0.3582  0.4059
  181MOL    C5129211   0.130   6.286   2.798  0.6250 -0.1535 -0.4913
  181MOL    N5229212   0.002   6.219   2.802 -0.5702 -1.0057  0.1235
  181MOL    H5329213   0.229   6.104   2.899  0.5885  0.4007  0.9960
  181MOL    H5429214   0.317   6.230   2.833 -0.5895 -0.5075  0.5391
  181MOL    H5529215   0.148   6.351   2.712 -2.2327  1.6713  0.2382
  181MOL    H5629216   7.258   6.203   2.704 -0.7567 -0.3020  0.0421
  181MOL    H5729217   7.211   6.293   2.818 -0.4473 -0.6663 -0.8725
  181MOL    C5829218   0.129   6.382   2.919 -0.2252  0.4604  0.8020
  181MOL    C5929219   0.233   6.499   2.929  1.3539  0.1282  1.0817
  181MOL    N6029220   0.184   6.609   2.850 -0.0709 -0.3037 -0.3333
  181MOL    H6129221   0.034   6.432   2.939 -0.8290  0.4207 -1.7466
  181MOL    H6229222   0.140   6.319   3.007 -5.0730 -2.0515 -0.2459
  181MOL    H6329223   0.330   6.470   2.890  0.5279 -0.3466 -0.6236
  181MOL    H6429224   0.087   6.631   2.867 -0.5413 -0.7693 -2.3439
  181MOL    H6529225   0.185   6.576   2.755  1.4670  1.8388 -1.1123
  181MOL    C6629226   0.249   6.555   3.066  0.6896  0.3610 -0.4933
  181MOL    C6729227   0.293   6.460   3.178  0.1076  0.3643  0.4131
  181MOL    N6829228   0.402   6.382   3.122 -0.0237 -0.1622 -0.0700
  181MOL    H6929229   0.319   6.638   3.065 -1.1395  1.9645  0.8685
  181MOL    H7029230   0.147   6.581   3.097  0.4773 -2.5091  1.4038
  181MOL    H7129231   0.219   6.388   3.213 -1.5615  1.3529 -1.0454
  181MOL    H7229232   0.442   6.332   3.200 -3.1606  0.2162  1.8352
  181MOL    H7329233   0.357   6.307   3.071  0.1146 -0.3252  0.0468
  181MOL    C7429234   0.353   6.551   3.295  0.6318  0.6041  0.1311
  181MOL    C7529235   0.252   6.638   3.377 -0.9293 -0.0516  0.6274
  181MOL    N7629236   0.159   6.555   3.445  0.2502  0.1472  0.2344
  181MOL    H7729237   0.405   6.487   3.367 -2.1913 -1.7615  0.1782
  181MOL    H7829238   0.430   6.616   3.255 -0.5417  0.9768 -1.5672
  181MOL    H7929239   0.202   6.696   3.299 -0.1332 -0.4885 -0.2171
  181MOL    H8029240   0.133   6.488   3.373 -0.5408  2.6661 -1.9028
  181MOL    H8129241   0.210   6.509   3.519  0.1910 -1.8019 -0.8856
  181MOL    C8229242   0.335   6.719   3.478  0.0748  0.5749 -0.2372
  181MOL    C8329243   0.273   6.839   3.544  1.0187 -0.0061  0.3893
  181MOL    N8429244   0.366   6.901   3.633 -0.1013 -0.2046  0.1851
  181MOL    H8529245   0.375   6.657   3.558  1.5097 -0.3407 -1.6287
  181MOL    H8629246   0.428   6.749   3.430  0.4125 -1.0394 -0.6257
  181MOL    H8729247   0.192   6.810   3.610  0.7534 -1.9104 -0.7374
  181MOL    H8829248   0.392   6.840   3.709  3.0074  0.1301 -0.5824
  181MOL    H8929249   0.454   6.914   3.586  0.7826 -1.0392  1.5623
  181MOL    C9029250   0.226   6.953   3.448 -0.3685  0.4650  1.0462
  181MOL    C9129251   0.173   7.094   3.502 -0.0398 -0.1512  1.1349
  181MOL    N9229252   0.184   7.198   3.394  0.1040 -0.3566 -0.1809
  181MOL    H9329253   0.309   6.977   3.382 -1.8775 -0.2921 -1.1733
  181MOL    H9429254   0.145   6.907   3.391  0.9184 -1.2189  0.5467
  181MOL    H9529255   0.244   7.126   3.578  0.4279  2.0170 -0.1719
  181MOL    H9629256   0.150   7.162   3.306 -2.2800 -1.9498  1.3238
  181MOL    H9729257   0.285   7.204   3.395  0.0041  2.6330  2.9458
  181MOL    C9829258   0.023   7.099   3.556 -0.1169  0.0488  0.6465
  181MOL    C9929259   7.272   7.029   3.694 -0.2592 -0.3042  0.3608
  181MOL   N10029260   7.241   7.130   3.795 -0.7593  0.1497 -0.3228
  181MOL   H10129261   7.275   7.205   3.566 -0.3883  0.2446 -1.8172
  181MOL   H10229262   7.232   7.065   3.476  0.0870  0.9613  0.0844
  181MOL   H10329263   0.091   6.987   3.728  0.1562  2.0917  2.2692
  181MOL   H10429264   7.151   7.166   3.767 -0.3384  0.8702 -0.7597
  181MOL   H10529265   7.223   7.082   3.882 -1.5771 -0.7618 -0.9710
  181MOL   C10629266   7.156   6.934   3.682  0.3667 -0.0654 -0.0995
  181MOL   C10729267   7.181   6.812   3.590  0.4848  0.3061 -0.4204
  181MOL   N10829268   7.244   6.704   3.671 -0.4843 -0.2519  0.4424
  181MOL   H10929269   7.134   6.895   3.782 -0.5307  3.0212  0.9601
  181MOL   H11029270   7.069   6.990   3.649  0.6669  2.2691  2.8465
  181MOL   H11129271   7.246   6.827   3.504 -0.5998  1.6273 -1.0400
  181MOL   H11229272   0.049   6.737   3.722 -0.9497  2.3126 -0.4030
  181MOL   H11329273   7.271   6.634   3.603 -2.1619 -1.5529  1.0722
  181MOL   C11429274   7.049   6.751   3.531  0.2096  0.0074 -0.7574
  181MOL   C11529275   6.962   6.848   3.449  0.2953 -0.0169 -0.0395
  181MOL   N11629276   7.046   6.893   3.342  0.4608 -0.2556 -0.3003
  181MOL   H11729277   7.062   6.656   3.481  0.1873  0.0805 -0.9009
  181MOL   H11829278   6.993   6.733   3.623 -0.5395 -2.7454 -1.7115
  181MOL   H11929279   6.919   6.930   3.506  1.3491 -0.1934  1.0114
  181MOL   H12029280   7.077   6.808   3.299  1.6930 -0.2405  0.5247
  181MOL   H12129281   7.132   6.931   3.379 -1.1484  2.2701  1.0473
  181MOL   C12229282   6.846   6.770   3.387 -0.1154 -0.0027 -0.1629
  181MOL   C12329283   6.735   6.714   3.481 -0.6078  0.5093  0.0383
  181MOL   N12429284   6.660   6.825   3.547  0.7575  0.3797  0.4486
  181MOL   H12529285   6.798   6.824   3.306  0.1761  1.6698  0.7510
  181MOL   H12629286   6.891   6.682   3.340 -1.3704 -0.3250 -0.7646
  181MOL   H12729287   6.779   6.665   3.568 -1.3221 -1.4840 -0.6974
  181MOL   H12829288   6.609   6.780   3.621  0.0632  1.2040  0.4792
  181MOL   H12929289   6.593   6.847   3.474 -0.6154  0.0668  1.5952
  181MOL   C13029290   6.622   6.622   3.433 -1.1214  0.3744  0.4418
  181MOL   C13129291   6.657   6.483   3.373 -0.2134 -0.1673  0.4538
  181MOL   N13229292   6.544   6.390   3.388  0.1414 -0.6532  0.4543
  181MOL   H13329293   6.554   6.606   3.517 -1.2683 -0.8688  0.1005
  181MOL   H13429294   6.570   6.680   3.358  1.4768 -0.2532 -1.9300
  181MOL   H13529295   6.737   6.428   3.422  0.7412  2.0546  1.4328
  181MOL   H13629296   6.540   6.331   3.470 -0.7160 -2.2091 -0.6681
  181MOL   H13729297   6.456   6.439   3.397  1.0198  0.7088  1.7601
  181MOL   C13829298   6.690   6.490   3.222  1.0542 -1.0672  0.0130
  181MOL   C13929299   6.790   6.386   3.170 -0.2005 -0.1503  0.9657
  181MOL   N14029300   6.721   6.259   3.173 -0.3324 -0.0544 -0.2311
  181MOL   H14129301   6.600   6.474   3.163  0.9927 -1.1482  0.1273
  181MOL   H14229302   6.718   6.592   3.197 -2.1546 -0.6888 -2.3344
  181MOL   H14329303   6.877   6.380   3.235 -1.0449 -0.9464  2.0463
  181MOL   H14429304   6.622   6.259   3.192 -0.4414 -3.5185 -0.5877
  181MOL   H14529305   6.757   6.210   3.253 -0.2894 -0.6458 -0.6061
  181MOL   C14629306   6.850   6.407   3.031  0.4706 -0.0898  0.2365
  181MOL   C14729307   7.004   6.396   3.026 -0.6638  0.6014 -0.4043
  181MOL   N14829308   7.036   6.365   2.885 -0.1105 -0.2000  0.5503
  181MOL   H14929309   6.808   6.330   2.965 -2.3451  1.2735  0.3950
  181MOL   H15029310   6.817   6.500   2.985 -0.8930 -1.1707 -1.0391
  181MOL   H15129311   7.029   6.310   3.088  0.1512  0.7848 -0.4727
  181MOL   H15229312   6.952   6.348   2.830  0.9887 -2.0206 -0.6003
  181MOL   H15329313   7.059   6.447   2.831  0.1283 -1.2537 -0.9707
  181MOL   C15429314   7.072   6.528   3.076 -0.3158  0.2184  1.3080
  181MOL   C15529315   7.154   6.516   3.200 -0.2314  1.0750 -0.4137
  181MOL   N15629316   7.183   6.649   3.243  0.6089  0.2824 -0.5821
  181MOL   H15729317   7.119   6.582   2.993 -0.4647 -0.4482  0.7791
  181MOL   H15829318   6.994   6.603   3.090  0.6696  1.2668  1.2363
  181MOL   H15929319   7.249   6.465   3.183 -1.3212 -1.0935 -0.1740
  181MOL   H16029320   7.230   6.703   3.171 -0.0875 -2.1604 -2.9367
  181MOL   H16129321   7.244   6.638   3.323 -1.2424  0.7981  0.9526
  181MOL   H16229322   7.103   6.470   3.284  2.0445  1.6460  1.3277
  182MOL     C129323   4.320   0.862   4.799 -0.7867 -0.3977  0.1121
  182MOL     C229324   4.294   0.733   4.721  0.1384 -0.3363 -0.4203
  182MOL     N329325   4.353   0.758   4.592  0.3280  0.1412  0.1628
  182MOL     H429326   4.281   0.859   4.901  0.7522 -0.7264  0.7124
  182MOL     H529327   4.268   0.947   4.757 -1.0758 -0.3565  0.5481
  182MOL     H629328   4.188   0.725   4.696 -0.4514  1.6970  1.2066
  182MOL     H729329   4.330   0.684   4.527  0.7616  0.9728 -0.9529
  182MOL     H829330   4.453   0.763   4.593  0.2732  1.0169  1.5462
  182MOL     H929331   4.422   0.900   4.798 -1.6422  1.9663  0.4182
  182MOL    C1029332   4.363   0.604   4.777 -0.1512  0.0801 -0.4810
  182MOL    C1129333   4.351   0.467   4.702 -0.3130 -0.6545  0.7852
  182MOL    N1229334   4.441   0.373   4.755  0.3272 -0.0227 -0.4974
  182MOL    H1329335   4.467   0.633   4.793 -0.3998 -0.0360  1.4485
  182MOL    H1429336   4.320   0.599   4.877  0.9917 -4.6727 -0.1039
  182MOL    H1529337   4.379   0.491   4.599 -0.3467 -2.2922  0.3807
  182MOL    H1629338   4.523   0.423   4.785 -0.3585  0.7789  0.0725
  182MOL    H1729339   4.484   0.326   4.677  1.5076  0.9264 -0.4238
  182MOL    C1829340   4.207   0.410   4.699  0.1986  0.3376  0.3275
  182MOL    C1929341   4.198   0.291   4.593  0.8426 -0.2276 -1.0197
  182MOL    N2029342   4.175   0.166   4.681  0.3993 -0.1880 -0.1634
  182MOL    H2129343   4.173   0.378   4.797  1.1261 -1.1280  0.1886
  182MOL    H2229344   4.145   0.494   4.668 -0.0148  0.8746  2.1362
  182MOL    H2329345   4.289   0.271   4.538  0.9370  1.5948 -1.5521
  182MOL    H2429346   4.254   0.153   4.742 -1.3785  0.1195  2.2760
  182MOL    H2529347   4.184   0.085   4.621 -1.3650 -0.6287  0.1519
  182MOL    C2629348   4.071   0.311   4.512 -0.3648  0.0983  0.9452
  182MOL    C2729349   4.074   0.427   4.405  0.0616 -0.2508  0.1351
  182MOL    N2829350   4.122   0.372   4.272 -0.2159 -0.1674 -0.2554
  182MOL    H2929351   4.035   0.225   4.456 -2.1022  0.3267  1.6835
  182MOL    H3029352   3.990   0.325   4.583 -1.7651  0.2581 -0.6528
  182MOL    H3129353   4.147   0.504   4.427  0.6371 -0.2687 -1.6225
  182MOL    H3229354   4.195   0.436   4.244 -0.0725  0.3405  1.2287
  182MOL    H3329355   4.173   0.286   4.279  0.4790  0.3197  0.8011
  182MOL    C3429356   3.935   0.501   4.393 -0.9254  0.0491  0.7687
  182MOL    C3529357   3.884   0.588   4.514  0.3337 -0.7081  0.4569
  182MOL    N3629358   3.839   0.720   4.477  0.5976 -0.0288 -0.1168
  182MOL    H3729359   3.939   0.550   4.296 -5.1360 -1.1466 -0.1242
  182MOL    H3829360   3.855   0.427   4.384 -2.7785  1.9826  0.8027
  182MOL    H3929361   3.967   0.589   4.584 -0.2597  0.1815  1.1578
  182MOL    H4029362   3.809   0.716   4.381 -1.3626  0.3510  0.4591
  182MOL    H4129363   3.749   0.728   4.523 -0.2268 -1.2006 -1.4872
  182MOL    C4229364   3.761   0.511   4.584 -0.2387  0.3349  0.2639
  182MOL    C4329365   3.707   0.590   4.708 -0.0333 -0.5010  0.3428
  182MOL    N4429366   3.597   0.682   4.659 -0.2401  0.3564 -0.2127
  182MOL    H4529367   3.676   0.506   4.517 -0.4644  1.2815  0.4715
  182MOL    H4629368   3.784   0.411   4.623 -0.0096  0.3086  0.0665
  182MOL    H4729369   3.779   0.656   4.755 -1.7996  1.2089  0.7097
  182MOL    H4829370   3.529   0.697   4.732  0.9264  0.5648  0.8484
  182MOL    H4929371   3.551   0.638   4.580 -1.0175  1.9080 -0.6336
  182MOL    C5029372   3.645   0.499   4.812 -0.1083  0.2687 -0.0910
  182MOL    C5129373   3.753   0.458   4.917  0.2304 -0.1326  0.3928
  182MOL    N5229374   3.679   0.394   5.031  0.3894  0.1036 -0.2473
  182MOL    H5329375   3.569   0.559   4.863  1.3927 -0.2191  2.8527
  182MOL    H5429376   3.592   0.417   4.765 -2.2600  0.0608  2.6032
  182MOL    H5529377   3.791   0.551   4.959  0.9276 -0.1305 -0.2249
  182MOL    H5629378   3.656   0.301   4.999  2.4136 -0.7640  0.7270
  182MOL    H5729379   3.749   0.369   5.099 -0.0053  0.2036  0.1959
  182MOL    C5829380   3.877   0.373   4.880 -0.3843 -0.5613  0.2116
  182MOL    C5929381   3.958   0.327   5.004  0.4667  0.3240  0.1067
  182MOL    N6029382   4.055   0.228   4.958 -0.0790  0.1885  0.2731
  182MOL    H6129383   3.844   0.294   4.813  0.9845  0.4794 -1.7425
  182MOL    H6229384   3.940   0.432   4.813 -0.2400  0.1749  0.9789
  182MOL    H6329385   3.885   0.275   5.066 -0.0722 -0.3545 -1.0808
  182MOL    H6429386   4.000   0.145   4.940 -0.7079  0.2856  1.6598
  182MOL    H6529387   4.074   0.253   4.863  0.7384  0.3132  0.4628
  182MOL    C6629388   4.028   0.443   5.078  0.3463 -0.1354  0.5243
  182MOL    C6729389   4.036   0.402   5.227 -0.0605 -0.4506  0.1113
  182MOL    N6829390   4.147   0.481   5.282  0.0388 -0.8160 -0.3783
  182MOL    H6929391   4.123   0.456   5.028  0.8982 -0.7362  1.4019
  182MOL    H7029392   3.968   0.532   5.060  2.1149  0.6178 -1.7847
  182MOL    H7129393   4.067   0.298   5.220 -0.7844 -0.6107 -0.7366
  182MOL    H7229394   4.233   0.440   5.248 -0.7284 -2.5854 -0.2020
  182MOL    H7329395   4.157   0.579   5.256  0.1069 -0.8016 -0.2989
  182MOL    C7429396   3.916   0.426   5.315 -0.4301 -0.1980 -0.9510
  182MOL    C7529397   3.892   0.316   5.425 -0.3129  0.0538 -0.0427
  182MOL    N7629398   4.004   0.317   5.519 -0.5919 -0.1720  0.6926
  182MOL    H7729399   3.920   0.520   5.370 -0.7113 -1.0539  0.5638
  182MOL    H7829400   3.829   0.432   5.249 -0.9624 -2.3305 -0.4662
  182MOL    H7929401   3.879   0.217   5.383 -2.5303  0.9980 -1.6405
  182MOL    H8029402   4.008   0.221   5.549 -1.5447  0.3769  2.6932
  182MOL    H8129403   4.084   0.330   5.460 -2.9426 -0.2105 -2.6163
  182MOL    C8229404   3.763   0.346   5.512  0.7742 -0.1921 -0.3014
  182MOL    C8329405   3.692   0.230   5.588 -0.2557 -0.0932 -0.0905
  182MOL    N8429406   3.658   0.127   5.493 -0.1857  0.3823 -0.2799
  182MOL    H8529407   3.792   0.428   5.578  2.0489 -2.9160  2.6576
  182MOL    H8629408   3.688   0.390   5.446  1.7341 -0.5011 -1.5952
  182MOL    H8729409   3.604   0.258   5.647 -0.5700 -1.6208  0.1831
  182MOL    H8829410   3.589   0.177   5.438 -0.2823  0.5520 -0.0020
  182MOL    H8929411   3.615   0.052   5.543  2.3651  0.7398  2.5573
  182MOL    C9029412   3.778   0.154   5.688 -0.1109 -0.8682 -0.1538
  182MOL    C9129413   3.823   0.226   5.812  0.1764  0.0999  0.1429
  182MOL    N9229414   3.709   0.261   5.891  0.5596 -0.7142  0.4348
  182MOL    H9329415   3.734   0.064   5.730 -1.6450  0.5505  1.3779
  182MOL    H9429416   3.869   0.123   5.638 -0.3630 -1.6841 -0.1045
  182MOL    H9529417   3.878   0.318   5.795  0.8361 -0.5830 -1.4391
  182MOL    H9629418   3.662   0.343   5.857  2.2485  0.0314 -0.1324
  182MOL    H9729419   3.740   0.304   5.976  2.8013 -1.3818 -0.0107
  182MOL    C9829420   3.916   0.136   5.901 -0.0095  0.5928  0.0587
  182MOL    C9929421   4.027   0.056   5.830 -0.9198  0.5473  0.1535
  182MOL   N10029422   4.125   0.149   5.783 -0.2083 -1.0260  0.3206
  182MOL   H10129423   3.960   0.193   5.983 -3.2363  1.6404  1.1448
  182MOL   H10229424   3.860   0.061   5.958 -0.4901  0.4326 -0.6092
  182MOL   H10329425   3.989   7.272   5.746  0.2652  0.6192 -0.4453
  182MOL   H10429426   4.180   0.106   5.710 -2.3429 -1.2917 -1.1629
  182MOL   H10529427   4.079   0.224   5.735  0.7421 -0.2242  0.6469
  182MOL   C10629428   4.092   7.232   5.934 -0.4066  0.2246  0.1481
  182MOL   C10729429   4.016   7.099   5.940  1.2354 -0.1270  0.0898
  182MOL   N10829430   4.056   7.012   5.833  0.6508  0.6669  0.3791
  182MOL   H10929431   4.191   7.208   5.894 -0.5690  1.0418 -0.7534
  182MOL   H11029432   4.104   7.271   6.035  0.5233 -0.1089  0.1752
  182MOL   H11129433   3.909   7.119   5.933  1.0321  0.1771  3.4650
  182MOL   H11229434   4.000   7.029   5.750 -0.0876 -1.2307  0.4607
  182MOL   H11329435   4.044   6.915   5.858  1.6056  0.3810 -0.2435
  182MOL   C11429436   4.046   7.024   6.069 -0.3730 -0.3164  0.2609
  182MOL   C11529437   3.938   6.919   6.088  0.1118  0.5084  0.1612
  182MOL   N11629438   3.989   6.814   6.184  0.0045  0.1344 -0.3833
  182MOL   H11729439   4.148   6.986   6.063  0.7195  2.6836 -1.1420
  182MOL   H11829440   4.035   7.094   6.152 -0.6449  0.9136 -0.7783
  182MOL   H11929441   3.921   6.855   6.001 -0.4766 -0.3271  0.8793
  182MOL   H12029442   4.007   6.848   6.277  0.3304  0.9570 -0.7399
  182MOL   H12129443   3.911   6.750   6.193 -0.9931  1.5899  1.4872
  182MOL   C12229444   3.804   6.974   6.152 -0.3813 -0.0782 -0.4214
  182MOL   C12329445   3.677   6.982   6.069 -0.1682  0.3639  0.0714
  182MOL   N12429446   3.615   6.855   6.059  0.2141 -0.1006 -0.1206
  182MOL   H12529447   3.780   6.915   6.240 -0.4953 -1.8743 -1.6410
  182MOL   H12629448   3.821   7.077   6.183 -2.8338  0.9530 -2.2551
  182MOL   H12729449   3.709   7.017   5.971 -0.1413  0.0141 -0.0462
  182MOL   H12829450   3.567   6.834   6.145  1.0149  1.5076  0.7442
  182MOL   H12929451   3.538   6.873   5.995 -0.8831 -1.9250  0.6552
  182MOL   C13029452   3.568   7.074   6.131  0.1463  0.4980  0.8266
  182MOL   C13129453   3.595   7.227   6.125 -0.0511  0.8367 -0.0777
  182MOL   N13229454   3.553   0.001   5.991  0.4163 -0.3237  0.1911
  182MOL   H13329455   3.474   7.050   6.081 -0.4583  1.5845  1.4286
  182MOL   H13429456   3.542   7.039   6.231 -0.4929 -0.4307  0.3442
  182MOL   H13529457   3.703   7.238   6.117  0.0249  2.5365  2.5094
  182MOL   H13629458   3.620   0.072   5.963 -1.0127  1.2817  0.7237
  182MOL   H13729459   3.475   0.059   6.020  0.4756  1.3220 -2.7541
  182MOL   C13829460   3.538   0.040   6.237 -0.4272  0.0362 -0.2742
  182MOL   C13929461   3.605   0.187   6.248 -0.5397  0.7644  0.3290
  182MOL   N14029462   3.497   0.278   6.269  0.2076 -0.5653  0.0802
  182MOL   H14129463   3.430   0.026   6.231 -0.3953 -1.1658  1.5056
  182MOL   H14229464   3.552   0.002   6.338  1.6510 -0.9585 -0.9148
  182MOL   H14329465   3.654   0.219   6.156 -0.4069 -1.2514 -0.3256
  182MOL   H14429466   3.433   0.279   6.191  0.6084  0.6475 -0.2479
  182MOL   H14529467   3.435   0.273   6.348  0.8634 -0.3005  0.6160
  182MOL   C14629468   3.700   0.197   6.364  0.1142  0.2967  0.4357
  182MOL   C14729469   3.839   0.161   6.311  0.2056 -0.2792 -0.5423
  182MOL   N14829470   3.904   0.276   6.255 -0.2940 -0.2542  0.1097
  182MOL   H14929471   3.705   0.302   6.393  1.4621  0.2387  0.4628
  182MOL   H15029472   3.669   0.140   6.452  2.0835 -0.0722  0.9064
  182MOL   H15129473   3.839   0.078   6.239  1.3792 -1.5277  0.8730
  182MOL   H15229474   3.848   0.320   6.183 -0.7046  0.3130  0.7760
  182MOL   H15329475   3.983   0.248   6.198 -0.3021 -0.0099 -0.0250
  182MOL   C15429476   3.934   0.109   6.419  0.2893  0.6559  0.9811
  182MOL   C15529477   3.909   7.234   6.458 -0.1094  0.2224 -0.6617
  182MOL   N15629478   3.987   7.207   6.578  0.1459 -0.6694 -0.1676
  182MOL   H15729479   4.034   0.121   6.377 -0.1190 -0.0990 -0.2553
  182MOL   H15829480   3.933   0.167   6.511  2.2752 -0.6627  1.8600
  182MOL   H15929481   3.940   7.170   6.375  2.5330  0.4110  0.1352
  182MOL   H16029482   4.086   7.217   6.560  0.6807  1.6781  3.4272
  182MOL   H16129483   3.961   0.000   6.647 -0.4091 -0.9709 -0.0769
  182MOL   H16229484   3.803   7.216   6.475 -0.3078  0.5854 -1.4704
  183MOL     C129485   5.189   2.647   6.840  0.1386  0.2801  0.2487
  183MOL     C229486   5.156   2.792   6.874 -0.6458  0.1113 -0.0777
  183MOL     N329487   5.097   2.779   7.000 -0.0218 -0.6837 -0.2270
  183MOL     H429488   5.093   2.597   6.828  1.4816 -2.2247 -0.4036
  183MOL     H529489   5.248   2.598   6.918  0.8613 -0.5327 -0.7912
  183MOL     H629490   5.075   2.824   6.809 -1.6406  0.8219  1.4752
  183MOL     H729491   5.126   2.862   7.050 -1.3146  0.0916 -0.7556
  183MOL     H829492   4.997   2.783   7.007  0.1778  1.0110  3.3191
  183MOL     H929493   5.234   2.644   6.741 -1.8271 -1.7418 -0.6193
  183MOL    C1029494   5.275   2.893   6.873  0.2450 -0.6590  0.3265
  183MOL    C1129495   5.330   2.943   6.735  0.7348  0.0722 -0.1640
  183MOL    N1229496   5.227   3.033   6.681 -0.5445 -0.1325  0.6588
  183MOL    H1329497   5.254   2.978   6.937 -0.2805 -0.7162  0.2284
  183MOL    H1429498   5.356   2.836   6.918 -0.1273 -0.8233  0.7855
  183MOL    H1529499   5.330   2.859   6.664  1.8900  0.1997 -0.3336
  183MOL    H1629500   5.262   3.061   6.590  0.2603  1.3418  1.4064
  183MOL    H1729501   5.209   3.124   6.721 -1.8363 -0.4570  0.8399
  183MOL    C1829502   5.473   3.004   6.733 -0.2610 -0.0722 -0.5083
  183MOL    C1929503   5.577   2.894   6.698  0.0077 -0.2153  0.1082
  183MOL    N2029504   5.647   2.918   6.571 -0.6332 -0.4006  0.8539
  183MOL    H2129505   5.489   3.082   6.658  0.2180  1.4841  1.1899
  183MOL    H2229506   5.494   3.063   6.822  0.6244 -1.2401  0.0774
  183MOL    H2329507   5.518   2.803   6.688 -1.2469  0.4325  1.3961
  183MOL    H2429508   5.709   2.840   6.554  0.9823  0.8826  0.7373
  183MOL    H2529509   5.595   2.913   6.485 -0.8903 -0.4924  1.0141
  183MOL    C2629510   5.683   2.874   6.802  1.2236  0.4171  0.2186
  183MOL    C2729511   5.632   2.833   6.945  0.6043 -0.1632 -0.4594
  183MOL    N2829512   5.601   2.689   6.937  0.0333 -0.3445 -0.6556
  183MOL    H2929513   5.750   2.793   6.775 -0.3979 -1.3524  1.4600
  183MOL    H3029514   5.733   2.971   6.810  0.8861  0.5096  1.2982
  183MOL    H3129515   5.542   2.888   6.973 -0.2754 -2.4646  1.4046
  183MOL    H3229516   5.527   2.666   7.002 -0.2149  0.0832 -0.7796
  183MOL    H3329517   5.542   2.672   6.857 -0.8593  0.4868 -0.1893
  183MOL    C3429518   5.738   2.869   7.054 -0.2118 -0.2775 -0.4461
  183MOL    C3529519   5.742   3.025   7.078  0.9496 -0.3375  0.5892
  183MOL    N3629520   5.624   3.068   7.157 -0.2608 -0.3617  0.9860
  183MOL    H3729521   5.730   2.823   7.153 -0.5420  0.1490 -0.2697
  183MOL    H3829522   5.839   2.848   7.021 -0.2258  0.8490 -1.2143
  183MOL    H3929523   5.730   3.074   6.981 -1.3725  0.0530  1.0479
  183MOL    H4029524   5.612   3.168   7.159  1.0873 -0.1830  0.7734
  183MOL    H4129525   5.537   3.033   7.119  1.0102 -1.7856 -0.6722
  183MOL    C4229526   5.863   3.080   7.148  0.0617  0.2602 -0.1192
  183MOL    C4329527   5.883   3.235   7.154 -0.0559 -0.5907 -0.3239
  183MOL    N4429528   5.949   3.249   0.010  0.2243  0.0469  0.2770
  183MOL    H4529529   5.854   3.041   7.249  0.0498  0.3440 -0.0881
  183MOL    H4629530   5.945   3.033   7.092 -0.2085 -0.5046  0.1192
  183MOL    H4729531   5.784   3.281   7.151 -0.0257 -0.4334  0.8737
  183MOL    H4829532   5.979   3.345   0.018  1.1470 -0.2769  0.6876
  183MOL    H4929533   6.037   3.200   0.006 -1.0264 -2.3427  0.6973
  183MOL    C5029534   5.978   3.292   7.050 -0.0883 -0.5965  0.3247
  183MOL    C5129535   5.906   3.321   6.918  0.4985 -1.1221  0.2372
  183MOL    N5229536   5.839   3.455   6.923 -0.7486 -0.2363  0.0289
  183MOL    H5329537   6.025   3.383   7.088 -2.5410  0.0684  1.9160
  183MOL    H5429538   6.056   3.217   7.043  0.5073  0.1721 -1.8742
  183MOL    H5529539   5.830   3.246   6.898  0.2923 -0.5071 -1.3297
  183MOL    H5629540   5.763   3.431   6.984  0.9838  0.3256  2.4882
  183MOL    H5729541   5.794   3.466   6.833 -0.7618  0.4168  0.1161
  183MOL    C5829542   6.003   3.320   6.802  0.4924 -0.7726  0.1596
  183MOL    C5929543   5.976   3.212   6.698  0.4331 -0.2976 -0.4271
  183MOL    N6029544   5.842   3.219   6.633 -0.6555  0.3772  0.1964
  183MOL    H6129545   6.012   3.420   6.759  0.5029 -1.3556 -1.2325
  183MOL    H6229546   6.110   3.323   6.824  0.3111  0.8334  0.8924
  183MOL    H6329547   5.989   3.120   6.755 -0.0054 -0.7904 -1.1165
  183MOL    H6429548   5.850   3.261   6.542  0.6055  0.6782  0.4327
  183MOL    H6529549   5.807   3.125   6.626 -0.5773  0.2594  1.2463
  183MOL    C6629550   6.090   3.201   6.589 -0.6939 -0.2957 -0.5492
  183MOL    C6729551   6.079   3.068   6.509 -0.3682  0.3849  0.2982
  183MOL    N6829552   6.142   3.082   6.377 -0.1825 -0.6956 -0.3363
  183MOL    H6929553   6.086   3.289   6.525  1.2306  1.6122  1.8437
  183MOL    H7029554   6.192   3.212   6.625 -1.2320  1.9818  0.4154
  183MOL    H7129555   5.975   3.043   6.493 -0.5652  1.4162 -0.0358
  183MOL    H7229556   6.157   3.181   6.361  2.1818 -0.6139  2.0167
  183MOL    H7329557   6.078   3.065   6.301  0.1260 -2.7192 -0.1790
  183MOL    C7429558   6.143   2.946   6.587 -0.0532 -1.3206 -0.2870
  183MOL    C7529559   6.107   2.810   6.529 -0.8127 -0.1294 -0.0952
  183MOL    N7629560   6.199   2.714   6.582 -0.1614 -0.2644 -0.4218
  183MOL    H7729561   6.247   2.977   6.580  0.1935 -1.4400  2.2353
  183MOL    H7829562   6.119   2.949   6.693 -0.7958  0.5648 -0.4934
  183MOL    H7929563   6.138   2.810   6.425  1.2922 -1.7669  0.4948
  183MOL    H8029564   6.182   2.619   6.550  0.4183 -0.5923  0.2321
  183MOL    H8129565   6.192   2.710   6.683 -1.6400 -0.5047 -0.5214
  183MOL    C8229566   5.963   2.773   6.566 -0.3329 -0.4262 -0.2290
  183MOL    C8329567   5.889   2.713   6.446 -0.0704 -0.3196  0.5126
  183MOL    N8429568   5.771   2.654   6.492 -0.5278 -0.3160  0.2419
  183MOL    H8529569   5.951   2.708   6.652 -1.7084 -0.7652 -0.6611
  183MOL    H8629570   5.912   2.861   6.604  1.2641  0.3310  0.2148
  183MOL    H8729571   5.957   2.635   6.411 -0.5441 -0.3905 -0.2630
  183MOL    H8829572   5.758   2.570   6.437 -0.0376  0.2793 -0.7946
  183MOL    H8929573   5.788   2.624   6.588 -0.6420  2.1819  1.0730
  183MOL    C9029574   5.863   2.815   6.336 -0.4956  0.2262  0.4336
  183MOL    C9129575   5.829   2.765   6.196  0.1241  0.5204  0.2628
  183MOL    N9229576   5.790   2.874   6.109 -0.7003 -0.4781 -0.2352
  183MOL    H9329577   5.784   2.884   6.365  0.0716  1.1498 -0.2226
  183MOL    H9429578   5.951   2.878   6.326 -0.3649  0.1024  0.7897
  183MOL    H9529579   5.742   2.702   6.219  0.2870 -0.2714 -1.2370
  183MOL    H9629580   5.767   2.841   6.016  2.4657 -0.8079 -0.9606
  183MOL    H9729581   5.714   2.928   6.146 -0.6090  1.3273 -2.5413
  183MOL    C9829582   5.942   2.677   6.129 -0.1375 -0.0058 -0.2369
  183MOL    C9929583   5.889   2.571   6.027 -0.4635 -0.4388  0.4037
  183MOL   N10029584   5.993   2.542   5.935 -0.7072 -0.3193 -0.0215
  183MOL   H10129585   6.012   2.746   6.080 -1.9945  1.8676 -0.3052
  183MOL   H10229586   6.007   2.623   6.199  1.6837 -0.4703 -2.2228
  183MOL   H10329587   5.811   2.617   5.966  0.1466 -0.5803 -0.4813
  183MOL   H10429588   5.955   2.477   5.867 -0.9536  1.0720 -1.2340
  183MOL   H10529589   6.040   2.620   5.892 -0.0289 -0.2819  0.7626
  183MOL   C10629590   5.868   2.433   6.093  0.8134  0.7502 -0.0263
  183MOL   C10729591   5.759   2.421   6.193  0.4053 -0.0280 -0.2527
  183MOL   N10829592   5.630   2.456   6.133 -0.2164 -1.0957  0.2621
  183MOL   H10929593   5.841   2.374   6.005  0.9294  0.6077  0.0328
  183MOL   H11029594   5.963   2.399   6.134  1.0743  1.2198 -0.2373
  183MOL   H11129595   5.795   2.496   6.264 -2.1905  1.5833 -0.5729
  183MOL   H11229596   5.575   2.505   6.201  1.1577  0.5587  0.2238
  183MOL   H11329597   5.653   2.520   6.058 -1.6731 -2.8616 -1.7698
  183MOL   C11429598   5.743   2.287   6.261 -0.2445  0.1593 -0.3030
  183MOL   C11529599   5.875   2.219   6.300  0.4939 -0.1586 -0.1969
  183MOL   N11629600   5.861   2.159   6.437  0.1241 -0.2084  0.1477
  183MOL   H11729601   5.683   2.295   6.352 -0.5742 -0.6927 -0.4368
  183MOL   H11829602   5.678   2.218   6.207 -1.1907  0.5285  0.3588
  183MOL   H11929603   5.952   2.296   6.304  0.7958 -0.5543  1.5828
  183MOL   H12029604   5.914   2.073   6.447 -0.1707 -0.4236 -0.1793
  183MOL   H12129605   5.885   2.210   6.521  0.1845  0.1041 -0.0591
  183MOL   C12229606   5.909   2.111   6.194  0.1661  0.2308  0.0170
  183MOL   C12329607   6.049   2.039   6.224 -0.3533  0.0208 -0.2176
  183MOL   N12429608   6.024   1.909   6.265 -0.2133 -0.6444 -0.0739
  183MOL   H12529609   5.837   2.029   6.186  0.5469 -0.5071  3.1601
  183MOL   H12629610   5.908   2.167   6.101  1.5184  0.0591 -0.1063
  183MOL   H12729611   6.106   2.093   6.300 -1.3935  0.7901  0.0365
  183MOL   H12829612   5.947   1.911   6.330 -0.3783  1.0359 -0.2992
  183MOL   H12929613   5.994   1.852   6.187 -0.3949 -1.2176  0.4107
  183MOL   C13029614   6.154   2.046   6.110 -0.6631 -0.4757  0.2335
  183MOL   C13129615   6.233   2.172   6.093 -0.3213 -0.5891 -0.3371
  183MOL   N13229616   6.323   2.202   6.203 -0.9113  0.2336 -0.7639
  183MOL   H13329617   6.230   1.968   6.124  0.2718  0.0515 -1.6311
  183MOL   H13429618   6.101   2.030   6.016  1.0485  0.4629 -0.9264
  183MOL   H13529619   6.157   2.251   6.091 -0.8149 -1.0368  0.5026
  183MOL   H13629620   6.418   2.199   6.168 -0.4144  1.3494  0.4622
  183MOL   H13729621   6.332   2.123   6.266  1.2202  1.3149  0.3481
  183MOL   C13829622   6.315   2.191   5.964  0.5424 -0.2254 -0.5187
  183MOL   C13929623   6.233   2.232   5.840 -0.0372 -0.7660 -0.5176
  183MOL   N14029624   6.249   2.372   5.823  0.3325  0.1805 -0.1223
  183MOL   H14129625   6.386   2.270   5.990 -2.3025  2.3438 -0.2234
  183MOL   H14229626   6.366   2.097   5.947 -0.5102 -0.9109  0.0485
  183MOL   H14329627   6.126   2.223   5.856 -0.5586  2.6667 -1.6897
  183MOL   H14429628   6.223   2.422   5.907  1.5560 -3.3696  2.5019
  183MOL   H14529629   6.164   2.385   5.770 -0.2275 -2.5275  0.0285
  183MOL   C14629630   6.278   2.167   5.713 -0.1100  0.4802  0.2698
  183MOL   C14729631   6.228   2.022   5.706  0.0210 -0.1885 -0.9438
  183MOL   N14829632   6.076   2.029   5.695  0.0659  0.4427  0.4507
  183MOL   H14929633   6.255   2.222   5.621 -1.7638  0.5194  0.6816
  183MOL   H15029634   6.386   2.166   5.722 -0.2748 -0.0570  2.5275
  183MOL   H15129635   6.254   1.982   5.804 -0.4818  0.1826 -0.6587
  183MOL   H15229636   6.051   1.931   5.703 -0.1356  0.3779 -0.9402
  183MOL   H15329637   6.066   2.053   5.598 -0.5734  1.3080  0.7281
  183MOL   C15429638   6.275   1.951   5.583 -0.2045  0.0564  0.8738
  183MOL   C15529639   6.423   1.930   5.572 -1.0933 -0.0248 -0.0695
  183MOL   N15629640   6.449   1.822   5.481 -0.5375 -0.0416 -0.3567
  183MOL   H15729641   6.229   1.854   5.605  1.1553 -0.8805 -0.3033
  183MOL   H15829642   6.235   1.992   5.491  1.4791  0.7684  0.4389
  183MOL   H15929643   6.458   1.898   5.670 -1.9658  2.5656  1.1275
  183MOL   H16029644   6.409   1.834   5.388 -0.2493  1.0132 -0.3438
  183MOL   H16129645   6.549   1.808   5.484 -0.0937  2.8419 -0.5350
  183MOL   H16229646   6.467   2.023   5.538  0.6524 -1.3157 -1.4023
  184MOL     C129647   2.172   6.999   2.045 -0.0005 -0.9427  0.7154
  184MOL     C229648   2.162   7.147   2.020 -0.1841 -0.2022  0.2470
  184MOL     N329649   2.305   7.180   2.000 -0.2550  0.1063  0.1735
  184MOL     H429650   2.080   6.953   2.082 -2.3113  1.6145 -1.5911
  184MOL     H529651   2.241   6.971   2.124 -1.1127  0.5707  2.2425
  184MOL     H629652   2.121   7.211   2.099  0.8255  2.1908 -1.1287
  184MOL     H729653   2.302   0.005   2.005 -2.6435  0.0553  0.5277
  184MOL     H829654   2.359   7.159   2.084 -0.8844 -1.6336  0.1765
  184MOL     H929655   2.183   6.951   1.948  1.4863 -1.1315  0.9705
  184MOL    C1029656   2.079   7.182   1.899  0.9429 -0.4813 -0.7666
  184MOL    C1129657   1.937   7.136   1.910  0.3376  0.2830  0.0419
  184MOL    N1229658   1.844   7.238   1.880 -0.2454  0.1202 -0.2031
  184MOL    H1329659   2.074   0.013   1.876  1.2939 -0.1977  0.4692
  184MOL    H1429660   2.135   7.135   1.818 -0.2365 -0.4098 -1.6400
  184MOL    H1529661   1.936   7.100   2.013  1.4977  1.4785  0.4794
  184MOL    H1629662   1.753   7.198   1.859 -0.4977  0.5759 -0.0016
  184MOL    H1729663   1.882   7.270   1.792 -0.0210 -1.0024 -0.5267
  184MOL    C1829664   1.908   7.002   1.836  0.5299 -0.0301  0.4133
  184MOL    C1929665   1.809   6.894   1.906 -0.0619  0.4849  0.5388
  184MOL    N2029666   1.674   6.944   1.915 -0.0483  0.4080  0.2824
  184MOL    H2129667   1.869   7.023   1.737  0.3452  0.2248  0.5409
  184MOL    H2229668   2.007   6.959   1.821  2.3143  2.7831  3.4501
  184MOL    H2329669   1.846   6.880   2.008 -0.8487 -0.4435  0.7060
  184MOL    H2429670   1.641   6.980   1.826 -0.3491  0.2760  0.3426
  184MOL    H2529671   1.675   7.026   1.975  0.5907 -0.6755  1.7935
  184MOL    C2629672   1.808   6.757   1.839  0.5432 -0.1925  0.6343
  184MOL    C2729673   1.886   6.646   1.908 -0.2652  0.0906 -0.3137
  184MOL    N2829674   1.882   6.526   1.824  0.5356 -1.0159  0.3797
  184MOL    H2929675   1.707   6.717   1.830  0.8170 -0.8637  0.5557
  184MOL    H3029676   1.849   6.757   1.739  1.0774  0.3678  0.8483
  184MOL    H3129677   1.833   6.618   1.999 -1.0066 -2.0465 -1.3750
  184MOL    H3229678   1.940   6.455   1.868  1.0842 -0.7197  0.1359
  184MOL    H3329679   1.937   6.555   1.745 -0.9024 -0.9991 -0.6269
  184MOL    C3429680   2.031   6.676   1.947 -0.2272 -0.5846  0.0415
  184MOL    C3529681   2.084   6.629   2.086  1.0527  0.4332  0.4813
  184MOL    N3629682   2.224   6.649   2.101  0.9049 -0.8790  0.3832
  184MOL    H3729683   2.094   6.613   1.884 -0.9537  0.0774 -1.3429
  184MOL    H3829684   2.054   6.781   1.929  2.5696 -0.9136  1.4023
  184MOL    H3929685   2.073   6.520   2.087 -0.1138  0.5522  1.4025
  184MOL    H4029686   2.267   6.633   2.191  2.8805  2.7947  0.1729
  184MOL    H4129687   2.273   6.590   2.035 -1.5459 -2.1328 -0.3945
  184MOL    C4229688   1.997   6.682   2.203 -0.0583 -0.2668 -0.3159
  184MOL    C4329689   1.969   6.575   2.315  0.5838 -0.0857 -0.4030
  184MOL    N4429690   1.934   6.645   2.433 -0.0874  0.0751 -0.0872
  184MOL    H4529691   2.046   6.769   2.246 -0.5929  0.0951 -0.4321
  184MOL    H4629692   1.903   6.723   2.167  1.4178  1.0758 -2.8578
  184MOL    H4729693   2.063   6.519   2.324 -1.0961 -3.0681 -0.6520
  184MOL    H4829694   1.955   6.587   2.513 -1.2303 -0.6313 -0.2805
  184MOL    H4929695   1.983   6.732   2.444 -0.1910  0.3574 -1.7153
  184MOL    C5029696   1.849   6.482   2.282  0.4743 -0.4445  0.4262
  184MOL    C5129697   1.856   6.337   2.343 -0.3240  0.0023  0.2154
  184MOL    N5229698   1.733   6.264   2.322 -0.2051  0.1253 -0.2785
  184MOL    H5329699   1.749   6.519   2.302 -0.4355 -1.4947 -1.9697
  184MOL    H5429700   1.859   6.461   2.176  0.6567 -1.9638  0.7304
  184MOL    H5529701   1.864   6.339   2.452 -0.4798 -3.1872  0.3155
  184MOL    H5629702   1.663   6.310   2.377 -0.0527  1.7010 -1.3567
  184MOL    H5729703   1.734   6.167   2.351 -1.0175 -0.1858 -1.2557
  184MOL    C5829704   1.967   6.242   2.299  0.4565 -0.6313 -0.3465
  184MOL    C5929705   2.065   6.202   2.413 -0.1309  0.5679 -0.3359
  184MOL    N6029706   1.998   6.126   2.517  0.2745 -0.8141  0.0152
  184MOL    H6129707   1.939   6.156   2.238 -0.1031 -0.2719 -0.5996
  184MOL    H6229708   2.024   6.302   2.228  0.2240  0.8622  0.6973
  184MOL    H6329709   2.092   6.296   2.463 -0.5661  0.6905 -0.3266
  184MOL    H6429710   2.066   6.098   2.586  1.2905  0.6285 -0.3810
  184MOL    H6529711   1.935   6.191   2.562  2.5078  1.2264  0.3081
  184MOL    C6629712   2.184   6.121   2.361 -0.4966  0.1251 -0.1431
  184MOL    C6729713   2.295   6.180   2.266 -0.9415  0.1865 -0.1250
  184MOL    N6829714   2.361   6.284   2.339 -0.3379 -0.2313 -0.1053
  184MOL    H6929715   2.235   6.083   2.450  1.0064 -0.9064 -1.4297
  184MOL    H7029716   2.145   6.034   2.307 -0.9484  0.5419 -0.4929
  184MOL    H7129717   2.246   6.217   2.176  0.3063  0.6209 -0.6380
  184MOL    H7229718   2.364   6.264   2.438  0.6904 -0.9543 -0.2784
  184MOL    H7329719   2.451   6.245   2.314  0.8484  2.0890  0.4296
  184MOL    C7429720   2.398   6.067   2.236 -0.7625 -0.0917 -0.2798
  184MOL    C7529721   2.507   6.118   2.139  0.3002  0.6624  0.0949
  184MOL    N7629722   2.605   6.196   2.219  0.3957  0.1593  0.4167
  184MOL    H7729723   2.435   6.026   2.330 -0.6500 -1.9794 -1.1280
  184MOL    H7829724   2.348   5.997   2.169  1.1316 -0.3335 -1.4705
  184MOL    H7929725   2.445   6.172   2.068 -0.7732 -2.1823 -1.1965
  184MOL    H8029726   2.586   6.290   2.186  0.3298  0.4107  1.1796
  184MOL    H8129727   2.702   6.187   2.194  0.2658  0.4137 -0.1951
  184MOL    C8229728   2.575   6.005   2.060 -0.6749  0.1007  0.4534
  184MOL    C8329729   2.494   5.932   1.944 -0.1455  0.1969 -0.3174
  184MOL    N8429730   2.482   6.023   1.830 -0.8848  0.3825  0.1406
  184MOL    H8529731   2.666   6.037   2.009  0.6681 -2.5160  1.0757
  184MOL    H8629732   2.609   5.925   2.126 -0.4334  0.2293  0.4867
  184MOL    H8729733   2.390   5.914   1.969 -0.2342  1.0243 -0.0715
  184MOL    H8829734   2.577   6.041   1.799 -1.3664  1.8975 -0.5187
  184MOL    H8929735   2.445   5.964   1.757  0.4582 -0.9438  0.5158
  184MOL    C9029736   2.563   5.806   1.909 -0.2449  0.1430 -0.6522
  184MOL    C9129737   2.477   5.702   1.829  0.1758  0.0476 -0.3797
  184MOL    N9229738   2.483   5.741   1.688  0.3440  0.2990 -0.7010
  184MOL    H9329739   2.657   5.823   1.856  0.4516  0.2245  0.5817
  184MOL    H9429740   2.608   5.752   1.993  0.3188  1.2318 -0.2500
  184MOL    H9529741   2.371   5.695   1.856  0.3727 -3.0279 -0.2872
  184MOL    H9629742   2.448   5.680   1.615  1.0600 -1.1367  0.1361
  184MOL    H9729743   2.582   5.743   1.667  0.2452 -0.0431 -1.2213
  184MOL    C9829744   2.526   5.561   1.832 -0.2850 -0.3271 -0.8108
  184MOL    C9929745   2.492   5.481   1.962  0.8955  0.2502 -0.0799
  184MOL   N10029746   2.520   5.339   1.934  0.2102 -0.3869  0.1502
  184MOL   H10129747   2.478   5.508   1.750  1.7305  1.0682 -2.9320
  184MOL   H10229748   2.632   5.549   1.808 -0.2038 -1.0122 -0.1306
  184MOL   H10329749   2.384   5.491   1.973  1.0105  1.8256 -0.2740
  184MOL   H10429750   2.494   5.292   2.019  1.5917 -1.9982 -0.2982
  184MOL   H10529751   2.619   5.321   1.935  0.1706 -0.6664 -0.7126
  184MOL   C10629752   2.562   5.528   2.095  0.1546  0.4713  0.2387
  184MOL   C10729753   2.557   5.430   2.213  0.3998 -1.3759  0.6161
  184MOL   N10829754   2.691   5.380   2.245  0.5005 -0.2107  0.2108
  184MOL   H10929755   2.667   5.553   2.078 -0.3228  1.3574 -1.5326
  184MOL   H11029756   2.514   5.622   2.122  0.8678  0.5382  1.2651
  184MOL   H11129757   2.512   5.335   2.187  2.8562 -2.1902 -0.7479
  184MOL   H11229758   2.678   5.305   2.311 -2.8339  0.7615  0.7925
  184MOL   H11329759   2.737   5.336   2.166  2.0995  0.1309  0.9428
  184MOL   C11429760   2.493   5.495   2.335  0.1290  0.5933  0.6566
  184MOL   C11529761   2.341   5.498   2.328  0.4279  0.2286  0.2333
  184MOL   N11629762   2.274   5.378   2.386 -0.0700  0.2293 -0.2332
  184MOL   H11729763   2.514   5.436   2.425 -1.6771 -1.5637 -0.2754
  184MOL   H11829764   2.522   5.599   2.350  0.0763  0.6032  0.6880
  184MOL   H11929765   2.321   5.497   2.221 -1.0144  2.3823  0.4399
  184MOL   H12029766   2.319   5.292   2.357  0.4183  0.6889 -0.8699
  184MOL   H12129767   2.185   5.361   2.342  0.2486 -0.6024 -0.5600
  184MOL   C12229768   2.269   5.617   2.376  0.0284 -0.3053  0.1037
  184MOL   C12329769   2.139   5.658   2.297 -0.2407  0.3797  0.0932
  184MOL   N12429770   2.065   5.751   2.376 -0.4692  0.0781  0.2304
  184MOL   H12529771   2.235   5.592   2.477  0.8197 -1.8730 -0.0085
  184MOL   H12629772   2.330   5.706   2.393 -0.1618 -0.2696  0.6168
  184MOL   H12729773   2.073   5.572   2.290 -0.5981  0.5562  1.1547
  184MOL   H12829774   2.040   5.704   2.462 -0.4534 -3.0981 -1.4542
  184MOL   H12929775   1.980   5.785   2.333 -0.7905 -0.0425  0.7645
  184MOL   C13029776   2.180   5.713   2.159 -0.5181 -0.2343  0.4656
  184MOL   C13129777   2.077   5.693   2.043 -1.0463 -0.0051 -0.5928
  184MOL   N13229778   2.083   5.555   2.012  0.1461  0.4644 -0.3840
  184MOL   H13329779   2.201   5.818   2.178  2.1682 -0.8515  1.1311
  184MOL   H13429780   2.276   5.675   2.125 -1.6569 -1.4859 -1.4858
  184MOL   H13529781   2.110   5.751   1.957 -1.9342 -0.8190 -1.4988
  184MOL   H13629782   2.177   5.519   2.025 -0.5718 -0.9554  1.0324
  184MOL   H13729783   2.070   5.533   1.915  1.7202  0.3309 -0.5854
  184MOL   C13829784   1.927   5.726   2.080  0.3320 -0.3004  0.2225
  184MOL   C13929785   1.897   5.872   2.117  0.5393 -0.5188 -0.3496
  184MOL   N14029786   1.911   5.956   1.999 -0.2495 -0.3734  0.1752
  184MOL   H14129787   1.863   5.695   1.997  0.5209 -1.7447  0.5916
  184MOL   H14229788   1.893   5.654   2.155  0.8016  0.9103  1.6141
  184MOL   H14329789   1.954   5.910   2.202 -0.4453  0.3160 -0.0460
  184MOL   H14429790   2.008   5.982   2.008 -0.3298  0.1067 -0.3565
  184MOL   H14529791   1.861   6.043   2.002 -1.0202 -0.7380 -1.6159
  184MOL   C14629792   1.751   5.897   2.155  0.8154 -0.3271  0.6971
  184MOL   C14729793   1.714   5.847   2.301 -0.1920 -0.7319  0.6988
  184MOL   N14829794   1.757   5.947   2.396  0.3525 -0.8970  0.5354
  184MOL   H14929795   1.717   5.998   2.133 -0.7849 -1.1780 -0.8746
  184MOL   H15029796   1.691   5.825   2.099  2.3876 -1.7819  0.8259
  184MOL   H15129797   1.773   5.757   2.320 -0.4691 -0.7985  1.2857
  184MOL   H15229798   1.855   5.965   2.407  0.5730 -0.7930 -1.3482
  184MOL   H15329799   1.715   5.924   2.485 -1.4017 -0.6070 -0.1917
  184MOL   C15429800   1.557   5.841   2.307 -0.5490  0.5862 -0.2090
  184MOL   C15529801   1.499   5.694   2.271  0.0003  0.2037  0.4355
  184MOL   N15629802   1.359   5.693   2.296  0.7878  0.0740 -0.3691
  184MOL   H15729803   1.517   5.869   2.405  2.0371  0.3097  0.9581
  184MOL   H15829804   1.521   5.915   2.235 -1.5535 -0.0397 -0.3582
  184MOL   H15929805   1.541   5.610   2.327  2.2470  1.3103  0.4802
  184MOL   H16029806   1.346   5.680   2.395 -1.8383 -1.1107 -0.8339
  184MOL   H16129807   1.303   5.773   2.271 -0.6723 -0.7200  0.2954
  184MOL   H16229808   1.513   5.686   2.163 -0.1445 -0.6270  0.4712
  185MOL     C129809   3.430   3.816   2.993 -0.4560 -0.0021  0.4312
  185MOL     C229810   3.329   3.925   2.998  0.1223 -0.2115 -1.0195
  185MOL     N329811   3.382   4.055   3.025 -0.8004 -0.0455 -0.1698
  185MOL     H429812   3.499   3.853   2.917  0.0420  0.0273  0.8940
  185MOL     H529813   3.385   3.722   2.961  0.2012  0.2651 -1.3197
  185MOL     H629814   3.261   3.904   3.080 -0.2073  0.5454 -1.0877
  185MOL     H729815   3.321   4.120   2.977 -0.3978  0.7118  0.3361
  185MOL     H829816   3.373   4.069   3.125 -0.9196  1.4539 -0.3823
  185MOL     H929817   3.487   3.804   3.085  0.4425 -0.9521 -0.2369
  185MOL    C1029818   3.227   3.936   2.876 -0.0084 -0.9206  0.5096
  185MOL    C1129819   3.149   3.807   2.835  0.0039 -0.7215  0.5854
  185MOL    N1229820   3.094   3.746   2.949 -0.3330  0.1790 -0.4770
  185MOL    H1329821   3.146   4.008   2.894 -0.7624 -1.8209  0.7423
  185MOL    H1429822   3.276   3.978   2.788 -0.1123  1.5410  1.5797
  185MOL    H1529823   3.217   3.735   2.792 -1.2577 -0.8650 -1.2076
  185MOL    H1629824   3.172   3.730   3.013  0.6588 -0.5678 -1.8500
  185MOL    H1729825   3.047   3.658   2.936  0.0695 -0.3695  1.4915
  185MOL    C1829826   3.036   3.843   2.744  0.4980  0.3375 -0.4046
  185MOL    C1929827   3.036   3.773   2.607 -0.2327 -0.3445 -0.8220
  185MOL    N2029828   2.915   3.815   2.547 -0.4176  0.0046 -0.3682
  185MOL    H2129829   2.939   3.850   2.794  0.0948  1.2811 -1.2888
  185MOL    H2229830   3.050   3.945   2.710  0.8203 -1.1755 -5.1528
  185MOL    H2329831   3.035   3.664   2.618  1.3995 -0.0090  3.8047
  185MOL    H2429832   2.905   3.778   2.454 -1.6749 -1.0383  0.1520
  185MOL    H2529833   2.844   3.767   2.602  1.0735 -1.8437 -0.0187
  185MOL    C2629834   3.147   3.813   2.505 -0.2200  0.2774 -0.1066
  185MOL    C2729835   3.271   3.721   2.507 -0.7715 -0.6213  0.1154
  185MOL    N2829836   3.296   3.669   2.372 -0.3967 -0.7519 -0.3621
  185MOL    H2929837   3.106   3.829   2.405  1.3965  0.4860 -0.7462
  185MOL    H3029838   3.175   3.918   2.517 -2.1813  0.7335  0.8390
  185MOL    H3129839   3.256   3.635   2.573 -3.4524 -0.4890 -0.2466
  185MOL    H3229840   3.208   3.639   2.331 -0.7996  1.0612 -0.8871
  185MOL    H3329841   3.359   3.591   2.363 -1.0531 -1.3539  0.1913
  185MOL    C3429842   3.406   3.783   2.555 -0.3497  0.3682  0.6721
  185MOL    C3529843   3.518   3.683   2.583 -0.1287 -0.0469  0.4725
  185MOL    N3629844   3.638   3.763   2.617  0.2202 -0.0304 -0.5039
  185MOL    H3729845   3.426   3.852   2.472 -3.1880  0.4678 -0.0061
  185MOL    H3829846   3.373   3.831   2.648  0.4004 -0.3476  1.3050
  185MOL    H3929847   3.532   3.636   2.486 -0.6245 -1.2673  0.9877
  185MOL    H4029848   3.630   3.793   2.713  1.8818 -0.9764 -0.0576
  185MOL    H4129849   3.716   3.699   2.616  0.2665 -0.0589  1.8070
  185MOL    C4229850   3.501   3.583   2.700  0.1460 -0.6449 -0.0046
  185MOL    C4329851   3.621   3.486   2.716 -0.1858 -0.6013 -0.1224
  185MOL    N4429852   3.579   3.384   2.815  0.0549  0.5892  0.1706
  185MOL    H4529853   3.486   3.633   2.796  0.6027 -1.4315  0.4768
  185MOL    H4629854   3.414   3.520   2.684 -0.5109 -0.6617  3.3977
  185MOL    H4729855   3.701   3.551   2.749 -1.6101 -0.8878  4.3064
  185MOL    H4829856   3.656   3.354   2.873  1.4398  0.5084 -1.6475
  185MOL    H4929857   3.556   3.294   2.774 -1.3503  0.3431  1.4750
  185MOL    C5029858   3.665   3.403   2.589  0.1205 -0.8536 -0.5245
  185MOL    C5129859   3.800   3.332   2.593 -0.8901  0.4902  0.3855
  185MOL    N5229860   3.778   3.206   2.665  0.2247  0.1620 -0.2506
  185MOL    H5329861   3.582   3.341   2.556 -1.4157  0.6096  0.4990
  185MOL    H5429862   3.688   3.480   2.516 -0.1554 -1.5031 -1.3005
  185MOL    H5529863   3.877   3.395   2.636  0.9207 -2.4836  1.6470
  185MOL    H5629864   3.799   3.221   2.763  2.9853  0.1269 -0.8055
  185MOL    H5729865   3.855   3.146   2.641 -1.5050 -1.3907 -2.1424
  185MOL    C5829866   3.853   3.297   2.451  0.4668  0.0751  0.4481
  185MOL    C5929867   3.942   3.405   2.385  0.2305  1.3073 -1.0626
  185MOL    N6029868   4.058   3.333   2.339 -0.0920 -0.4189  0.0337
  185MOL    H6129869   3.901   3.199   2.447  2.5222  1.0393  0.8749
  185MOL    H6229870   3.763   3.277   2.393  0.7462 -0.8851  0.3302
  185MOL    H6329871   3.987   3.467   2.462 -0.1532 -1.0086  1.0762
  185MOL    H6429872   4.045   3.297   2.246  1.4386  1.5306 -0.9757
  185MOL    H6529873   4.068   3.251   2.397  1.6478  0.3494  0.8492
  185MOL    C6629874   3.865   3.470   2.276  0.7372 -0.0009  0.5939
  185MOL    C6729875   3.922   3.597   2.236 -0.2693 -0.0903 -0.3435
  185MOL    N6829876   4.038   3.568   2.156  0.2490 -0.1597 -0.2618
  185MOL    H6929877   3.850   3.401   2.193 -0.1743  1.1785 -0.2452
  185MOL    H7029878   3.758   3.482   2.295  0.2292  0.0743 -2.0704
  185MOL    H7129879   3.968   3.655   2.315  1.0489 -1.1453 -0.3280
  185MOL    H7229880   4.094   3.507   2.213  0.1766 -0.8661 -0.9313
  185MOL    H7329881   4.015   3.501   2.084 -0.6030  1.4238 -1.4848
  185MOL    C7429882   3.825   3.691   2.171  0.2572  0.0933  0.1726
  185MOL    C7529883   3.705   3.748   2.252  0.8079  0.4008  0.4579
  185MOL    N7629884   3.742   3.850   2.349  0.2108  0.3746  0.2215
  185MOL    H7729885   3.891   3.770   2.136 -0.8382  1.5594  1.3600
  185MOL    H7829886   3.792   3.640   2.080 -2.5730  0.1795  1.1174
  185MOL    H7929887   3.660   3.664   2.305  0.9552  0.7670  1.1649
  185MOL    H8029888   3.672   3.866   2.420 -0.5958  0.3784 -0.5524
  185MOL    H8129889   3.757   3.942   2.311  1.6986 -1.1026 -3.0134
  185MOL    C8229890   3.588   3.817   2.165 -0.1227  0.4559 -0.4901
  185MOL    C8329891   3.508   3.722   2.079 -0.1416  0.1019 -0.0439
  185MOL    N8429892   3.363   3.762   2.094  0.0352  0.7356 -0.3056
  185MOL    H8529893   3.523   3.860   2.242  0.2535 -1.8224  1.1582
  185MOL    H8629894   3.615   3.909   2.114 -2.3524  1.1737 -0.4322
  185MOL    H8729895   3.526   3.621   2.116 -0.8001  0.4147  1.1446
  185MOL    H8829896   3.346   3.779   2.192 -0.9300  0.6976 -0.4678
  185MOL    H8929897   3.307   3.681   2.074  1.0014  0.1079 -0.5415
  185MOL    C9029898   3.548   3.711   1.930  0.3878 -0.1319 -0.6983
  185MOL    C9129899   3.452   3.615   1.840  0.2036  0.4314 -0.2352
  185MOL    N9229900   3.514   3.621   1.712 -0.2516  0.0468  1.3686
  185MOL    H9329901   3.548   3.814   1.892 -1.0422  1.2382  2.7577
  185MOL    H9429902   3.646   3.663   1.932  0.5127  0.0288 -2.2413
  185MOL    H9529903   3.355   3.660   1.820  0.1969  0.2980 -0.5082
  185MOL    H9629904   3.458   3.582   1.638  1.7636 -0.4490  0.0774
  185MOL    H9729905   3.514   3.721   1.695  1.0660  0.4493  3.4473
  185MOL    C9829906   3.440   3.465   1.886  0.2827  0.1615 -0.2490
  185MOL    C9929907   3.341   3.423   2.001 -0.4785 -0.0876  0.5063
  185MOL   N10029908   3.212   3.408   1.939 -0.0229  0.4874 -0.2162
  185MOL   H10129909   3.407   3.399   1.806 -0.3558  0.0264  0.1211
  185MOL   H10229910   3.535   3.427   1.922  0.1398 -0.1836 -0.2427
  185MOL   H10329911   3.337   3.502   2.075  2.3299  0.9064 -0.3323
  185MOL   H10429912   3.188   3.479   1.871 -3.4970 -0.1459  0.2377
  185MOL   H10529913   3.216   3.334   1.870  4.2199 -0.6011  1.0340
  185MOL   C10629914   3.369   3.303   2.084  0.7569 -0.6130  0.7837
  185MOL   C10729915   3.495   3.312   2.177  0.0553 -0.0069  0.8863
  185MOL   N10829916   3.459   3.383   2.303  0.6177 -0.2390 -0.4571
  185MOL   H10929917   3.281   3.278   2.143  0.3774  2.2113  1.4957
  185MOL   H11029918   3.392   3.222   2.015  1.9667 -0.0991  0.5612
  185MOL   H11129919   3.585   3.355   2.133  0.4603  1.6174  3.2186
  185MOL   H11229920   3.525   3.347   2.370  0.6365  1.6157  0.5495
  185MOL   H11329921   3.370   3.343   2.329  1.3179 -1.9336 -0.6205
  185MOL   C11429922   3.547   3.170   2.202 -0.2160 -0.3872 -0.1497
  185MOL   C11529923   3.619   3.102   2.080 -0.0078  0.0919  0.4818
  185MOL   N11629924   3.761   3.150   2.076  0.5030  0.3199 -0.3478
  185MOL   H11729925   3.604   3.179   2.295 -0.8357  0.5312  0.1466
  185MOL   H11829926   3.458   3.109   2.216  0.6433 -1.2854  1.5940
  185MOL   H11929927   3.575   3.117   1.981  2.6988  1.6338 -0.5135
  185MOL   H12029928   3.812   3.140   2.163 -1.0410 -1.4477  0.3971
  185MOL   H12129929   3.812   3.087   2.016 -1.9595  0.0906 -2.3219
  185MOL   C12229930   3.633   2.947   2.104 -0.0168 -0.3834  0.0863
  185MOL   C12329931   3.509   2.861   2.074 -0.0518 -0.1880 -0.1036
  185MOL   N12429932   3.513   2.810   1.939  0.5014  0.1531 -0.3884
  185MOL   H12529933   3.712   2.910   2.040  0.1508  2.2251 -1.2792
  185MOL   H12629934   3.668   2.934   2.207  0.4815  1.2822  0.1373
  185MOL   H12729935   3.427   2.930   2.091 -0.6001 -0.6634 -0.7855
  185MOL   H12829936   3.579   2.734   1.950  0.4975  0.3002  0.6809
  185MOL   H12929937   3.431   2.762   1.906 -1.1118  2.0588  0.7483
  185MOL   C13029938   3.498   2.742   2.170  0.1722 -0.6819  0.2532
  185MOL   C13129939   3.483   2.773   2.324 -0.0678 -0.7241  0.1706
  185MOL   N13229940   3.339   2.753   2.361 -0.0569  0.3200  0.2711
  185MOL   H13329941   3.417   2.677   2.135 -0.6691  1.4097 -1.7997
  185MOL   H13429942   3.591   2.685   2.169 -0.0796 -1.1309  1.7585
  185MOL   H13529943   3.496   2.877   2.353  2.4205 -1.3249  1.3174
  185MOL   H13629944   3.322   2.758   2.460  1.1339 -0.0112  0.4988
  185MOL   H13729945   3.292   2.833   2.319 -1.9008 -1.7433 -1.7925
  185MOL   C13829946   3.559   2.683   2.425 -0.0391 -0.1117 -0.0302
  185MOL   C13929947   3.711   2.711   2.446 -0.4818  0.5252  0.4266
  185MOL   N14029948   3.737   2.818   2.540 -0.1548  0.1658 -0.1997
  185MOL   H14129949   3.511   2.684   2.523 -0.0730 -1.9691 -0.0211
  185MOL   H14229950   3.547   2.582   2.386  0.5644 -0.4951  0.7686
  185MOL   H14329951   3.774   2.734   2.359  0.5257  2.6175  1.6715
  185MOL   H14429952   3.673   2.813   2.619 -0.6898  1.2176 -0.5576
  185MOL   H14529953   3.692   2.904   2.511 -2.8131 -0.9028  0.5734
  185MOL   C14629954   3.764   2.580   2.507  0.9637  0.5852  0.6515
  185MOL   C14729955   3.799   2.463   2.412 -0.7471  0.1341 -0.8239
  185MOL   N14829956   3.886   2.498   2.308  0.3460 -0.1020 -0.1614
  185MOL   H14929957   3.859   2.593   2.558  1.7715 -1.5172 -0.2615
  185MOL   H15029958   3.690   2.555   2.583 -0.8865  0.3434 -1.1675
  185MOL   H15129959   3.710   2.427   2.359 -1.3127  0.9364 -0.4265
  185MOL   H15229960   3.904   2.430   2.235 -3.4526 -0.8805 -0.5082
  185MOL   H15329961   3.845   2.574   2.257 -0.1162 -0.4231 -0.2719
  185MOL   C15429962   3.866   2.345   2.490  0.2610  0.4880 -0.0604
  185MOL   C15529963   3.808   2.309   2.620 -0.2582 -0.0143 -0.8571
  185MOL   N15629964   3.884   2.201   2.682  0.3193  0.3923 -0.3059
  185MOL   H15729965   3.880   2.257   2.427  1.8871  0.5273  0.2123
  185MOL   H15829966   3.971   2.369   2.511  0.6185 -0.9299 -0.1657
  185MOL   H15929967   3.703   2.286   2.602  0.0109 -0.3827 -1.9691
  185MOL   H16029968   3.900   2.119   2.625  0.7666  0.2532  0.0176
  185MOL   H16129969   3.849   2.176   2.774 -3.1389  0.6655 -1.4632
  185MOL   H16229970   3.811   2.397   2.685  1.0445  0.4587 -1.5546
  186MOL     C129971   6.613   1.122   5.546  0.3087 -0.5848  0.6123
  186MOL     C229972   6.704   1.248   5.566 -0.3585 -0.0973  1.1123
  186MOL     N329973   6.633   1.335   5.653  0.7927  0.0225  0.3298
  186MOL     H429974   6.662   1.057   5.473  0.2600  0.7710 -0.6367
  186MOL     H529975   6.516   1.146   5.504  0.8469  1.3508  0.4455
  186MOL     H629976   6.726   1.292   5.469  0.0985  1.1814  1.7855
  186MOL     H729977   6.650   1.431   5.627  1.1963 -0.6885 -2.1454
  186MOL     H829978   6.536   1.329   5.628  0.2574  3.4147  1.4173
  186MOL     H929979   6.602   1.054   5.631 -1.5383 -0.8679  0.1731
  186MOL    C1029980   6.848   1.209   5.622  0.0531 -0.1643  0.0898
  186MOL    C1129981   6.928   1.124   5.525 -0.0894 -0.6529 -0.1062
  186MOL    N1229982   6.975   1.209   5.413 -0.4704 -0.1887 -0.1748
  186MOL    H1329983   6.905   1.301   5.635 -1.6045  0.5866  2.3301
  186MOL    H1429984   6.838   1.164   5.720 -0.7838 -2.1407 -0.8752
  186MOL    H1529985   6.876   1.033   5.494 -1.5239  0.3573 -0.7095
  186MOL    H1629986   6.892   1.247   5.368 -0.5762 -0.3720 -0.1335
  186MOL    H1729987   7.034   1.158   5.350 -1.0680 -1.8309  0.5526
  186MOL    C1829988   7.060   1.067   5.580  0.1954  0.4046  1.1774
  186MOL    C1929989   7.070   0.959   5.689  0.4554 -0.1735  0.4831
  186MOL    N2029990   7.014   0.836   5.643 -0.1924  0.2438  0.1041
  186MOL    H2129991   7.130   1.033   5.504  0.2309  1.7281  0.5991
  186MOL    H2229992   7.108   1.152   5.630  1.2422  1.2862 -1.2281
  186MOL    H2329993   7.010   0.986   5.777 -0.4824  0.6974 -0.4032
  186MOL    H2429994   6.914   0.847   5.638 -0.2249  0.1711  0.5764
  186MOL    H2529995   7.023   0.781   5.727  0.5350  0.1756 -0.0088
  186MOL    C2629996   7.204   0.924   5.760 -0.0687  0.2979  0.0141
  186MOL    C2729997   7.257   1.034   5.851  0.6125 -0.4327 -0.2894
  186MOL    N2829998   7.198   1.018   5.987  0.7301  0.2734 -0.3299
  186MOL    H2929999   7.186   0.835   5.820 -0.2554  0.7735  0.6746
  186MOL    H3030000   0.005   0.891   5.690  0.8536  1.8290  0.2671
  186MOL    H3130001   7.219   1.134   5.827  1.0231 -0.2653 -0.2523
  186MOL    H3230002   7.227   0.931   6.029 -0.9366  0.2082  0.7243
  186MOL    H3330003   7.098   1.004   5.986  0.3612  2.3312  2.0825
  186MOL    C3430004   0.138   1.035   5.851 -0.3454  0.0525  0.3569
  186MOL    C3530005   0.189   1.129   5.735  0.4280 -0.0617 -0.2965
  186MOL    N3630006   0.168   1.274   5.767 -0.9311  0.1219  0.5598
  186MOL    H3730007   0.181   1.074   5.943  1.4342  0.2701 -0.5470
  186MOL    H3830008   0.184   0.937   5.841  1.5052  0.7647  1.7280
  186MOL    H3930009   0.132   1.104   5.646  0.0226  0.6502 -0.2421
  186MOL    H4030010   0.128   1.320   5.686 -2.8006  1.9731  2.4735
  186MOL    H4130011   0.095   1.287   5.835 -1.0986 -1.9168  0.7956
  186MOL    C4230012   0.337   1.121   5.698 -0.5299 -0.1343  0.5856
  186MOL    C4330013   0.368   0.998   5.608  0.0994  0.0312 -0.2025
  186MOL    N4430014   0.362   1.036   5.466 -0.4837  0.7177  0.2177
  186MOL    H4530015   0.348   1.221   5.656 -1.6368 -0.8735 -1.5051
  186MOL    H4630016   0.396   1.111   5.790  0.4589 -2.1556 -0.2161
  186MOL    H4730017   0.284   0.932   5.627 -1.4104  1.5720 -1.2971
  186MOL    H4830018   0.447   1.083   5.438  0.2931 -0.3904  0.6566
  186MOL    H4930019   0.297   1.113   5.462 -0.6887  0.5651  0.5451
  186MOL    C5030020   0.503   0.933   5.642 -0.9895 -0.4455  0.3931
  186MOL    C5130021   0.550   0.819   5.557 -0.0417  0.7285 -0.1505
  186MOL    N5230022   0.699   0.812   5.570 -0.2705 -0.3616  0.0945
  186MOL    H5330023   0.584   1.006   5.632 -0.2046 -1.2128  1.1145
  186MOL    H5430024   0.509   0.904   5.747  0.1016 -0.1789  0.4158
  186MOL    H5530025   0.535   0.848   5.453 -1.4308  0.8128  0.0623
  186MOL    H5630026   0.721   0.771   5.660  0.0000 -0.6605 -0.1104
  186MOL    H5730027   0.743   0.759   5.497  1.9784  0.7378  0.6131
  186MOL    C5830028   0.491   0.685   5.595  0.2330 -0.1663  0.5841
  186MOL    C5930029   0.344   0.666   5.545  0.4399 -0.0045  0.6140
  186MOL    N6030030   0.336   0.696   5.406 -0.2823  0.8040  0.5312
  186MOL    H6130031   0.555   0.613   5.544  0.0296 -0.4793  0.7622
  186MOL    H6230032   0.500   0.656   5.700  2.0616  0.0301  0.4835
  186MOL    H6330033   0.272   0.732   5.593  0.2803  1.7217 -1.8932
  186MOL    H6430034   0.238   0.702   5.382  0.3260 -0.0954 -2.3645
  186MOL    H6530035   0.357   0.792   5.383  1.3624 -0.0962 -1.9067
  186MOL    C6630036   0.294   0.523   5.560  0.0321 -0.1404  0.1872
  186MOL    C6730037   0.218   0.490   5.692  0.3770  0.4551  0.1820
  186MOL    N6830038   0.097   0.568   5.709  0.4176 -0.3706 -0.0036
  186MOL    H6930039   0.219   0.492   5.487  0.5450 -0.1607 -0.3357
  186MOL    H7030040   0.367   0.445   5.540 -0.1074 -0.1485 -0.2799
  186MOL    H7130041   0.286   0.518   5.773  1.5057 -0.4083 -0.4543
  186MOL    H7230042   0.091   0.625   5.626 -0.5598 -0.8276 -0.2494
  186MOL    H7330043   0.124   0.636   5.779  1.0535 -0.4242 -0.1951
  186MOL    C7430044   0.187   0.345   5.705 -0.1175  0.0331 -0.0291
  186MOL    C7530045   0.299   0.265   5.768  0.1608  0.6416 -0.0235
  186MOL    N7630046   0.300   0.298   5.909  0.7679 -0.0838  0.2508
  186MOL    H7730047   0.092   0.326   5.756  0.2398  0.1126  0.6647
  186MOL    H7830048   0.182   0.312   5.601 -1.4607  0.6196 -0.1626
  186MOL    H7930049   0.392   0.283   5.714 -1.1877  0.3957 -2.4914
  186MOL    H8030050   0.226   0.251   5.958 -0.1714  1.1248  0.0201
  186MOL    H8130051   0.287   0.398   5.921  0.7108 -0.1625  0.8261
  186MOL    C8230052   0.267   0.110   5.751  0.8716 -0.1074 -0.4059
  186MOL    C8330053   0.372   0.019   5.810  0.0591 -0.3348 -0.1195
  186MOL    N8430054   0.322   7.156   5.818  0.1224  0.0336  0.0355
  186MOL    H8530055   0.164   0.080   5.769  1.7940 -2.3180  1.3472
  186MOL    H8630056   0.263   0.089   5.644  1.1929  0.2034 -0.4793
  186MOL    H8730057   0.394   0.055   5.910  2.2401 -0.6701 -0.4573
  186MOL    H8830058   0.375   7.128   5.900 -0.3385 -0.1797  0.2655
  186MOL    H8930059   0.224   7.155   5.845  0.8702  2.2760  3.2023
  186MOL    C9030060   0.504   0.020   5.739 -0.2755  0.3327 -0.0633
  186MOL    C9130061   0.614   0.128   5.769 -0.8438 -0.1852  0.1717
  186MOL    N9230062   0.693   0.089   5.885  0.2568 -0.3511 -0.4446
  186MOL    H9330063   0.554   7.200   5.754  1.2175  1.5687  3.3066
  186MOL    H9430064   0.480   0.008   5.634  0.6425 -1.7601 -0.0694
  186MOL    H9530065   0.553   0.209   5.809  0.3912 -0.7375  3.3064
  186MOL    H9630066   0.627   0.084   5.961  0.2138  0.3832 -0.4248
  186MOL    H9730067   0.736   0.175   5.917 -0.5129  0.9253 -2.7052
  186MOL    C9830068   0.703   0.173   5.650 -0.8486  0.2284 -0.3716
  186MOL    C9930069   0.816   0.284   5.684 -0.0570  0.1782  0.1921
  186MOL   N10030070   0.902   0.312   5.572 -0.3939 -0.8385  0.1441
  186MOL   H10130071   0.742   0.084   5.601 -1.9901  0.2358 -1.3159
  186MOL   H10230072   0.642   0.208   5.567 -0.8021  0.7333 -0.1965
  186MOL   H10330073   0.872   0.250   5.771 -0.5648  3.1028  1.7394
  186MOL   H10430074   0.857   0.289   5.485  1.3274  1.3496 -1.3746
  186MOL   H10530075   0.925   0.411   5.572  0.9161 -1.1433  0.2107
  186MOL   C10630076   0.751   0.412   5.733  0.6947 -0.8230 -0.0492
  186MOL   C10730077   0.853   0.510   5.789  0.2472 -0.4942 -0.2332
  186MOL   N10830078   0.793   0.641   5.808 -0.8595 -0.6567  0.5857
  186MOL   H10930079   0.708   0.457   5.643  2.8743  2.4647  0.4681
  186MOL   H11030080   0.667   0.388   5.799  1.1795 -3.1886 -0.2568
  186MOL   H11130081   0.944   0.516   5.729  0.0365 -2.6596 -0.8123
  186MOL   H11230082   0.869   0.701   5.836  0.2756 -0.9154 -1.8578
  186MOL   H11330083   0.738   0.645   5.893 -1.1318 -0.0828  0.3858
  186MOL   C11430084   0.915   0.472   5.923  0.0154  0.7126  0.1591
  186MOL   C11530085   1.062   0.516   5.938 -0.9424  0.7356 -0.0472
  186MOL   N11630086   1.079   0.553   6.074  0.3703  0.1942  0.1258
  186MOL   H11730087   0.849   0.510   6.002  1.0123 -0.0651  1.3898
  186MOL   H11830088   0.897   0.365   5.924 -1.1458  0.9019 -0.0248
  186MOL   H11930089   1.080   0.600   5.870 -1.6511  0.7889 -0.1688
  186MOL   H12030090   1.178   0.569   6.082  0.2119  1.0236  0.4559
  186MOL   H12130091   1.046   0.648   6.076 -1.0727 -0.2848 -0.2832
  186MOL   C12230092   1.160   0.391   5.912  0.7477  0.3249 -0.2924
  186MOL   C12330093   1.301   0.442   5.878  0.2668 -0.1252  0.1552
  186MOL   N12430094   1.377   0.486   5.995  0.4725 -0.8172 -0.2007
  186MOL   H12530095   1.170   0.322   5.996  1.2022  0.8141  0.0555
  186MOL   H12630096   1.114   0.326   5.837 -0.7202  0.0139  0.8529
  186MOL   H12730097   1.296   0.531   5.816 -0.2385 -1.1373 -1.2741
  186MOL   H12830098   1.390   0.409   6.058 -1.0545 -0.4388  0.5989
  186MOL   H12930099   1.474   0.509   5.977  0.0903  0.5139 -0.6478
  186MOL   C13030100   1.383   0.329   5.823  0.1605  0.6516 -0.1765
  186MOL   C13130101   1.350   0.255   5.688 -0.6523  0.3698 -0.1976
  186MOL   N13230102   1.385   0.343   5.580  0.8793  0.3580  0.2857
  186MOL   H13330103   1.482   0.374   5.821  0.1435  0.6602 -1.9804
  186MOL   H13430104   1.378   0.251   5.899 -1.8225 -0.8004 -1.7341
  186MOL   H13530105   1.246   0.225   5.676 -0.3620 -0.6518 -0.2147
  186MOL   H13630106   1.326   0.423   5.563  0.3728 -0.0552  0.0997
  186MOL   H13730107   1.363   0.289   5.497 -1.9134  0.0815  1.1551
  186MOL   C13830108   1.436   0.122   5.677 -0.0282  0.0662  0.3408
  186MOL   C13930109   1.381   0.006   5.765  0.2126 -0.1780  1.1736
  186MOL   N14030110   1.311   7.186   5.680  0.1430 -0.2479 -0.2791
  186MOL   H14130111   1.430   0.095   5.571  1.2839 -1.1737  0.5650
  186MOL   H14230112   1.538   0.145   5.709 -0.1350  1.2485 -0.1055
  186MOL   H14330113   1.305   0.048   5.831 -1.3858 -0.3353 -0.5372
  186MOL   H14430114   1.268   7.124   5.747  1.7865 -1.3629 -0.2245
  186MOL   H14530115   1.230   7.239   5.649  0.1479  0.1286  0.3455
  186MOL   C14630116   1.478   7.210   5.848 -0.1181  0.5464  0.1493
  186MOL   C14730117   1.551   0.005   5.961 -0.1098 -0.1531  0.2389
  186MOL   N14830118   1.464   0.023   6.071 -0.3331  0.1669  0.0384
  186MOL   H14930119   1.431   7.119   5.884  1.2624 -0.3574 -0.2853
  186MOL   H15030120   1.557   7.170   5.785  0.2512  2.8204 -0.9122
  186MOL   H15130121   1.594   0.098   5.924  1.1435 -0.5628  0.6388
  186MOL   H15230122   1.455   7.203   6.102 -2.7124  0.5602  0.6387
  186MOL   H15330123   1.368   0.035   6.043 -1.0289 -2.1674  1.2681
  186MOL   C15430124   1.666   7.188   6.006  0.1384  0.0705 -0.5567
  186MOL   C15530125   1.749   7.238   6.121 -0.0339 -0.0010 -0.0207
  186MOL   N15630126   1.847   7.145   6.156 -0.0402  0.1366 -0.4285
  186MOL   H15730127   1.631   7.087   6.029 -1.7385  0.6007 -0.9724
  186MOL   H15830128   1.729   7.174   5.918  0.9392  1.5929 -0.2417
  186MOL   H15930129   1.697   7.251   6.216 -0.5701 -1.0876 -0.1581
  186MOL   H16030130   1.874   7.177   6.248 -0.5292  0.9801 -0.5684
  186MOL   H16130131   1.802   7.055   6.158  1.2060 -0.4991 -1.0898
  186MOL   H16230132   1.798   0.051   6.082 -2.4430  0.6864 -1.6314
  187MOL     C130133   6.207   6.298   1.318  0.4871 -0.2478  0.7612
  187MOL     C230134   6.067   6.286   1.383 -0.0535  0.7656 -0.4984
  187MOL     N330135   5.984   6.403   1.343  0.0379  0.3826 -0.3124
  187MOL     H430136   6.254   6.387   1.358  0.7482 -0.3503  0.6816
  187MOL     H530137   6.197   6.317   1.211  1.8515 -1.7573  0.3493
  187MOL     H630138   6.077   6.298   1.491  1.2129  1.0168 -0.6405
  187MOL     H730139   6.042   6.483   1.366  2.1107 -0.1906 -3.3116
  187MOL     H830140   5.984   6.410   1.242  1.1184 -0.8366 -0.4044
  187MOL     H930141   6.276   6.215   1.335  1.4373  0.2625 -0.5319
  187MOL    C1030142   5.989   6.157   1.347 -0.1908 -0.3036  0.1930
  187MOL    C1130143   6.053   6.024   1.388  0.0119  0.5709  0.2710
  187MOL    N1230144   6.064   6.021   1.537 -0.1836  0.1134  0.2355
  187MOL    H1330145   5.892   6.159   1.396 -0.0875 -0.4442  0.4027
  187MOL    H1430146   5.956   6.159   1.243  0.1262  2.7249  0.1315
  187MOL    H1530147   6.153   6.023   1.344 -0.5630  1.7440 -1.1220
  187MOL    H1630148   6.112   6.103   1.573  1.8738 -0.7695 -0.4045
  187MOL    H1730149   5.973   6.049   1.570 -0.0483  2.1265 -1.0137
  187MOL    C1830150   5.980   5.894   1.349 -0.5368 -0.0310  0.3816
  187MOL    C1930151   5.980   5.866   1.191 -0.2528 -0.2772 -0.1275
  187MOL    N2030152   6.125   5.834   1.154 -0.2762 -0.2830 -0.2793
  187MOL    H2130153   6.023   5.809   1.402 -2.0708  0.6301  2.7638
  187MOL    H2230154   5.881   5.905   1.392 -0.2973 -1.6161  1.3635
  187MOL    H2330155   5.953   5.956   1.136 -0.2392  0.4299  0.9995
  187MOL    H2430156   6.184   5.910   1.184 -1.9254 -0.0400  2.4555
  187MOL    H2530157   6.150   5.758   1.215 -0.3437  0.8331  1.1730
  187MOL    C2630158   5.891   5.747   1.159 -0.1782  0.3492  0.5780
  187MOL    C2730159   5.751   5.779   1.105  0.5106  0.6345  0.3375
  187MOL    N2830160   5.694   5.649   1.056  0.7342  0.1009  0.7443
  187MOL    H2930161   5.942   5.677   1.092 -0.4155  1.2514 -0.5714
  187MOL    H3030162   5.880   5.699   1.256 -0.9355  0.1123  0.3769
  187MOL    H3130163   5.757   5.850   1.023 -3.1053  0.9237  0.2100
  187MOL    H3230164   5.594   5.641   1.054  0.7523 -0.2220  1.0698
  187MOL    H3330165   5.736   5.628   0.966  0.6046 -1.0347  0.9353
  187MOL    C3430166   5.655   5.835   1.210 -0.3785 -0.5843 -0.6567
  187MOL    C3530167   5.554   5.943   1.165  0.1328 -0.4283 -0.1290
  187MOL    N3630168   5.441   5.963   1.254  0.0946 -0.1036  0.4804
  187MOL    H3730169   5.598   5.760   1.265 -2.7598  1.1288 -0.7328
  187MOL    H3830170   5.715   5.892   1.281 -2.5207  1.9301 -0.7866
  187MOL    H3930171   5.507   5.902   1.075 -0.6491  0.6760 -0.2292
  187MOL    H4030172   5.435   6.064   1.256  1.0840  0.0697 -2.9032
  187MOL    H4130173   5.475   5.950   1.348 -0.3834  0.2039  0.6956
  187MOL    C4230174   5.624   6.079   1.131 -0.1745  0.3858 -0.4353
  187MOL    C4330175   5.545   6.176   1.039  0.1896  1.0043 -0.1747
  187MOL    N4430176   5.575   6.311   1.075  0.2548  0.2691  0.2580
  187MOL    H4530177   5.628   6.119   1.232 -0.2388  0.0290 -0.2933
  187MOL    H4630178   5.728   6.062   1.100  0.1302  0.6894  0.4142
  187MOL    H4730179   5.440   6.158   1.061 -0.5155  3.0526 -1.7679
  187MOL    H4830180   5.498   6.360   1.031 -1.3304  0.2231  2.8906
  187MOL    H4930181   5.553   6.325   1.172  0.8060 -0.7863  0.5432
  187MOL    C5030182   5.591   6.156   0.900  0.2429  0.3578  0.1274
  187MOL    C5130183   5.550   6.025   0.830  0.1228  0.3597  0.0774
  187MOL    N5230184   5.408   6.008   0.860  0.5890  0.5015  0.2037
  187MOL    H5330185   5.570   6.238   0.832  2.8272  1.5147  0.6552
  187MOL    H5430186   5.700   6.153   0.903  0.2915  1.3011 -0.6617
  187MOL    H5530187   5.605   5.942   0.874  0.2647  0.3984 -0.0261
  187MOL    H5630188   5.399   6.000   0.961  4.0609  1.6055  0.6661
  187MOL    H5730189   5.368   5.922   0.824  1.0699 -0.8522  2.7334
  187MOL    C5830190   5.570   5.998   0.676  0.0303 -0.1248 -0.6952
  187MOL    C5930191   5.716   5.987   0.623 -0.0306 -0.5418  0.2258
  187MOL    N6030192   5.726   5.878   0.523  0.8500  0.0521 -0.2810
  187MOL    H6130193   5.517   5.904   0.661  1.1452 -0.9534  0.4675
  187MOL    H6230194   5.513   6.077   0.627  2.0079  2.8382  1.5615
  187MOL    H6330195   5.786   5.959   0.702 -0.0562 -2.3002 -0.3395
  187MOL    H6430196   5.636   5.834   0.512  0.2676  0.8913  1.0825
  187MOL    H6530197   5.759   5.910   0.432 -0.1495  0.6372 -0.4338
  187MOL    C6630198   5.755   6.114   0.548 -0.2866 -0.7460  0.2336
  187MOL    C6730199   5.892   6.121   0.480 -0.0888  0.0516  0.2001
  187MOL    N6830200   5.876   6.194   0.354  0.0582  0.2514 -0.2370
  187MOL    H6930201   5.684   6.132   0.467  1.2416  1.4644 -0.6587
  187MOL    H7030202   5.735   6.195   0.619 -0.8070 -0.2961 -0.4187
  187MOL    H7130203   5.927   6.021   0.454  1.1890  0.4159  0.5066
  187MOL    H7230204   5.824   6.141   0.286  0.5513  1.6382 -1.7167
  187MOL    H7330205   5.967   6.193   0.312  0.3329  0.9215  0.3195
  187MOL    C7430206   6.007   6.186   0.561 -0.5749 -0.2558  0.6772
  187MOL    C7530207   6.065   6.111   0.682 -0.0214  0.5008 -0.4565
  187MOL    N7630208   6.115   5.984   0.632  0.2705  0.1118  0.4340
  187MOL    H7730209   6.091   6.208   0.495 -0.8215 -1.3037  0.0066
  187MOL    H7830210   5.978   6.282   0.603  1.9903  1.1714 -0.7168
  187MOL    H7930211   5.993   6.087   0.760  0.0422  2.9051  0.3971
  187MOL    H8030212   6.115   5.921   0.711  0.6700  2.2844  2.2208
  187MOL    H8130213   6.046   5.938   0.575  2.1791 -2.2655 -0.0684
  187MOL    C8230214   6.185   6.186   0.746  0.5726 -0.2191 -0.0121
  187MOL    C8330215   6.161   6.237   0.888 -0.1969  0.5674  0.0082
  187MOL    N8430216   6.290   6.262   0.956 -0.1372 -0.2221  0.0263
  187MOL    H8530217   6.266   6.114   0.757  2.2246  1.4284 -1.1423
  187MOL    H8630218   6.209   6.269   0.680  0.2510 -0.1251 -0.0122
  187MOL    H8730219   6.102   6.175   0.955 -0.5074  1.7796  0.8779
  187MOL    H8830220   6.287   6.282   1.055 -1.8125  0.0401 -0.0643
  187MOL    H8930221   6.357   6.187   0.956 -1.4775 -1.4643  1.4936
  187MOL    C9030222   6.080   6.366   0.884  0.2893  0.9040  0.4153
  187MOL    C9130223   5.924   6.349   0.877  0.5318 -0.0934 -0.1009
  187MOL    N9230224   5.877   6.321   1.003 -0.0860 -0.2505 -0.8041
  187MOL    H9330225   6.111   6.427   0.969 -0.1631 -0.3035  1.4646
  187MOL    H9430226   6.105   6.431   0.800 -0.0473  0.5006  0.0007
  187MOL    H9530227   5.895   6.268   0.809 -1.3719  1.7159 -1.5210
  187MOL    H9630228   5.778   6.302   1.004  0.5591 -4.0360 -0.6944
  187MOL    H9730229   5.881   6.415   1.039 -0.0664 -0.2820 -0.7246
  187MOL    C9830230   5.846   6.481   0.849 -0.0863 -0.3961 -0.7886
  187MOL    C9930231   5.835   6.518   0.696  0.1161 -0.6240 -1.1620
  187MOL   N10030232   5.721   6.444   0.641 -0.4723  0.5128  0.0014
  187MOL   H10130233   5.746   6.481   0.892 -0.3842  0.0832 -1.4689
  187MOL   H10230234   5.897   6.560   0.904  0.0175 -1.7424  1.0871
  187MOL   H10330235   5.930   6.497   0.647  0.7221 -1.6693  0.4352
  187MOL   H10430236   5.722   6.446   0.540  2.6798  1.1077  0.0008
  187MOL   H10530237   5.719   6.350   0.677 -0.7799  1.2441  1.9607
  187MOL   C10630238   5.794   6.659   0.668 -0.3880  0.6871 -0.2948
  187MOL   C10730239   5.901   6.765   0.717 -0.2702  0.1102  0.6548
  187MOL   N10830240   5.936   6.862   0.613 -0.2598 -0.1893  0.7665
  187MOL   H10930241   5.794   6.663   0.560 -0.0919  2.4331 -0.2496
  187MOL   H11030242   5.700   6.679   0.720  0.8294  0.6733  2.0037
  187MOL   H11130243   5.993   6.709   0.734  0.2881  1.1262  1.0293
  187MOL   H11230244   5.988   6.809   0.545  0.7021  0.2604  1.1324
  187MOL   H11330245   5.854   6.902   0.570  0.3045 -0.2261 -0.3692
  187MOL   C11430246   5.863   6.838   0.844 -0.3204  1.1447 -0.2305
  187MOL   C11530247   5.987   6.874   0.924  0.1531  0.2373  0.2844
  187MOL   N11630248   6.047   6.987   0.856 -0.2124  0.5171 -0.2570
  187MOL   H11730249   5.794   6.921   0.829 -0.5797  1.0231  0.2563
  187MOL   H11830250   5.792   6.777   0.900 -1.9487  3.5066  0.3632
  187MOL   H11930251   6.054   6.789   0.911 -0.3532 -0.2900  1.0952
  187MOL   H12030252   5.981   7.062   0.868 -0.4439  0.2037  0.4335
  187MOL   H12130253   6.031   6.966   0.758 -2.4396 -0.2305  0.2398
  187MOL   C12230254   5.971   6.907   1.071  0.8651  0.1461 -0.4926
  187MOL   C12330255   5.880   6.814   1.160 -0.6158  0.4348  0.0813
  187MOL   N12430256   5.947   6.692   1.200 -0.0634 -0.0539 -0.8644
  187MOL   H12530257   6.070   6.922   1.113  0.7411 -1.3760  0.3603
  187MOL   H12630258   5.920   7.003   1.074 -0.4086 -0.5215 -0.2217
  187MOL   H12730259   5.794   6.779   1.102 -0.4921 -0.3563  0.3749
  187MOL   H12830260   5.889   6.628   1.253 -0.7912  1.3351  0.0478
  187MOL   H12930261   6.032   6.703   1.254 -1.9483 -0.3458  2.2693
  187MOL   C13030262   5.830   6.888   1.287 -0.0988  0.2589  0.3687
  187MOL   C13130263   5.735   6.822   1.388  0.0600 -0.1669 -0.3626
  187MOL   N13230264   5.726   6.864   1.527 -0.0848 -0.1373 -0.2962
  187MOL   H13330265   5.915   6.910   1.352 -0.1397 -3.2209  1.7184
  187MOL   H13430266   5.785   6.979   1.249 -2.7274 -0.2907  2.0091
  187MOL   H13530267   5.780   6.724   1.399 -1.5474 -0.9943 -0.9221
  187MOL   H13630268   5.808   6.912   1.562 -1.1466  1.5520 -0.0844
  187MOL   H13730269   5.662   6.941   1.537 -1.2427 -0.9100 -1.6796
  187MOL   C13830270   5.589   6.804   1.319 -0.2085  0.7217  0.2955
  187MOL   C13930271   5.523   6.673   1.371  0.0859  0.1696 -0.5022
  187MOL   N14030272   5.382   6.702   1.361  0.3408  0.3807  0.0293
  187MOL   H14130273   5.519   6.887   1.335 -3.0017 -1.4973  0.0113
  187MOL   H14230274   5.602   6.792   1.212  1.1866  1.3842  0.3843
  187MOL   H14330275   5.543   6.669   1.479 -1.1712  1.8252 -0.1807
  187MOL   H14430276   5.371   6.785   1.416 -1.7022  0.4289 -0.4314
  187MOL   H14530277   5.317   6.632   1.393  1.0616 -0.4089 -0.2008
  187MOL   C14630278   5.545   6.534   1.307  0.2178  0.0408 -0.3734
  187MOL   C14730279   5.520   6.421   1.408 -0.1081 -0.6883 -0.0488
  187MOL   N14830280   5.449   6.308   1.342  0.5881  0.3293  0.4700
  187MOL   H14930281   5.485   6.514   1.217 -0.4188 -0.2836  0.1161
  187MOL   H15030282   5.645   6.527   1.265  0.3722  1.0694 -0.2008
  187MOL   H15130283   5.445   6.444   1.483 -1.2494  0.3423 -1.4829
  187MOL   H15230284   5.365   6.341   1.297 -0.5718 -1.0453  1.5868
  187MOL   H15330285   5.413   6.248   1.415 -1.3601  1.3500  0.3917
  187MOL   C15430286   5.650   6.361   1.466  0.0594  0.0624 -0.1568
  187MOL   C15530287   5.720   6.444   1.578  0.4196 -0.1383  0.0171
  187MOL   N15630288   5.856   6.408   1.608 -0.0034  0.3872 -0.2306
  187MOL   H15730289   5.626   6.266   1.514  0.1537 -0.0351 -0.3079
  187MOL   H15830290   5.723   6.333   1.390 -0.6261 -2.4422  0.0768
  187MOL   H15930291   5.666   6.445   1.672  0.0013 -1.7610 -0.1912
  187MOL   H16030292   5.895   6.394   1.516 -1.8153 -3.0656 -0.5530
  187MOL   H16130293   5.903   6.478   1.665 -1.3652 -1.4079  3.2504
  187MOL   H16230294   5.736   6.548   1.550 -3.7077  0.8612  1.1454
  188MOL     C130295   2.752   3.622   5.980  0.4409  0.9147 -0.0890
  188MOL     C230296   2.781   3.528   6.097  0.2748  0.2749  1.1163
  188MOL     N330297   2.925   3.519   6.117  0.9199  0.3654 -0.1203
  188MOL     H430298   2.770   3.724   6.014 -1.0490  1.1098  0.1660
  188MOL     H530299   2.645   3.623   5.961  0.2010  1.2389  1.2098
  188MOL     H630300   2.757   3.428   6.059 -0.6400  0.1986  1.8728
  188MOL     H730301   2.969   3.605   6.148  0.0568  1.2882 -1.3925
  188MOL     H830302   2.959   3.449   6.181  0.9029  0.8436  0.4195
  188MOL     H930303   2.814   3.599   5.894  0.0045  0.5540 -0.3126
  188MOL    C1030304   2.699   3.554   6.228 -0.5010 -0.3610  0.5046
  188MOL    C1130305   2.740   3.454   6.341 -0.5207 -0.0724 -0.8042
  188MOL    N1230306   2.670   3.500   6.456  0.5215  0.1272 -0.1114
  188MOL    H1330307   2.706   3.658   6.257 -0.7448 -0.2862  0.2915
  188MOL    H1430308   2.598   3.519   6.208 -0.0867 -2.4145  1.7953
  188MOL    H1530309   2.846   3.466   6.364 -0.1022  1.3274 -3.2224
  188MOL    H1630310   2.692   3.596   6.480 -0.7039  0.1354  1.0316
  188MOL    H1730311   2.710   3.442   6.529 -1.2262 -0.9101  0.0438
  188MOL    C1830312   2.713   3.303   6.309 -0.4766  0.0441 -0.1986
  188MOL    C1930313   2.816   3.224   6.229  0.6200  0.1681 -0.7307
  188MOL    N2030314   2.926   3.206   6.316  0.6930 -0.9455 -0.1809
  188MOL    H2130315   2.677   3.245   6.395 -1.2300 -0.8958 -1.1397
  188MOL    H2230316   2.629   3.299   6.240  0.7658 -1.8294 -1.6283
  188MOL    H2330317   2.865   3.279   6.149  3.1220 -0.7392  0.1395
  188MOL    H2430318   2.961   3.293   6.354 -0.0984 -0.9295  0.5376
  188MOL    H2530319   2.999   3.185   6.250 -1.2120  1.5392 -3.2106
  188MOL    C2630320   2.783   3.077   6.195  0.3353  0.2751 -0.0816
  188MOL    C2730321   2.678   3.057   6.086  0.3498 -1.1223 -0.6425
  188MOL    N2830322   2.735   3.053   5.952 -0.1463 -0.0659 -0.0595
  188MOL    H2930323   2.867   3.025   6.148  1.8107  1.7769  0.7878
  188MOL    H3030324   2.759   3.024   6.287 -1.2576  1.1960  0.0427
  188MOL    H3130325   2.595   3.126   6.100 -0.9970 -2.9239  0.4780
  188MOL    H3230326   2.815   2.992   5.942  0.1200  0.2382  0.1775
  188MOL    H3330327   2.777   3.138   5.917 -0.1720 -0.0039  0.0590
  188MOL    C3430328   2.612   2.919   6.095 -0.4285  0.1391 -0.8034
  188MOL    C3530329   2.530   2.893   6.223  0.3711  0.1165  0.0751
  188MOL    N3630330   2.392   2.933   6.186 -0.0737 -0.3063  0.3832
  188MOL    H3730331   2.548   2.915   6.007 -1.8025 -2.9334  0.2609
  188MOL    H3830332   2.681   2.836   6.077  1.3389  1.0709  1.4855
  188MOL    H3930333   2.562   2.965   6.299  1.2454  2.3369 -2.3496
  188MOL    H4030334   2.373   3.029   6.211 -1.2420 -1.2286  3.2343
  188MOL    H4130335   2.376   2.925   6.086 -0.1022  1.1568  0.2538
  188MOL    C4230336   2.513   2.753   6.286  0.1566 -0.0542  0.1405
  188MOL    C4330337   2.635   2.702   6.366 -0.2511 -0.6054  0.6211
  188MOL    N4430338   2.637   2.770   6.499  0.1408 -0.4471 -0.5972
  188MOL    H4530339   2.425   2.753   6.349  1.6179  0.8974  2.2330
  188MOL    H4630340   2.493   2.682   6.205 -0.0444 -1.7658  1.6748
  188MOL    H4730341   2.721   2.740   6.311  1.0564 -0.2431  2.8812
  188MOL    H4830342   2.652   2.870   6.492  1.2000 -0.6236 -1.0155
  188MOL    H4930343   2.724   2.736   6.539  0.5563  0.6225 -0.5714
  188MOL    C5030344   2.628   2.549   6.398 -0.1849 -0.2588  0.0734
  188MOL    C5130345   2.764   2.483   6.421  0.2385 -0.0388 -0.1755
  188MOL    N5230346   2.831   2.525   6.541 -0.3755 -0.2493 -0.0742
  188MOL    H5330347   2.558   2.534   6.480 -0.5389 -3.7751 -0.7658
  188MOL    H5430348   2.582   2.507   6.308 -0.7538 -1.0270  0.7226
  188MOL    H5530349   2.828   2.495   6.333  0.1772  0.2357 -0.1844
  188MOL    H5630350   2.853   2.443   6.596 -0.6285 -0.1341  0.1970
  188MOL    H5730351   2.753   2.551   6.599 -0.6487 -2.6374  0.6776
  188MOL    C5830352   2.739   2.332   6.449  0.5639 -0.6729  0.4985
  188MOL    C5930353   2.863   2.243   6.434 -0.3938 -0.2547  0.4727
  188MOL    N6030354   2.841   2.121   6.515 -0.3923 -0.0613 -0.6751
  188MOL    H6130355   2.694   2.325   6.548 -0.1327  1.9744  0.4202
  188MOL    H6230356   2.663   2.298   6.379  0.2954  2.5499 -0.8455
  188MOL    H6330357   2.947   2.288   6.486  0.6870 -1.3934 -0.2748
  188MOL    H6430358   2.804   2.147   6.605  0.8101 -0.8666  0.0732
  188MOL    H6530359   2.935   2.097   6.546 -0.7917 -1.0770 -0.2235
  188MOL    C6630360   2.910   2.203   6.295  0.0939  0.6117 -0.1254
  188MOL    C6730361   3.063   2.168   6.275  0.9668 -1.0954 -0.9135
  188MOL    N6830362   3.095   2.125   6.140  0.6453 -0.6246 -0.0564
  188MOL    H6930363   2.847   2.120   6.263 -2.8274  2.0521  1.8081
  188MOL    H7030364   2.889   2.284   6.226  0.5308  1.2931  0.5325
  188MOL    H7130365   3.093   2.083   6.337 -0.2831  0.6309  2.1196
  188MOL    H7230366   3.069   2.028   6.127 -2.2184  0.3723 -2.2826
  188MOL    H7330367   3.196   2.126   6.143  0.7095 -3.2370  0.1179
  188MOL    C7430368   3.153   2.278   6.328  0.5535  0.1948 -0.5772
  188MOL    C7530369   3.305   2.261   6.314  0.7867 -0.1997 -0.1735
  188MOL    N7630370   3.358   2.396   6.347 -0.3033 -0.1248 -0.1257
  188MOL    H7730371   3.133   2.360   6.260  1.0151  0.6022 -0.2221
  188MOL    H7830372   3.137   2.307   6.432  0.7045  1.6818 -0.9574
  188MOL    H7930373   3.330   2.242   6.210 -0.1195 -0.4029 -0.3567
  188MOL    H8030374   3.349   2.410   6.447 -0.2722  1.2504 -0.3147
  188MOL    H8130375   3.457   2.396   6.327 -0.3896  0.9038 -0.5719
  188MOL    C8230376   3.358   2.152   6.410 -0.6108 -0.5489  0.2881
  188MOL    C8330377   3.495   2.098   6.371  0.1081 -0.0675 -0.1156
  188MOL    N8430378   3.538   2.012   6.487  0.1770 -0.2842 -0.1139
  188MOL    H8530379   3.348   2.197   6.509 -0.0780 -0.1315  0.1495
  188MOL    H8630380   3.296   2.062   6.407 -2.3790  0.6071  1.1711
  188MOL    H8730381   3.554   2.189   6.362  0.7518 -0.3786  0.8774
  188MOL    H8830382   3.625   1.969   6.461  0.1095 -0.9012  0.6495
  188MOL    H8930383   3.487   1.924   6.485 -1.8979  0.7956  2.2855
  188MOL    C9030384   3.499   2.022   6.243 -0.2486 -0.3748 -0.1260
  188MOL    C9130385   3.643   2.006   6.184  0.4029  0.9092  0.4169
  188MOL    N9230386   3.695   1.873   6.215 -0.8763  0.2392  0.8115
  188MOL    H9330387   3.451   1.925   6.248  1.9538 -1.4772  0.4591
  188MOL    H9430388   3.439   2.081   6.174 -0.2176  2.4701  2.1467
  188MOL    H9530389   3.714   2.078   6.227  1.2846  0.2148  0.1397
  188MOL    H9630390   3.783   1.871   6.166 -0.3423 -0.3140  1.7808
  188MOL    H9730391   3.733   1.862   6.308 -1.5082 -0.7717  0.9467
  188MOL    C9830392   3.646   2.037   6.030  0.1229  0.1745  0.5302
  188MOL    C9930393   3.608   2.171   5.969 -1.2993 -0.6711 -0.4083
  188MOL   N10030394   3.713   2.268   5.991 -0.1259  0.1506  0.2127
  188MOL   H10130395   3.744   2.011   5.990  0.0565 -1.9482  1.6983
  188MOL   H10230396   3.582   1.959   5.988  2.2328 -1.7361  0.7546
  188MOL   H10330397   3.533   2.209   6.038  1.8816  3.2378  1.0677
  188MOL   H10430398   3.662   2.354   6.003 -1.7648 -0.8221  0.3689
  188MOL   H10530399   3.752   2.289   5.900  1.2160  1.2632  1.0270
  188MOL   C10630400   3.577   2.166   5.816  0.3725  0.1389  0.0535
  188MOL   C10730401   3.446   2.104   5.781 -0.0994 -0.8404  0.2204
  188MOL   N10830402   3.334   2.154   5.860  0.3674 -0.7453  0.2664
  188MOL   H10930403   3.575   2.263   5.765 -2.5706 -0.2053 -0.5733
  188MOL   H11030404   3.654   2.111   5.763  0.6313  0.9745 -0.4478
  188MOL   H11130405   3.452   1.997   5.798 -0.0724 -0.6725  1.3082
  188MOL   H11230406   3.244   2.116   5.837  0.1846 -0.0432 -0.2005
  188MOL   H11330407   3.334   2.255   5.851 -0.2095 -0.7603  0.1137
  188MOL   C11430408   3.404   2.123   5.632  0.2954 -0.3982  0.0730
  188MOL   C11530409   3.469   2.029   5.520  0.1629  0.3193  0.2995
  188MOL   N11630410   3.416   2.085   5.390  0.3208  0.1672  0.0205
  188MOL   H11730411   3.297   2.128   5.612 -0.1086  0.2816  2.2764
  188MOL   H11830412   3.433   2.227   5.614 -0.9598 -0.1136 -0.3402
  188MOL   H11930413   3.427   1.928   5.519  1.5569 -0.2748 -2.2966
  188MOL   H12030414   3.455   2.027   5.318  0.8962 -0.5374  0.8815
  188MOL   H12130415   3.316   2.076   5.383  0.0106  2.7245  0.7167
  188MOL   C12230416   3.627   2.016   5.511  0.1156 -0.0566 -0.1171
  188MOL   C12330417   3.690   1.898   5.587 -0.2246  0.1653 -0.3676
  188MOL   N12430418   3.656   1.769   5.529 -0.0617  0.0171  1.0599
  188MOL   H12530419   3.645   2.014   5.404 -1.0821 -0.4399 -0.3113
  188MOL   H12630420   3.675   2.109   5.544 -1.1115  0.6282 -0.2408
  188MOL   H12730421   3.659   1.902   5.691 -1.5861  0.5153 -0.7705
  188MOL   H12830422   3.704   1.753   5.442 -1.1923  1.2405  0.1885
  188MOL   H12930423   3.699   1.705   5.595 -1.0069 -1.2599  0.4674
  188MOL   C13030424   3.844   1.905   5.578  0.2477 -0.4079  0.7634
  188MOL   C13130425   3.918   1.821   5.676 -0.4385 -0.0920  1.0773
  188MOL   N13230426   4.057   1.820   5.645 -0.8127  0.3620  0.2141
  188MOL   H13330427   3.886   1.897   5.477 -0.9246  2.6739 -0.0243
  188MOL   H13430428   3.879   2.006   5.600 -0.7148  0.2797 -0.7605
  188MOL   H13530429   3.885   1.718   5.671 -1.5747  0.2842  0.5095
  188MOL   H13630430   4.109   1.769   5.715  0.1152 -0.2878 -0.9352
  188MOL   H13730431   4.072   1.775   5.555  1.3574 -1.5427  1.4620
  188MOL   C13830432   3.897   1.852   5.823 -0.3951  0.2157 -0.3291
  188MOL   C13930433   3.977   1.767   5.922 -0.2790  0.5336 -0.0714
  188MOL   N14030434   3.967   1.835   6.052  0.2425  0.3731 -0.0692
  188MOL   H14130435   3.932   1.952   5.847  1.4349 -0.3503 -0.5782
  188MOL   H14230436   3.793   1.848   5.855  0.7328  4.2665  4.4032
  188MOL   H14330437   4.081   1.780   5.894 -0.0056  1.9390  1.4896
  188MOL   H14430438   4.014   1.783   6.125  1.0861  1.2142 -0.0130
  188MOL   H14530439   4.020   1.921   6.051  2.0260 -0.7163  0.4607
  188MOL   C14630440   3.931   1.625   5.944  0.0145 -0.3192  0.9156
  188MOL   C14730441   4.041   1.517   5.941 -0.7955  0.3742 -0.4056
  188MOL   N14830442   3.970   1.397   5.958  0.4723 -0.7365 -0.3168
  188MOL   H14930443   3.875   1.622   6.038 -1.2484 -1.0088  0.1494
  188MOL   H15030444   3.846   1.600   5.882 -1.4906  0.7178  2.4866
  188MOL   H15130445   4.113   1.522   6.022  0.6127  0.8252 -1.6624
  188MOL   H15230446   3.881   1.402   5.911  0.1451 -1.0087  0.2818
  188MOL   H15330447   3.945   1.402   6.055 -0.7267 -0.0113 -0.6544
  188MOL   C15430448   4.116   1.499   5.811  0.5266  0.5469 -0.3435
  188MOL   C15530449   4.254   1.561   5.816  0.2940 -0.2446 -1.0248
  188MOL   N15630450   4.299   1.587   5.678 -0.1623 -0.6293  1.2080
  188MOL   H15730451   4.130   1.391   5.800 -1.9595 -0.0283  1.7205
  188MOL   H15830452   4.057   1.525   5.723  1.8899  0.9006 -1.1642
  188MOL   H15930453   4.333   1.507   5.868  1.2707  1.5507 -0.6012
  188MOL   H16030454   4.395   1.601   5.650 -0.3835 -1.9864 -0.2603
  188MOL   H16130455   4.283   1.499   5.631  0.2780 -0.3157  0.4696
  188MOL   H16230456   4.256   1.659   5.863  2.1512  0.9244 -3.4504
  189MOL     C130457   5.410   3.832   4.668 -0.2970 -0.3683  0.2602
  189MOL     C230458   5.441   3.787   4.802 -0.1446 -0.4741 -0.4061
  189MOL     N330459   5.339   3.846   4.882 -0.7476 -0.3644 -0.5781
  189MOL     H430460   5.354   3.926   4.672  1.2064  0.7859 -3.5229
  189MOL     H530461   5.346   3.762   4.616 -0.6996  0.7079 -0.7211
  189MOL     H630462   5.534   3.810   4.855 -0.1555 -0.8215 -0.2339
  189MOL     H730463   5.261   3.821   4.822 -0.7747  0.5931 -0.9518
  189MOL     H830464   5.312   3.789   4.960  0.0199 -1.2169 -0.9153
  189MOL     H930465   5.502   3.838   4.609 -1.1269  1.0333 -0.9426
  189MOL    C1030466   5.440   3.630   4.818 -0.1107  0.9728  0.7252
  189MOL    C1130467   5.504   3.538   4.710 -0.3934 -0.0796 -0.1251
  189MOL    N1230468   5.655   3.545   4.719 -0.0168  0.5098 -0.7248
  189MOL    H1330469   5.479   3.600   4.915  1.0243  1.0298  0.2863
  189MOL    H1430470   5.336   3.599   4.833  0.3054 -0.4937  0.6862
  189MOL    H1530471   5.485   3.582   4.612 -1.1994  2.5861  1.1539
  189MOL    H1630472   5.680   3.533   4.816 -2.3867 -0.8632 -0.2195
  189MOL    H1730473   5.704   3.465   4.681  1.2520 -0.1417  2.1467
  189MOL    C1830474   5.465   3.393   4.719 -0.7434  0.7920 -0.2489
  189MOL    C1930475   5.488   3.328   4.583  0.0525  0.0610  0.3654
  189MOL    N2030476   5.468   3.188   4.597  0.2801 -0.4077 -0.0821
  189MOL    H2130477   5.514   3.341   4.802 -0.8211 -0.8947 -1.2225
  189MOL    H2230478   5.360   3.371   4.740 -0.1372 -1.9049  0.1770
  189MOL    H2330479   5.592   3.338   4.552  0.2086 -0.1281  0.8287
  189MOL    H2430480   5.528   3.140   4.662  0.4618  0.2760  0.2551
  189MOL    H2530481   5.372   3.167   4.621  0.3728 -0.9084 -0.1420
  189MOL    C2630482   5.382   3.355   4.476 -0.1784  0.5434  0.6190
  189MOL    C2730483   5.425   3.313   4.336 -0.4449  0.3219 -0.3508
  189MOL    N2830484   5.424   3.173   4.327 -0.2669 -0.5330 -0.2713
  189MOL    H2930485   5.283   3.322   4.508 -1.1165  1.8707 -0.8576
  189MOL    H3030486   5.362   3.462   4.474 -2.8237  0.0987  0.6935
  189MOL    H3130487   5.532   3.335   4.333 -0.6427  1.4220  0.3307
  189MOL    H3230488   5.328   3.141   4.321  0.2480 -2.3729  1.1431
  189MOL    H3330489   5.457   3.153   4.420  1.6157  0.7481 -0.6367
  189MOL    C3430490   5.345   3.370   4.216 -0.4599  0.3462 -0.8214
  189MOL    C3530491   5.388   3.506   4.166 -0.0079 -0.1710 -0.0266
  189MOL    N3630492   5.357   3.504   4.025 -0.6122  0.9439  0.8743
  189MOL    H3730493   5.368   3.309   4.128 -0.5348 -0.8207 -0.0452
  189MOL    H3830494   5.237   3.356   4.210 -0.1533 -1.2568 -3.9323
  189MOL    H3930495   5.493   3.525   4.190 -0.1659  0.1735  0.3954
  189MOL    H4030496   5.416   3.437   3.980  2.0825  2.3371  2.2069
  189MOL    H4130497   5.393   3.586   3.979 -0.9606  0.3920 -0.3841
  189MOL    C4230498   5.301   3.617   4.230 -0.5011  0.0626 -0.2397
  189MOL    C4330499   5.318   3.762   4.191 -1.1453 -0.0021  0.0776
  189MOL    N4430500   5.182   3.815   4.216  0.1183  0.0445  0.2889
  189MOL    H4530501   5.196   3.589   4.224  0.3881 -3.6850  0.2399
  189MOL    H4630502   5.319   3.603   4.336 -1.8658  1.5063  0.1977
  189MOL    H4730503   5.340   3.772   4.085  0.9723 -0.5298  0.4343
  189MOL    H4830504   5.188   3.841   4.314  0.6591 -2.6939  1.0060
  189MOL    H4930505   5.114   3.741   4.208  2.4495 -2.1101 -0.2302
  189MOL    C5030506   5.423   3.839   4.268  0.4060  0.2552 -0.2539
  189MOL    C5130507   5.562   3.781   4.251 -1.0008  0.0728 -0.2462
  189MOL    N5230508   5.649   3.887   4.197 -0.4438 -0.3069 -0.2609
  189MOL    H5330509   5.427   3.941   4.228 -0.2587  0.5528  0.4204
  189MOL    H5430510   5.404   3.831   4.375 -0.8319 -3.2085 -0.6743
  189MOL    H5530511   5.549   3.694   4.187  0.5559 -1.0940  0.9770
  189MOL    H5630512   5.615   3.979   4.220  1.1739  0.5631 -1.2909
  189MOL    H5730513   5.618   3.878   4.101 -0.2590 -1.6972 -0.2077
  189MOL    C5830514   5.632   3.734   4.379  0.5783  0.6231  0.5514
  189MOL    C5930515   5.778   3.674   4.359  0.9928  0.5605  0.9109
  189MOL    N6030516   5.826   3.656   4.493  0.0084 -0.0778 -0.7104
  189MOL    H6130517   5.631   3.827   4.436 -1.5165  0.2885  1.0929
  189MOL    H6230518   5.573   3.653   4.422 -1.5151  2.3688  1.0535
  189MOL    H6330519   5.833   3.758   4.317 -1.1156  0.8977 -1.2663
  189MOL    H6430520   5.752   3.613   4.547 -0.1403  0.9409 -0.0858
  189MOL    H6530521   5.818   3.750   4.530  0.0696 -0.2309 -0.3048
  189MOL    C6630522   5.794   3.538   4.278  0.1815 -0.9209 -0.6428
  189MOL    C6730523   5.935   3.501   4.224  0.3250 -0.4012 -0.0619
  189MOL    N6830524   5.972   3.375   4.285 -0.5779  0.3650  0.0940
  189MOL    H6930525   5.748   3.447   4.318 -0.4258 -1.1077 -1.7206
  189MOL    H7030526   5.735   3.558   4.188  1.4382 -1.3680 -1.5756
  189MOL    H7130527   5.998   3.588   4.240  0.9821 -0.6298 -1.4379
  189MOL    H7230528   5.892   3.315   4.269  0.5125 -0.7377 -1.3674
  189MOL    H7330529   5.964   3.391   4.384  2.9200  1.1344  0.3282
  189MOL    C7430530   5.939   3.470   4.068 -0.2840  0.1273 -0.7174
  189MOL    C7530531   5.964   3.589   3.970 -0.0760 -0.7328  0.2532
  189MOL    N7630532   5.866   3.698   3.979  0.0253  0.5643  0.2604
  189MOL    H7730533   5.997   3.383   4.038 -0.8312 -1.0974  1.6350
  189MOL    H7830534   5.841   3.429   4.043 -0.4938  0.2482 -0.1148
  189MOL    H7930535   5.955   3.551   3.868  2.8931  1.2502 -0.8113
  189MOL    H8030536   5.864   3.741   4.071 -0.4450  0.4003  0.3252
  189MOL    H8130537   5.905   3.768   3.918  0.0445 -2.5211 -3.4341
  189MOL    C8230538   6.107   3.656   3.989  0.1675  0.4698  0.7353
  189MOL    C8330539   6.228   3.559   3.994 -0.0419  0.4451 -0.2699
  189MOL    N8430540   6.212   3.458   3.885 -0.8244 -0.0150 -0.3477
  189MOL    H8530541   6.111   3.719   3.900 -2.4199  1.5039  1.3291
  189MOL    H8630542   6.112   3.731   4.068  0.4885  3.5933 -2.1353
  189MOL    H8730543   6.222   3.504   4.087 -1.1622  0.7259 -0.1593
  189MOL    H8830544   6.138   3.398   3.918 -0.0552 -0.7021  0.1674
  189MOL    H8930545   6.296   3.401   3.876 -1.1858 -0.6664  0.3985
  189MOL    C9030546   6.372   3.624   3.980 -0.6651  1.0572 -0.2592
  189MOL    C9130547   6.420   3.704   4.111 -0.0666 -0.2806  0.1886
  189MOL    N9230548   6.495   3.610   4.194 -0.1532 -0.0778 -0.1754
  189MOL    H9330549   6.437   3.550   3.934 -1.8305 -1.5978  2.1761
  189MOL    H9430550   6.367   3.685   3.890 -3.1437 -0.0713 -0.9388
  189MOL    H9530551   6.334   3.745   4.164  0.3309 -2.0862  2.3442
  189MOL    H9630552   6.580   3.594   4.142 -0.5490 -0.2403 -0.7817
  189MOL    H9730553   6.445   3.524   4.208  1.0154 -0.9029 -1.0320
  189MOL    C9830554   6.509   3.826   4.083 -0.3193 -0.5209  0.7619
  189MOL    C9930555   6.426   3.962   4.066 -0.4753  0.6215 -0.2630
  189MOL   N10030556   6.527   4.064   4.063 -0.4269  0.1331 -0.1448
  189MOL   H10130557   6.583   3.828   4.163  0.5699 -2.3633  0.0083
  189MOL   H10230558   6.558   3.806   3.988  2.5040  1.9129  1.6325
  189MOL   H10330559   6.363   3.992   4.151 -0.3497  0.1631 -0.0074
  189MOL   H10430560   6.577   4.055   4.151  0.5862  0.2931 -0.6912
  189MOL   H10530561   6.478   4.151   4.082 -1.0070  0.2580 -2.1907
  189MOL   C10630562   6.334   3.983   3.950  0.3568 -0.2387  0.0800
  189MOL   C10730563   6.255   4.112   3.951 -0.3488 -0.0687  0.7706
  189MOL   N10830564   6.232   4.161   3.816  0.5903  0.0038  0.0238
  189MOL   H10930565   6.387   3.979   3.855  1.3861 -2.0006  0.7028
  189MOL   H11030566   6.253   3.911   3.936  1.5727 -1.6925  0.4369
  189MOL   H11130567   6.313   4.192   3.997 -0.5268 -0.3090  1.4096
  189MOL   H11230568   6.192   4.253   3.807 -2.0776 -1.2961 -1.7238
  189MOL   H11330569   6.326   4.168   3.780 -0.0921  4.1493 -1.1967
  189MOL   C11430570   6.110   4.127   4.023 -0.0665 -0.3815 -0.5550
  189MOL   C11530571   6.108   4.131   4.176  0.2281 -0.4538  0.2424
  189MOL   N11630572   6.143   4.261   4.220  0.1073 -0.3278 -0.3613
  189MOL   H11730573   6.056   4.216   3.990  0.5701 -0.0830 -0.7824
  189MOL   H11830574   6.050   4.047   3.977 -0.8445  0.9043 -1.8254
  189MOL   H11930575   6.183   4.058   4.206  1.9167  0.0310 -2.6148
  189MOL   H12030576   6.064   4.319   4.195 -0.8292 -0.6990  1.5759
  189MOL   H12130577   6.144   4.271   4.321  0.2386 -0.9667 -0.2941
  189MOL   C12230578   5.976   4.074   4.223 -0.7863 -0.4185 -0.1207
  189MOL   C12330579   5.968   4.078   4.379  0.5213  0.1833  0.5038
  189MOL   N12430580   5.837   4.036   4.419  0.1590 -0.1084  0.6212
  189MOL   H12530581   5.893   4.131   4.181  0.3026  0.0474 -1.6842
  189MOL   H12630582   5.958   3.976   4.179 -1.3483 -0.5026  0.2847
  189MOL   H12730583   5.992   4.177   4.417 -0.5626  0.5754  0.1850
  189MOL   H12830584   5.776   4.112   4.392  0.4246 -0.1258 -0.0518
  189MOL   H12930585   5.813   3.968   4.348  1.1075  0.3680 -0.1788
  189MOL   C13030586   6.062   3.967   4.448 -0.3551  0.5234  0.0401
  189MOL   C13130587   6.209   4.013   4.476 -0.1928  0.2850  0.1303
  189MOL   N13230588   6.211   4.126   4.561  0.1199  0.5841 -0.3084
  189MOL   H13330589   6.013   3.943   4.542 -0.4953  2.5554  0.5165
  189MOL   H13430590   6.054   3.874   4.392  1.8339 -0.0952  0.6857
  189MOL   H13530591   6.259   4.042   4.384  2.1406  1.5586  1.7413
  189MOL   H13630592   6.309   4.147   4.575  0.1102  0.9148 -0.7246
  189MOL   H13730593   6.179   4.213   4.522 -1.5571  0.6369  1.1437
  189MOL   C13830594   6.284   3.912   4.563  0.1421 -0.0613  0.2785
  189MOL   C13930595   6.323   3.787   4.488  0.3740  0.0191  0.1183
  189MOL   N14030596   6.450   3.802   4.422 -0.6161 -0.3401 -0.1037
  189MOL   H14130597   6.372   3.953   4.613 -0.0688  1.3003 -0.4547
  189MOL   H14230598   6.215   3.878   4.640 -1.7253 -1.2660 -1.8673
  189MOL   H14330599   6.250   3.767   4.410  0.9143  0.3441 -0.4797
  189MOL   H14430600   6.454   3.890   4.373 -2.0993 -0.4824 -0.4839
  189MOL   H14530601   6.463   3.733   4.349  2.1541  1.2104 -1.1668
  189MOL   C14630602   6.328   3.652   4.574  0.1950  0.0200 -0.4754
  189MOL   C14730603   6.191   3.613   4.633  0.5184  0.1477 -0.3817
  189MOL   N14830604   6.120   3.541   4.532 -0.0554 -1.1109 -0.5804
  189MOL   H14930605   6.374   3.564   4.528  2.5095  0.8329  0.1885
  189MOL   H15030606   6.405   3.668   4.650  0.2693 -0.5932 -0.4192
  189MOL   H15130607   6.138   3.704   4.662  0.0734 -0.1661 -0.1958
  189MOL   H15230608   6.020   3.544   4.542 -0.1211 -1.6424 -1.0775
  189MOL   H15330609   6.127   3.606   4.455  0.8081 -2.1093 -1.3624
  189MOL   C15430610   6.206   3.526   4.758  0.1509  0.1361  0.2022
  189MOL   C15530611   6.087   3.548   4.852  0.0215  0.2480 -0.7436
  189MOL   N15630612   6.104   3.464   4.970  0.0780 -0.0828 -0.1770
  189MOL   H15730613   6.242   3.426   4.733  0.3991 -0.1673  1.7132
  189MOL   H15830614   6.289   3.562   4.818 -0.9379  0.4273  1.5498
  189MOL   H15930615   5.988   3.524   4.813 -0.2443  0.1933 -0.0307
  189MOL   H16030616   6.148   3.376   4.946  0.4714 -0.6526  2.4716
  189MOL   H16130617   6.020   3.433   5.017  0.9060  0.3839  1.6369
  189MOL   H16230618   6.088   3.648   4.896 -1.1547 -0.1392  0.1740
  190MOL     C130619   3.695   5.113   6.789 -0.4236  0.3634  0.2947
  190MOL     C230620   3.580   5.019   6.831  0.4422  0.1083 -0.4118
  190MOL     N330621   3.625   4.922   6.926  0.0374 -0.1043 -0.3255
  190MOL     H430622   3.724   5.184   6.866  0.5384  1.6207 -1.2073
  190MOL     H530623   3.670   5.158   6.693  0.1972  0.0505 -0.0180
  190MOL     H630624   3.553   4.963   6.742 -1.8738  0.5758 -0.0315
  190MOL     H730625   3.589   4.832   6.896 -0.7921  0.7254 -1.8582
  190MOL     H830626   3.572   4.936   7.011 -1.8129  0.8891 -1.6129
  190MOL     H930627   3.781   5.049   6.769 -1.5140 -0.1220 -3.2301
  190MOL    C1030628   3.458   5.101   6.881  0.4550 -0.0865 -0.1829
  190MOL    C1130629   3.372   5.192   6.789  0.5391  0.8564  0.3159
  190MOL    N1230630   3.226   5.173   6.818 -0.0230 -0.7220 -0.2887
  190MOL    H1330631   3.399   5.025   6.932  1.4687 -0.2568  0.7491
  190MOL    H1430632   3.483   5.170   6.961 -1.1840  0.6112 -0.2531
  190MOL    H1530633   3.389   5.145   6.693 -0.7069 -1.7617  1.3316
  190MOL    H1630634   3.193   5.079   6.798 -0.1177 -0.5488 -0.9755
  190MOL    H1730635   3.164   5.236   6.769  1.3822  1.1562  0.3231
  190MOL    C1830636   3.401   5.344   6.798  0.0283 -0.9088 -0.4998
  190MOL    C1930637   3.376   5.436   6.673 -0.1464  0.0356 -0.0667
  190MOL    N2030638   3.394   5.579   6.706  0.4966  0.3318  0.0550
  190MOL    H2130639   3.344   5.386   6.881 -1.2210  0.6826 -2.1155
  190MOL    H2230640   3.508   5.352   6.819  0.2264  1.1791 -2.1313
  190MOL    H2330641   3.269   5.421   6.657 -0.0788 -1.5743  0.8926
  190MOL    H2430642   3.480   5.600   6.755  1.3035 -0.0993 -1.1667
  190MOL    H2530643   3.404   5.634   6.622  0.6434 -0.0434 -0.1748
  190MOL    C2630644   3.467   5.401   6.557 -0.0631  0.2205  0.1048
  190MOL    C2730645   3.447   5.484   6.432  0.0806 -0.2053  0.5297
  190MOL    N2830646   3.566   5.470   6.343  0.6435 -0.0771  0.5025
  190MOL    H2930647   3.572   5.414   6.579  0.0690  1.1792 -1.0082
  190MOL    H3030648   3.463   5.302   6.512  0.7184  0.1601  0.1660
  190MOL    H3130649   3.433   5.588   6.464 -2.9804 -0.4398  0.0706
  190MOL    H3230650   3.583   5.371   6.330 -0.3724  0.0083 -1.7619
  190MOL    H3330651   3.652   5.496   6.390  1.4799 -2.7409  0.5258
  190MOL    C3430652   3.314   5.457   6.359 -0.2798  0.4876  0.4066
  190MOL    C3530653   3.257   5.577   6.269  0.5634  0.8374  1.0363
  190MOL    N3630654   3.130   5.544   6.209  0.2816  0.1084 -0.5683
  190MOL    H3730655   3.332   5.368   6.300  2.7255  0.6980  0.9410
  190MOL    H3830656   3.245   5.427   6.438  0.2649  1.7114  1.3676
  190MOL    H3930657   3.324   5.583   6.183  0.6233 -0.9639  0.9473
  190MOL    H4030658   3.119   5.556   6.109 -1.5652  0.6921 -0.3218
  190MOL    H4130659   3.120   5.446   6.232 -0.8203  0.1071 -1.0364
  190MOL    C4230660   3.253   5.719   6.336  0.3960 -0.0010 -0.1876
  190MOL    C4330661   3.362   5.816   6.284 -0.1680 -0.2775  0.5422
  190MOL    N4430662   3.325   5.874   6.152  0.4532 -0.1656  0.3874
  190MOL    H4530663   3.156   5.765   6.320 -0.5559 -2.6152 -2.1497
  190MOL    H4630664   3.252   5.707   6.444 -0.5898  0.5230 -0.1402
  190MOL    H4730665   3.448   5.753   6.263 -0.5109 -1.3463  2.2427
  190MOL    H4830666   3.274   5.796   6.113  1.8006  0.7104 -3.4092
  190MOL    H4930667   3.263   5.952   6.172  0.4617 -0.1493  0.3479
  190MOL    C5030668   3.395   5.926   6.384  0.6141 -0.2178  0.2695
  190MOL    C5130669   3.478   5.885   6.507 -0.3887 -0.0169  0.5003
  190MOL    N5230670   3.605   5.825   6.471 -0.4025  0.1742  0.1909
  190MOL    H5330671   3.451   6.000   6.327  1.2178 -2.3486 -1.9758
  190MOL    H5430672   3.306   5.983   6.412 -0.0424 -0.8088 -0.5944
  190MOL    H5530673   3.417   5.812   6.560  0.0719 -0.0087  1.0403
  190MOL    H5630674   3.669   5.890   6.427 -1.3280  0.3585 -0.9029
  190MOL    H5730675   3.576   5.766   6.395  2.3849  1.5639 -2.0651
  190MOL    C5830676   3.520   6.004   6.592 -0.3437  0.3238 -0.1740
  190MOL    C5930677   3.446   6.002   6.730 -0.1733 -0.5977  0.1678
  190MOL    N6030678   3.527   6.085   6.820  0.7079 -0.0435  0.7121
  190MOL    H6130679   3.625   6.004   6.620 -0.7204 -2.2525  1.4242
  190MOL    H6230680   3.510   6.099   6.540 -2.9205  0.1175 -0.1361
  190MOL    H6330681   3.439   5.896   6.752 -4.5780 -0.5914 -0.6077
  190MOL    H6430682   3.496   6.088   6.916  0.5825  0.4272  0.6547
  190MOL    H6530683   3.544   6.177   6.783 -2.1780  0.4219  0.4365
  190MOL    C6630684   3.299   6.057   6.732 -0.0422  0.1194 -0.4704
  190MOL    C6730685   3.207   6.018   6.856 -0.0830 -0.0637 -0.4515
  190MOL    N6830686   3.151   6.132   6.922 -0.5208  0.2152  0.4097
  190MOL    H6930687   3.309   6.165   6.718 -0.3164  0.0197 -1.4542
  190MOL    H7030688   3.244   6.022   6.644  1.0660 -0.6115 -0.8870
  190MOL    H7130689   3.276   5.984   6.934 -1.2152 -0.7808  0.2585
  190MOL    H7230690   3.083   6.163   6.855 -1.1959 -0.4446  0.7841
  190MOL    H7330691   3.103   6.120   7.010  0.0125  2.9258  1.1341
  190MOL    C7430692   3.098   5.921   6.832  0.0449 -0.8261  0.2970
  190MOL    C7530693   3.154   5.777   6.810 -0.5000  0.1507  0.6440
  190MOL    N7630694   3.232   5.738   6.924 -0.2796 -0.1557 -0.0636
  190MOL    H7730695   3.030   5.912   6.917  0.5929 -0.5208  0.7698
  190MOL    H7830696   3.031   5.963   6.756  0.5430  0.1760  0.3960
  190MOL    H7930697   3.211   5.767   6.718  0.1066 -2.1505  1.2343
  190MOL    H8030698   3.265   5.807   6.989  0.9520 -1.7156  1.0213
  190MOL    H8130699   3.309   5.689   6.879 -0.0185  0.9042 -0.8023
  190MOL    C8230700   3.031   5.676   6.804  0.0542  0.4406 -0.1111
  190MOL    C8330701   2.935   5.688   6.676  0.0968  0.7702 -0.2247
  190MOL    N8430702   2.995   5.637   6.556  0.3666  0.3318 -0.3020
  190MOL    H8530703   3.070   5.575   6.820 -2.0460 -0.3803  0.0596
  190MOL    H8630704   2.968   5.692   6.892  0.3082 -4.1508  1.0719
  190MOL    H8730705   2.911   5.793   6.657 -1.9346  0.6015  1.3120
  190MOL    H8830706   3.093   5.661   6.556  0.9007 -1.7896 -0.5191
  190MOL    H8930707   2.949   5.662   6.469  0.7190 -2.0221 -1.1893
  190MOL    C9030708   2.787   5.628   6.709 -0.0003  0.3690 -0.2587
  190MOL    C9130709   2.705   5.735   6.785 -0.5163 -0.3033  0.1522
  190MOL    N9230710   2.644   5.819   6.681 -0.1919 -0.5167  0.0754
  190MOL    H9330711   2.748   5.597   6.612 -1.5456  0.1037  0.4450
  190MOL    H9430712   2.811   5.533   6.757 -0.8442  0.2761 -0.0150
  190MOL    H9530713   2.758   5.802   6.852  0.9789  0.3960 -1.6851
  190MOL    H9630714   2.611   5.904   6.723 -0.7662 -0.9600  0.5257
  190MOL    H9730715   2.712   5.860   6.618 -0.9213  1.0077  0.2749
  190MOL    C9830716   2.597   5.667   6.863  0.0136  0.3169 -0.4726
  190MOL    C9930717   2.627   5.598   6.995 -0.5416  0.3374  0.3230
  190MOL   N10030718   2.697   5.691   7.084  0.0944  0.0634  0.4058
  190MOL   H10130719   2.517   5.737   6.887  1.1442  1.5737 -0.3105
  190MOL   H10230720   2.553   5.594   6.795 -2.7889  1.4171  0.0907
  190MOL   H10330721   2.700   5.518   6.983 -3.6159 -2.5962  0.4518
  190MOL   H10430722   2.713   5.636   7.167 -0.0252  0.5083  0.7274
  190MOL   H10530723   2.637   5.768   7.111  0.9749  1.4083 -1.3516
  190MOL   C10630724   2.515   5.543   7.080  0.2439  0.6424 -0.0700
  190MOL   C10730725   2.556   5.404   7.144  0.2924  0.6429  0.3364
  190MOL   N10830726   2.456   5.387   7.251 -0.3651  0.3147 -0.3496
  190MOL   H10930727   2.474   5.612   7.154 -0.3704  1.2492 -0.9560
  190MOL   H11030728   2.432   5.532   7.011 -1.8762  2.5473  2.0832
  190MOL   H11130729   2.651   5.415   7.196 -0.0926  1.2373  0.9288
  190MOL   H11230730   2.505   5.317   0.030  0.5804 -0.1918 -1.8262
  190MOL   H11330731   2.369   5.339   7.233 -0.5017 -0.0901  1.3134
  190MOL   C11430732   2.548   5.288   7.040 -0.2156 -0.1871  0.3233
  190MOL   C11530733   2.615   5.156   7.087 -0.3471 -0.3816  0.4250
  190MOL   N11630734   2.582   5.057   6.991 -0.0130  0.0593  0.4598
  190MOL   H11730735   2.446   5.269   7.006 -0.1802  0.6639 -0.2671
  190MOL   H11830736   2.603   5.312   6.949  1.9896 -2.5054  0.9903
  190MOL   H11930737   2.577   5.124   7.184  0.3852 -1.5338  0.3437
  190MOL   H12030738   2.636   5.086   6.911 -2.2375 -0.2183 -1.1781
  190MOL   H12130739   2.638   4.976   7.014  1.9536  1.2146 -0.1211
  190MOL   C12230740   2.774   5.150   7.094  0.4504 -0.2830 -0.3547
  190MOL   C12330741   2.833   5.025   7.172  0.1744 -0.2251  0.3256
  190MOL   N12430742   2.959   4.989   7.110 -0.0375 -0.2788 -0.2312
  190MOL   H12530743   2.810   5.154   6.992  2.4279 -0.8152  0.2820
  190MOL   H12630744   2.810   5.246   7.133 -4.4202  0.2783  3.2509
  190MOL   H12730745   2.769   4.938   7.161  0.3102 -0.4331  1.1619
  190MOL   H12830746   3.035   5.051   7.138  2.7889 -3.6814 -0.0141
  190MOL   H12930747   2.949   4.989   7.009  0.6442 -0.6805 -0.3044
  190MOL   C13030748   2.850   5.040   0.052  0.2135  0.4941  0.2905
  190MOL   C13130749   2.872   4.912   0.129 -0.0334  0.0733  0.3198
  190MOL   N13230750   2.971   4.939   0.241  0.5661 -0.5706  0.3430
  190MOL   H13330751   2.931   5.110   0.072  0.9867 -0.7738  1.6261
  190MOL   H13430752   2.771   5.104   0.091  0.5356  1.4729 -0.6546
  190MOL   H13530753   2.922   4.848   0.055  0.2451  0.8153 -0.1506
  190MOL   H13630754   3.019   5.025   0.218  0.2634  0.0931  2.1063
  190MOL   H13730755   3.052   4.880   0.231 -0.1681 -1.8241  1.7052
  190MOL   C13830756   2.738   4.852   0.174 -0.0810  0.5284  0.0633
  190MOL   C13930757   2.758   4.708   0.228 -0.3176 -0.3790 -0.1076
  190MOL   N14030758   2.635   4.693   0.310  0.0254  0.1874  0.1048
  190MOL   H14130759   2.703   4.928   0.244 -1.5601  1.6944 -1.8850
  190MOL   H14230760   2.676   4.850   0.085  1.6366 -0.2229 -1.1410
  190MOL   H14330761   2.841   4.696   0.298 -0.1570 -0.5243 -0.3251
  190MOL   H14430762   2.647   4.629   0.387  0.0886 -0.2035 -0.2299
  190MOL   H14530763   2.560   4.643   0.264  0.1607  1.9761 -2.1818
  190MOL   C14630764   2.751   4.602   0.113 -0.8526 -1.0856 -0.2979
  190MOL   C14730765   2.888   4.555   0.065  0.6663  0.1737 -0.3932
  190MOL   N14830766   2.961   4.487   0.170  0.0461 -0.6414 -0.1794
  190MOL   H14930767   2.701   4.511   0.148  0.9115 -2.4207 -1.1919
  190MOL   H15030768   2.682   4.641   0.039 -1.5830 -1.3536  0.2320
  190MOL   H15130769   2.942   4.647   0.042 -2.0300  2.1218  0.8037
  190MOL   H15230770   2.908   4.417   0.220  1.8210 -1.9348 -0.0823
  190MOL   H15330771   2.979   4.548   0.248  1.0900 -0.4257 -0.5891
  190MOL   C15430772   2.879   4.463   7.215 -0.2435 -0.5840 -0.5269
  190MOL   C15530773   2.818   4.531   7.092  0.0569 -0.2697  0.0857
  190MOL   N15630774   2.827   4.438   6.976 -0.2744  0.1611 -0.0727
  190MOL   H15730775   2.981   4.425   7.204  0.3675  0.5131  1.0081
  190MOL   H15830776   2.822   4.377   7.251  0.8185  0.2664  3.5497
  190MOL   H15930777   2.880   4.617   7.065  0.5012 -0.8809 -0.8689
  190MOL   H16030778   2.776   4.355   7.005  0.1460 -0.7120 -1.7669
  190MOL   H16130779   2.918   4.401   6.954 -0.1743  1.6749 -2.2888
  190MOL   H16230780   2.717   4.550   7.127  0.8413 -2.6270  3.9313
  191MOL     C130781   0.692   7.075   1.459 -0.3790  0.1986  0.4816
  191MOL     C230782   0.731   6.988   1.580  0.3183 -0.1542 -0.2381
  191MOL     N330783   0.669   7.074   1.686  0.0185 -0.7028  0.1212
  191MOL     H430784   0.593   7.120   1.460 -1.0338 -1.2238  0.8197
  191MOL     H530785   0.690   7.015   1.368  1.5443 -1.7846  1.6900
  191MOL     H630786   0.837   6.984   1.606  0.4621  1.1370 -0.6159
  191MOL     H730787   0.726   7.157   1.683 -0.1107 -0.6404 -1.0518
  191MOL     H830788   0.690   7.043   1.779 -0.3642 -0.9956  0.1151
  191MOL     H930789   0.766   7.154   1.450  0.2669 -0.3600  0.8083
  191MOL    C1030790   0.669   6.842   1.599  0.3115  0.2706 -0.7238
  191MOL    C1130791   0.712   6.730   1.496  0.6193 -0.5745  0.8399
  191MOL    N1230792   0.855   6.714   1.513  0.1605 -0.5578  0.5584
  191MOL    H1330793   0.688   6.802   1.698 -0.7230 -1.2929 -1.1449
  191MOL    H1430794   0.562   6.849   1.613  0.7282  1.3549  2.2294
  191MOL    H1530795   0.700   6.763   1.393 -0.5754 -0.4768  1.0051
  191MOL    H1630796   0.895   6.806   1.501  1.9998 -1.3547  0.4577
  191MOL    H1730797   0.892   6.658   1.437 -1.7927 -0.1055 -0.7750
  191MOL    C1830798   0.643   6.597   1.516 -0.5462  0.1457 -0.0308
  191MOL    C1930799   0.493   6.600   1.478 -0.2962  0.0041  0.0939
  191MOL    N2030800   0.481   6.552   1.344  0.4327  0.1973 -0.0597
  191MOL    H2130801   0.706   6.522   1.467 -0.7569 -0.4486  0.6015
  191MOL    H2230802   0.654   6.580   1.623 -0.0560  4.1707  0.6383
  191MOL    H2330803   0.452   6.700   1.467 -1.1517 -0.4321 -0.8269
  191MOL    H2430804   0.517   6.614   1.273  0.1517 -0.2027 -0.5584
  191MOL    H2530805   0.522   6.462   1.326 -0.2917 -0.2459  0.5198
  191MOL    C2630806   0.409   6.511   1.570 -0.6061 -0.2225  0.1395
  191MOL    C2730807   0.399   6.554   1.720  0.5031 -0.2556 -0.2993
  191MOL    N2830808   0.259   6.596   1.755  0.3481  0.2984  0.0175
  191MOL    H2930809   0.304   6.500   1.543 -0.1953  2.1275 -2.6116
  191MOL    H3030810   0.444   6.409   1.558  0.6036  0.3653 -1.4341
  191MOL    H3130811   0.466   6.640   1.729  2.7833 -1.8733 -1.5330
  191MOL    H3230812   0.188   6.530   1.725  0.5928 -1.7183  3.5825
  191MOL    H3330813   0.240   6.608   1.853 -0.8957  2.1441 -0.4352
  191MOL    C3430814   0.435   6.450   1.823 -0.0501 -0.3006 -0.0626
  191MOL    C3530815   0.469   6.502   1.970 -0.1660 -0.1058  0.2753
  191MOL    N3630816   0.470   6.390   2.064 -0.1802  0.0769 -0.1980
  191MOL    H3730817   0.357   6.374   1.829 -1.0088  0.6781 -0.0340
  191MOL    H3830818   0.517   6.390   1.783 -0.7685  0.9214 -3.5922
  191MOL    H3930819   0.387   6.565   2.004 -0.3742 -0.5356  0.5689
  191MOL    H4030820   0.381   6.344   2.078 -0.0526 -0.5330 -1.3721
  191MOL    H4130821   0.493   6.416   2.159 -0.8828  1.9370 -0.5075
  191MOL    C4230822   0.607   6.572   1.980 -0.1495  0.8853  0.1025
  191MOL    C4330823   0.632   6.661   2.104 -0.6711  0.2364 -0.7917
  191MOL    N4430824   0.768   6.720   2.097  0.2025  0.6026 -0.2171
  191MOL    H4530825   0.679   6.490   1.979 -0.1613  0.8676  0.7104
  191MOL    H4630826   0.627   6.627   1.888  0.9987 -1.5196 -1.1300
  191MOL    H4730827   0.620   6.595   2.190  3.0809 -1.6263 -1.6094
  191MOL    H4830828   0.832   6.644   2.115 -0.6348 -0.0780 -0.0897
  191MOL    H4930829   0.778   6.780   2.178  0.1014  1.0411 -0.5261
  191MOL    C5030830   0.523   6.763   2.139  0.3847  0.4363  0.3267
  191MOL    C5130831   0.482   6.868   2.041 -0.8497 -0.4592 -0.2668
  191MOL    N5230832   0.384   6.948   2.117  0.0036  0.0271  0.6712
  191MOL    H5330833   0.436   6.709   2.176  1.4429  0.4648  2.9617
  191MOL    H5430834   0.551   6.827   2.222  1.5443  2.0009 -1.2132
  191MOL    H5530835   0.433   6.812   1.961 -0.4010 -0.4528 -0.5463
  191MOL    H5630836   0.427   7.020   2.173 -0.8621  1.8567 -0.9823
  191MOL    H5730837   0.334   7.008   2.053 -0.0127  3.4176  3.7135
  191MOL    C5830838   0.593   6.956   1.992  0.2630  0.1457  1.1004
  191MOL    C5930839   0.669   7.054   2.082  0.6753  0.5300 -0.3291
  191MOL    N6030840   0.812   7.060   2.049  0.6912 -0.4185 -0.0062
  191MOL    H6130841   0.660   6.890   1.937 -0.9293 -0.1691  0.0025
  191MOL    H6230842   0.553   7.006   1.903 -0.3045  0.6698  1.6466
  191MOL    H6330843   0.668   7.019   2.185  0.4303 -1.5950 -1.0264
  191MOL    H6430844   0.870   7.116   2.110 -0.5442 -0.3731  1.1527
  191MOL    H6530845   0.849   6.966   2.055  1.1228 -0.1844  1.0781
  191MOL    C6630846   0.622   7.203   2.070 -0.1327 -0.2263  0.6085
  191MOL    C6730847   0.666   0.032   2.168 -0.1708 -0.1626  0.0169
  191MOL    N6830848   0.670   0.170   2.117  0.0715  0.6711 -0.3138
  191MOL    H6930849   0.645   7.238   1.969 -1.3888 -0.3633  0.2664
  191MOL    H7030850   0.515   7.213   2.056  0.3703  0.8261 -2.9604
  191MOL    H7130851   0.768   0.009   2.201  0.4453  3.9598  1.2619
  191MOL    H7230852   0.761   0.205   2.092  1.6697 -2.9390  0.0483
  191MOL    H7330853   0.638   0.229   2.193  0.8053  3.0035 -1.7699
  191MOL    C7430854   0.575   0.023   2.296  0.2504  0.6595  0.4083
  191MOL    C7530855   0.613   0.120   2.416  0.2831 -0.3309  0.2231
  191MOL    N7630856   0.575   0.257   2.392 -0.4897  0.4787  0.3253
  191MOL    H7730857   0.472   0.040   2.264  0.2458  0.8661  0.5357
  191MOL    H7830858   0.586   7.194   2.328  0.8256  0.4163 -0.5803
  191MOL    H7930859   0.718   0.108   2.444  0.2119 -1.2951  0.1040
  191MOL    H8030860   0.564   0.303   2.482  0.9404  2.2064 -0.3696
  191MOL    H8130861   0.478   0.262   2.364 -0.5968  1.1771  0.8160
  191MOL    C8230862   0.532   0.092   2.547 -0.1374  0.5477  0.1058
  191MOL    C8330863   0.593   7.262   2.638  0.2787  0.2515  0.5504
  191MOL    N8430864   0.540   0.001   2.771  0.1708  0.0852  0.4658
  191MOL    H8530865   0.526   0.184   2.605 -0.4322  0.6776 -0.1287
  191MOL    H8630866   0.425   0.079   2.529 -0.6954 -0.5118  3.5953
  191MOL    H8730867   0.702   7.269   2.630  0.2974 -0.2223  0.3041
  191MOL    H8830868   0.540   0.097   2.803  0.5813  0.4969 -0.7612
  191MOL    H8930869   0.599   7.231   2.839  0.1123 -1.5733 -0.5734
  191MOL    C9030870   0.538   7.115   2.602 -0.1421 -0.6440 -0.8882
  191MOL    C9130871   0.633   6.995   2.634  0.5841  0.5318  0.3991
  191MOL    N9230872   0.549   6.875   2.632 -0.1313 -0.4360  0.1576
  191MOL    H9330873   0.444   7.099   2.655 -0.4860 -0.3519 -1.4100
  191MOL    H9430874   0.511   7.107   2.497  0.6508  1.7508 -1.3112
  191MOL    H9530875   0.677   6.985   2.733  2.0985 -1.3155 -0.4129
  191MOL    H9630876   0.493   6.874   2.717  0.6946 -2.5384  0.7141
  191MOL    H9730877   0.481   6.878   2.557  1.6732  0.3715 -1.4865
  191MOL    C9830878   0.743   6.977   2.533  0.0858 -0.3133 -0.1817
  191MOL    C9930879   0.871   7.065   2.556 -0.2304  0.2431  0.5435
  191MOL   N10030880   0.912   7.085   2.691 -0.3707 -0.3324  0.4909
  191MOL   H10130881   0.788   6.878   2.531  1.5800  0.3608 -0.7626
  191MOL   H10230882   0.706   6.976   2.430 -0.5147  0.6032  0.0211
  191MOL   H10330883   0.850   7.167   2.524 -2.1075  0.1369  1.3408
  191MOL   H10430884   0.827   7.118   2.735 -0.7078  1.0380 -1.1510
  191MOL   H10530885   0.926   6.993   2.730  2.0665 -0.2077 -0.0255
  191MOL   C10630886   0.987   7.023   2.472  0.4851  0.3773  0.0571
  191MOL   C10730887   1.086   7.131   2.419 -0.5809  0.3397  0.0215
  191MOL   N10830888   1.021   7.198   2.318 -0.4735  0.2050 -0.2969
  191MOL   H10930889   1.048   6.953   2.530  0.2155  0.1635  0.0856
  191MOL   H11030890   0.947   6.970   2.385 -1.7182 -0.7332  1.6748
  191MOL   H11130891   1.170   7.082   2.372 -0.6206  0.0082  0.2990
  191MOL   H11230892   1.098   7.235   2.264  0.1304 -0.0987  0.3408
  191MOL   H11330893   0.989   0.007   2.362  0.2352  0.2086  0.2291
  191MOL   C11430894   1.151   7.226   2.524 -0.0809 -0.5647  0.5076
  191MOL   C11530895   1.228   7.151   2.637  0.3639  0.0674 -0.0577
  191MOL   N11630896   1.364   7.125   2.605  0.3946 -0.2496 -0.2153
  191MOL   H11730897   1.227   0.017   2.483 -0.0295  0.1672  1.7569
  191MOL   H11830898   1.071   0.004   2.573 -1.1821 -0.1984 -1.6311
  191MOL   H11930899   1.187   7.052   2.656  0.1017  0.6641  2.7897
  191MOL   H12030900   1.409   7.075   2.680 -0.1463  1.5232  1.3194
  191MOL   H12130901   1.354   7.042   2.549  1.3497  0.4014 -1.3827
  191MOL   C12230902   1.211   7.224   2.770 -1.0995  0.3091  0.2174
  191MOL   C12330903   1.316   7.192   2.882  0.2461  0.2669  0.4186
  191MOL   N12430904   1.339   0.025   2.979  0.1638 -0.0980 -0.0323
  191MOL   H12530905   1.214   0.055   2.745  0.9318  0.0591 -0.6631
  191MOL   H12630906   1.110   7.206   2.807 -1.8123  0.6039 -1.5325
  191MOL   H12730907   1.414   7.191   2.835  0.3983  1.2663  0.6882
  191MOL   H12830908   1.305   0.112   2.941  0.7528  0.5455  0.8935
  191MOL   H12930909   1.274   0.005   3.054  0.6045 -0.0043  0.3786
  191MOL   C13030910   1.297   7.056   2.951 -0.0519  0.0225  0.1948
  191MOL   C13130911   1.419   6.985   3.010  0.2107  0.2979 -0.2096
  191MOL   N13230912   1.475   7.070   3.113  0.2589 -0.4820 -0.3941
  191MOL   H13330913   1.217   7.068   3.024 -0.6226  0.0597 -0.4321
  191MOL   H13430914   1.256   6.988   2.875  0.9481 -2.3498  1.7188
  191MOL   H13530915   1.496   6.966   2.935  0.2445  0.0683 -0.1178
  191MOL   H13630916   1.453   7.168   3.105  4.5632  0.5418 -0.9818
  191MOL   H13730917   1.444   7.028   3.199  1.2464 -0.5611 -0.0714
  191MOL   C13830918   1.368   6.856   3.071  0.1105  0.4606 -0.4082
  191MOL   C13930919   1.359   6.738   2.971  0.7675 -0.3690 -0.0206
  191MOL   N14030920   1.394   6.615   3.040  0.0560 -0.2261 -0.0212
  191MOL   H14130921   1.438   6.825   3.149 -2.2435 -0.5492  1.3714
  191MOL   H14230922   1.276   6.870   3.127  0.3262 -1.7220  0.5480
  191MOL   H14330923   1.432   6.756   2.892  1.7654  1.6993  1.3389
  191MOL   H14430924   1.393   6.541   2.972 -0.9227  0.2725 -0.5548
  191MOL   H14530925   1.489   6.624   3.072  0.2221 -2.1766  0.1448
  191MOL   C14630926   1.211   6.720   2.917  0.6452 -0.3393 -0.3491
  191MOL   C14730927   1.200   6.643   2.789 -0.1242 -0.0515  0.2175
  191MOL   N14830928   1.068   6.587   2.772  0.3446 -0.3509 -1.1080
  191MOL   H14930929   1.140   6.672   2.984 -1.6548  2.3734 -0.7639
  191MOL   H15030930   1.167   6.814   2.882 -0.2210 -0.1657  1.1771
  191MOL   H15130931   1.266   6.556   2.799 -0.1921 -0.1603 -0.2403
  191MOL   H15230932   1.074   6.518   2.699  0.9349 -2.4942  0.8937
  191MOL   H15330933   1.037   6.530   2.849  0.7592  0.5621 -0.2504
  191MOL   C15430934   1.222   6.721   2.659 -0.1387  0.2067  0.8964
  191MOL   C15530935   1.359   6.755   2.612  0.2573  0.0174  0.4078
  191MOL   N15630936   1.366   6.815   2.480 -0.1275 -0.1393 -0.0187
  191MOL   H15730937   1.179   6.659   2.580  0.5303 -2.3806  2.5002
  191MOL   H15830938   1.162   6.812   2.661  0.6727  0.7559  0.4695
  191MOL   H15930939   1.415   6.662   2.607  0.3398  0.1120 -0.4509
  191MOL   H16030940   1.454   6.808   2.431  0.6405  1.0813  1.1643
  191MOL   H16130941   1.311   6.762   2.412 -0.3457 -2.2513  1.7521
  191MOL   H16230942   1.416   6.803   2.692 -1.0669  0.8300  0.8824
  192MOL     C130943   3.706   3.628   5.770  0.0769  0.8597 -0.1240
  192MOL     C230944   3.651   3.507   5.688 -0.2930 -0.3860 -0.2974
  192MOL     N330945   3.715   3.541   5.559  0.6113 -0.2551  0.1388
  192MOL     H430946   3.668   3.642   5.871  1.1410  3.8459 -0.0901
  192MOL     H530947   3.664   3.716   5.721  1.6258  0.4967 -2.1848
  192MOL     H630948   3.542   3.511   5.681 -0.4103 -1.6297  0.7228
  192MOL     H730949   3.783   3.615   5.573  0.7046 -0.7522  2.6753
  192MOL     H830950   3.765   3.457   5.533 -0.8943 -1.2585  0.4193
  192MOL     H930951   3.814   3.636   5.775  0.1468 -0.0857  0.0601
  192MOL    C1030952   3.707   3.369   5.750 -0.6234  0.1758  1.2259
  192MOL    C1130953   3.649   3.309   5.875 -0.2723  1.0606  0.0409
  192MOL    N1230954   3.741   3.205   5.915  0.3491 -0.5341  0.5346
  192MOL    H1330955   3.717   3.295   5.670 -0.7647  2.1006 -0.6311
  192MOL    H1430956   3.811   3.391   5.776  1.0955 -4.8527 -0.7628
  192MOL    H1530957   3.556   3.255   5.857  0.8578 -0.9163  0.0053
  192MOL    H1630958   3.713   3.139   5.986 -1.2360  1.3284  1.6869
  192MOL    H1730959   3.732   3.147   5.833 -1.3661 -1.3171  1.2724
  192MOL    C1830960   3.617   3.394   5.997  0.6982 -0.4376 -0.2094
  192MOL    C1930961   3.564   3.329   6.120  0.5293 -0.4197  0.1970
  192MOL    N2030962   3.557   3.415   6.233  0.0740  0.1569  0.1313
  192MOL    H2130963   3.708   3.444   6.029  1.1807  0.0189 -2.1770
  192MOL    H2230964   3.543   3.467   5.963  0.9754 -0.0353  0.0521
  192MOL    H2330965   3.629   3.250   6.158  0.3950 -0.7728 -0.3031
  192MOL    H2430966   3.638   3.472   6.254  0.4039 -0.6708  1.2082
  192MOL    H2530967   3.526   3.369   6.318 -1.1731  0.2057 -0.3006
  192MOL    C2630968   3.418   3.269   6.115  0.3948 -0.5012  0.0354
  192MOL    C2730969   3.360   3.188   6.237  0.1395 -0.4460  0.1767
  192MOL    N2830970   3.226   3.156   6.212  0.5023 -0.0456  0.3497
  192MOL    H2930971   3.354   3.354   6.095 -0.5704 -1.3586 -0.5558
  192MOL    H3030972   3.410   3.209   6.025  0.2516  1.0811 -1.0174
  192MOL    H3130973   3.346   3.244   6.329  1.1603 -1.5286  1.0089
  192MOL    H3230974   3.193   3.092   6.283  1.4858 -0.0336  0.8322
  192MOL    H3330975   3.229   3.088   6.137  0.5356  2.6799 -2.1835
  192MOL    C3430976   3.434   3.053   6.252  0.2250  0.1570  0.5178
  192MOL    C3530977   3.449   2.997   6.395 -0.2995  0.1525  0.3668
  192MOL    N3630978   3.518   2.869   6.377  0.1847  0.1566 -0.2254
  192MOL    H3730979   3.380   2.981   6.190  0.7211 -0.1073  0.3845
  192MOL    H3830980   3.534   3.070   6.210 -0.3432 -0.4513 -1.1367
  192MOL    H3930981   3.349   2.990   6.437 -0.9315 -0.0987 -1.1324
  192MOL    H4030982   3.566   2.830   6.457  2.7634 -1.4672 -2.4559
  192MOL    H4130983   3.454   2.800   6.340 -0.1108 -0.5663  1.6081
  192MOL    C4230984   3.536   3.075   6.492 -0.2687 -0.3215 -0.4864
  192MOL    C4330985   3.465   3.123   6.623 -0.2055  0.1143  0.0656
  192MOL    N4430986   3.562   3.121   6.721 -0.3558  0.1320  0.0191
  192MOL    H4530987   3.631   3.026   6.513 -0.4300 -0.4601 -0.0719
  192MOL    H4630988   3.578   3.162   6.442  3.1390 -1.1857  0.7541
  192MOL    H4730989   3.398   3.044   6.656  0.5258  0.1668  1.7164
  192MOL    H4830990   3.627   3.198   6.716 -0.0382 -0.1553 -0.3254
  192MOL    H4930991   3.534   3.148   6.814  0.8954  1.8418 -0.0795
  192MOL    C5030992   3.385   3.253   6.619 -0.3099  0.2989  0.0855
  192MOL    C5130993   3.233   3.239   6.590  0.5332  0.1979  0.0902
  192MOL    N5230994   3.167   3.156   6.691  0.1036 -0.0629 -0.3102
  192MOL    H5330995   3.409   3.308   6.710  0.8878 -0.2398  0.1094
  192MOL    H5430996   3.438   3.315   6.547  0.8479  1.2175  1.6939
  192MOL    H5530997   3.213   3.189   6.495  0.3709  1.5661 -0.6132
  192MOL    H5630998   3.073   3.190   6.674  0.1779  0.5785  0.5353
  192MOL    H5730999   3.167   3.057   6.674 -0.6203  0.1914 -1.9084
  192MOL    C5831000   3.159   3.378   6.579 -0.2159  0.3540 -0.2580
  192MOL    C5931001   3.197   3.468   6.459 -0.6797  0.3326 -0.1050
  192MOL    N6031002   3.139   3.427   6.333 -0.0655  0.5677 -0.1404
  192MOL    H6131003   3.052   3.378   6.600 -0.3317 -1.2347 -0.8024
  192MOL    H6231004   3.192   3.433   6.667 -0.5626  0.1433  0.0058
  192MOL    H6331005   3.306   3.470   6.451 -0.6512 -1.3449 -0.4328
  192MOL    H6431006   3.185   3.489   6.269  0.3224  0.1565 -0.2697
  192MOL    H6531007   3.176   3.335   6.314 -0.2821  0.3277  0.5577
  192MOL    C6631008   3.155   3.613   6.481 -0.0521  0.1619  0.4738
  192MOL    C6731009   3.234   3.704   6.587  0.5197  0.0923  0.1794
  192MOL    N6831010   3.369   3.726   6.527  1.0366 -0.3372  0.0066
  192MOL    H6931011   3.148   3.663   6.384 -1.5979  0.7331  0.8623
  192MOL    H7031012   3.054   3.616   6.520 -0.4483 -1.4070 -0.3881
  192MOL    H7131013   3.250   3.656   6.683 -1.0736 -3.1366 -1.0742
  192MOL    H7231014   3.375   3.763   6.433 -0.8906  0.5727  0.2321
  192MOL    H7331015   3.413   3.801   6.579 -0.4360  1.9202 -1.8784
  192MOL    C7431016   3.166   3.835   6.615  0.0905 -0.1908  0.6068
  192MOL    C7531017   3.099   3.914   6.497 -0.5994 -0.1211  0.2874
  192MOL    N7631018   2.963   3.863   6.465  0.0341  0.7243  0.3371
  192MOL    H7731019   3.090   3.829   6.694 -1.9535  0.6125 -1.2345
  192MOL    H7831020   3.240   3.899   6.664  0.1355 -0.5492  1.0060
  192MOL    H7931021   3.162   3.907   6.409 -0.3030  0.5007  0.4431
  192MOL    H8031022   2.975   3.787   6.399 -2.0145  0.0249  0.7495
  192MOL    H8131023   2.921   3.941   6.416 -1.4512  0.2539  0.8252
  192MOL    C8231024   3.086   4.065   6.543  0.5396  0.0062  1.0372
  192MOL    C8331025   3.201   4.158   6.496 -0.0784  0.0218  0.1147
  192MOL    N8431026   3.203   4.151   6.350 -0.0402  0.5191 -0.2993
  192MOL    H8531027   2.998   4.106   6.493  1.6094 -0.0040 -0.9009
  192MOL    H8631028   3.054   4.081   6.646 -0.9648  2.1689  0.2963
  192MOL    H8731029   3.296   4.117   6.529 -1.6318 -1.6732  2.6495
  192MOL    H8831030   3.266   4.228   6.332  1.3116 -0.7962 -1.3823
  192MOL    H8931031   3.113   4.183   6.317 -0.5507 -1.1462 -0.5836
  192MOL    C9031032   3.186   4.306   6.537  1.1213 -0.1860  0.0341
  192MOL    C9131033   3.315   4.388   6.508  0.2852  0.0453 -0.0284
  192MOL    N9231034   3.274   4.524   6.485  0.0200  0.1007  0.4044
  192MOL    H9331035   3.091   4.342   6.497  1.6178  0.6590 -0.3887
  192MOL    H9431036   3.158   4.312   6.642  1.0645  0.7812 -0.0373
  192MOL    H9531037   3.355   4.365   6.410 -2.5076 -0.6461 -1.0703
  192MOL    H9631038   3.221   4.542   6.569 -0.0959 -4.0069  1.3269
  192MOL    H9731039   3.354   4.585   6.496 -1.3379  1.9451  0.2301
  192MOL    C9831040   3.423   4.384   6.617 -0.6385 -0.2725 -0.2725
  192MOL    C9931041   3.573   4.410   6.570 -0.6304  0.2263  0.1095
  192MOL   N10031042   3.604   4.309   6.471  0.4474 -0.2352 -0.1385
  192MOL   H10131043   3.401   4.456   6.695 -0.1056  1.3638 -1.5853
  192MOL   H10231044   3.420   4.284   6.659  0.3698 -0.5134 -0.7563
  192MOL   H10331045   3.628   4.382   6.660 -0.8227 -2.0590 -0.4419
  192MOL   H10431046   3.701   4.314   6.445  0.3951  0.6693 -0.1815
  192MOL   H10531047   3.556   4.352   6.393  2.6855  2.6247 -0.0059
  192MOL   C10631048   3.603   4.552   6.525  0.4025 -0.8011  0.1106
  192MOL   C10731049   3.740   4.597   6.565 -0.9249  0.1380 -0.0208
  192MOL   N10831050   3.777   4.724   6.495 -0.0112  0.1665  0.2929
  192MOL   H10931051   3.581   4.561   6.418 -2.4539  0.2243  0.7402
  192MOL   H11031052   3.541   4.616   6.587  1.2305 -0.9543  1.1032
  192MOL   H11131053   3.810   4.524   6.525  0.1653  1.7513 -1.1252
  192MOL   H11231054   3.798   4.713   6.396  2.3821  0.5074  0.7336
  192MOL   H11331055   3.865   4.756   6.534  1.1074 -1.5055 -0.7672
  192MOL   C11431056   3.778   4.620   6.716  0.3236  0.2330  0.2352
  192MOL   C11531057   3.841   4.503   6.795 -0.3292  0.3832  0.3726
  192MOL   N11631058   3.985   4.514   6.777  0.3622 -0.0118  0.1080
  192MOL   H11731059   3.841   4.706   6.735  1.2225  0.3928 -3.1659
  192MOL   H11831060   3.689   4.654   6.769  0.6816  1.8446 -0.1755
  192MOL   H11931061   3.805   4.414   6.743  1.0567  0.3866 -0.6057
  192MOL   H12031062   4.031   4.593   6.819 -0.2921  0.0469  0.7292
  192MOL   H12131063   3.999   4.537   6.680 -0.6996 -1.3969 -0.3938
  192MOL   C12231064   3.807   4.506   6.944 -0.1183 -0.0155  0.6414
  192MOL   C12331065   3.673   4.449   6.983  0.0524  0.1613  0.9454
  192MOL   N12431066   3.651   4.320   6.920 -0.2347 -0.3939  0.1620
  192MOL   H12531067   3.884   4.457   7.005  0.3210 -1.4889 -1.0525
  192MOL   H12631068   3.820   4.611   6.969  0.4877  0.2406 -0.7107
  192MOL   H12731069   3.593   4.520   6.962 -0.5684 -0.3664  1.5189
  192MOL   H12831070   3.602   4.255   6.979 -3.5814  1.5007 -0.3668
  192MOL   H12931071   3.737   4.277   6.890 -0.8154 -1.9961  0.7665
  192MOL   C13031072   3.667   4.419   7.136 -0.6175  0.2624  0.1117
  192MOL   C13131073   3.524   4.412   7.195  0.1541 -0.0533  0.0635
  192MOL   N13231074   3.545   4.342   0.046 -0.1180 -0.6032  0.6432
  192MOL   H13331075   3.724   4.332   7.167 -0.4288  0.5354  0.5376
  192MOL   H13431076   3.730   4.488   7.193 -1.3610  2.7053 -1.9208
  192MOL   H13531077   3.461   4.367   7.118 -0.6035  0.8647  0.1330
  192MOL   H13631078   3.607   4.262   0.038 -0.8035 -1.0289 -0.5304
  192MOL   H13731079   3.456   4.306   0.076 -1.1051  2.4310  1.4710
  192MOL   C13831080   3.463   4.555   7.230 -0.1882  0.5332  0.6611
  192MOL   C13931081   3.305   4.558   7.232 -0.3140  0.0819 -0.2186
  192MOL   N14031082   3.257   4.609   0.089  0.3555 -0.7513 -0.1971
  192MOL   H14131083   3.492   4.612   0.043 -2.8456  3.0510 -0.0169
  192MOL   H14231084   3.485   4.618   7.145  0.5584 -0.0287  0.4346
  192MOL   H14331085   3.257   4.462   7.209 -4.7267  2.0526  0.3080
  192MOL   H14431086   3.289   4.534   0.149 -1.9913 -0.8917  0.9197
  192MOL   H14531087   3.156   4.605   0.089  0.2772  0.6784  2.0284
  192MOL   C14631088   3.235   4.641   7.114 -0.5416 -0.3138 -0.0892
  192MOL   C14731089   3.241   4.570   6.976  0.6271 -0.3935 -0.4332
  192MOL   N14831090   3.154   4.450   6.988 -0.9150 -0.5000 -0.5094
  192MOL   H14931091   3.131   4.670   7.127 -1.1854 -2.5024 -0.1707
  192MOL   H15031092   3.284   4.738   7.116  1.6026 -1.3940  1.4443
  192MOL   H15131093   3.345   4.541   6.958  0.6531 -0.0497 -0.8619
  192MOL   H15231094   3.156   4.412   7.081  0.6901 -2.3199 -1.2735
  192MOL   H15331095   3.067   4.502   6.988  0.4043  1.8027 -0.1719
  192MOL   C15431096   3.201   4.648   6.850  0.0554 -0.7478  0.9934
  192MOL   C15531097   3.290   4.772   6.839 -0.4726  0.1390 -0.3276
  192MOL   N15631098   3.263   4.858   6.725  0.0888  0.5239 -0.1054
  192MOL   H15731099   3.212   4.591   6.758 -2.2399 -0.9164  0.7810
  192MOL   H15831100   3.096   4.674   6.865  0.3136 -0.1322  1.8075
  192MOL   H15931101   3.396   4.751   6.842 -0.5273 -0.0488  0.4827
  192MOL   H16031102   3.163   4.844   6.716  0.0125 -1.2318  2.9339
  192MOL   H16131103   3.308   4.834   6.638  0.2383  1.1582 -0.2081
  192MOL   H16231104   3.271   4.839   6.923  3.4493 -0.3082  1.0024
  193MOL     C131105   7.053   1.163   7.172  0.4708  0.2314  0.0715
  193MOL     C231106   7.017   1.122   0.038 -0.2375  0.6162 -0.0774
  193MOL     N331107   7.131   1.143   0.121 -0.5031 -0.1045  0.5674
  193MOL     H431108   7.156   1.129   7.158  1.3219  1.8246  2.1794
  193MOL     H531109   7.056   1.270   7.155 -0.1439  0.0290 -1.3488
  193MOL     H631110   7.014   1.013   0.037  0.8336  0.5937 -2.8649
  193MOL     H731111   7.116   1.097   0.210  0.1448 -1.7231 -0.1229
  193MOL     H831112   7.202   1.085   0.079 -2.2828 -0.4082 -2.1317
  193MOL     H931113   6.989   1.117   7.097 -1.5703 -0.3982  2.1392
  193MOL    C1031114   6.889   1.182   0.105 -0.6739  0.6974  0.4593
  193MOL    C1131115   6.761   1.100   0.066 -0.0132 -0.2710 -0.2726
  193MOL    N1231116   6.651   1.164   0.127  0.1074  0.1082 -0.3027
  193MOL    H1331117   6.908   1.182   0.212  1.2825  0.8283  0.1305
  193MOL    H1431118   6.874   1.287   0.083 -0.3969  0.8457  0.9692
  193MOL    H1531119   6.760   0.999   0.108 -0.2711  0.4709  1.5259
  193MOL    H1631120   6.626   1.103   0.203 -0.9087  0.5069 -0.3103
  193MOL    H1731121   6.571   1.160   0.065 -1.3890 -2.1976  1.6604
  193MOL    C1831122   6.726   1.105   7.198  0.6112  0.8499  0.5982
  193MOL    C1931123   6.752   0.981   7.117 -0.0971  0.2511 -0.3482
  193MOL    N2031124   6.695   0.864   7.186  0.0482  0.2041 -0.1934
  193MOL    H2131125   6.625   1.142   7.177  0.4277  1.0801  1.8212
  193MOL    H2231126   6.796   1.170   7.146  2.4441 -0.9616  0.7299
  193MOL    H2331127   6.856   0.948   7.110 -0.4185 -1.0243  0.6971
  193MOL    H2431128   6.739   0.840   7.274  0.3781 -1.6787 -0.8398
  193MOL    H2531129   6.595   0.871   7.204 -0.4084  0.2787 -2.6259
  193MOL    C2631130   6.678   0.998   6.978  0.5001 -0.3620  0.1811
  193MOL    C2731131   6.731   0.906   6.865  0.8137 -0.0763 -0.2372
  193MOL    N2831132   6.732   0.767   6.898  0.3815  0.4104 -0.1057
  193MOL    H2931133   6.570   0.983   6.979  0.3967  0.3679  0.7981
  193MOL    H3031134   6.685   1.103   6.948 -1.7667 -0.1333  0.3287
  193MOL    H3131135   6.833   0.937   6.842  0.7330 -0.4598 -1.0989
  193MOL    H3231136   6.713   0.768   6.997 -0.0434  0.7976 -0.1924
  193MOL    H3331137   6.647   0.722   6.869  0.4142 -1.6951  2.8031
  193MOL    C3431138   6.655   0.923   6.732  0.3806 -0.5479  0.0852
  193MOL    C3531139   6.654   1.067   6.677 -0.9850 -0.7613  0.2622
  193MOL    N3631140   6.781   1.129   6.650 -0.6387 -0.3788 -0.4170
  193MOL    H3731141   6.690   0.860   6.650 -0.9330  1.8228 -2.3604
  193MOL    H3831142   6.551   0.898   6.751  0.3305 -0.8428 -0.5535
  193MOL    H3931143   6.614   1.128   6.758  0.0447  0.1501  0.1021
  193MOL    H4031144   6.830   1.066   6.588  0.3552  0.3793 -0.4080
  193MOL    H4131145   6.758   1.212   6.598  0.6734  1.0013  1.1644
  193MOL    C4231146   6.565   1.075   6.554  0.6489  0.0889  0.1434
  193MOL    C4331147   6.414   1.107   6.570 -0.0708  0.4012  0.9385
  193MOL    N4431148   6.397   1.231   6.651  0.1050  0.2770 -0.3826
  193MOL    H4531149   6.613   1.153   6.495 -0.8826 -0.9918 -2.6721
  193MOL    H4631150   6.575   0.991   6.484  0.6463 -0.3668  0.6915
  193MOL    H4731151   6.379   1.015   6.616  1.8645 -0.6838  0.3359
  193MOL    H4831152   6.302   1.264   6.660 -0.1327 -0.3548 -0.5065
  193MOL    H4931153   6.415   1.206   6.747  0.7786  2.0077 -0.0567
  193MOL    C5031154   6.348   1.126   6.431  0.3340 -0.2094  0.6507
  193MOL    C5131155   6.281   0.986   6.389 -0.0125 -0.4602  0.3817
  193MOL    N5231156   6.151   0.980   6.458  0.3902  1.1345 -0.0983
  193MOL    H5331157   6.279   1.210   6.426  2.8583  2.1079  2.7294
  193MOL    H5431158   6.427   1.146   6.358 -3.1288  2.1295 -2.6191
  193MOL    H5531159   6.344   0.908   6.432 -0.1853 -0.5756  0.4278
  193MOL    H5631160   6.080   0.941   6.397  1.5447  0.7407 -1.2192
  193MOL    H5731161   6.154   0.918   6.538  0.3509  1.1377 -0.0951
  193MOL    C5831162   6.286   0.964   6.238 -0.6644 -0.3725 -0.1034
  193MOL    C5931163   6.327   0.819   6.203 -0.0838 -0.4645 -0.0988
  193MOL    N6031164   6.300   0.795   6.067 -0.1829 -0.1522  0.5062
  193MOL    H6131165   6.185   0.982   6.199 -0.1159  1.8173 -0.5819
  193MOL    H6231166   6.354   1.033   6.189  1.1682 -0.1687  2.6310
  193MOL    H6331167   6.263   0.745   6.251 -0.4794  0.1137  0.2785
  193MOL    H6431168   6.341   0.848   5.992  1.5751 -2.7845 -0.4650
  193MOL    H6531169   6.322   0.700   6.040  0.5960  0.0661  0.3517
  193MOL    C6631170   6.470   0.777   6.239 -0.3039 -0.0829 -0.4053
  193MOL    C6731171   6.478   0.628   6.271  0.2156 -0.0602  0.0559
  193MOL    N6831172   6.616   0.592   6.255 -0.2294  0.0660  0.4859
  193MOL    H6931173   6.547   0.805   6.167  1.3079  0.0585  1.3319
  193MOL    H7031174   6.499   0.832   6.329 -0.6167 -0.3119 -0.1617
  193MOL    H7131175   6.424   0.565   6.202 -3.1097  1.4097  1.2107
  193MOL    H7231176   6.636   0.528   6.330  2.0505  2.0366  1.6244
  193MOL    H7331177   6.684   0.664   6.275  0.7309 -1.0469  1.3102
  193MOL    C7431178   6.428   0.594   6.417 -0.3861 -1.0619  0.7701
  193MOL    C7531179   6.382   0.442   6.446 -0.3466 -0.9901  0.1287
  193MOL    N7631180   6.338   0.438   6.583  0.7708  0.0414 -0.2817
  193MOL    H7731181   6.518   0.607   6.477  0.4485  0.4956 -0.7507
  193MOL    H7831182   6.340   0.656   6.432 -0.4541 -0.6632 -1.1613
  193MOL    H7931183   6.465   0.374   6.428 -0.1963 -1.4995  2.6370
  193MOL    H8031184   6.285   0.519   6.611 -0.6304  0.0905 -2.9087
  193MOL    H8131185   6.265   0.370   6.568 -0.7759  1.4131  0.8512
  193MOL    C8231186   6.253   0.408   6.363 -0.0560  0.4041  0.4104
  193MOL    C8331187   6.250   0.251   6.346  0.2965 -0.5659 -0.7601
  193MOL    N8431188   6.203   0.188   6.468 -0.9682  0.0758 -0.1365
  193MOL    H8531189   6.156   0.442   6.398 -0.2819  0.4221 -0.2154
  193MOL    H8631190   6.259   0.450   6.262 -1.3490  0.3587  0.3063
  193MOL    H8731191   6.349   0.215   6.319  2.0629  2.2634  1.5513
  193MOL    H8831192   6.169   0.097   6.443 -2.7296  0.0879  2.0502
  193MOL    H8931193   6.283   0.167   6.527 -1.1534  0.0550  0.1046
  193MOL    C9031194   6.146   0.211   6.244  0.1438  0.2103 -0.2007
  193MOL    C9131195   6.171   0.077   6.166 -0.4687 -0.0704  0.0888
  193MOL    N9231196   6.129   7.246   6.252 -0.3064  0.2434  0.3511
  193MOL    H9331197   6.044   0.223   6.282  0.0766 -1.0429  0.0448
  193MOL    H9431198   6.158   0.284   6.165  1.0446  0.2378 -0.0419
  193MOL    H9531199   6.277   0.071   6.141 -1.3900 -1.5370 -3.8533
  193MOL    H9631200   6.201   7.230   6.322 -0.2716  0.6738  0.4134
  193MOL    H9731201   6.113   7.165   6.195 -1.8991  0.6585  0.1856
  193MOL    C9831202   6.092   0.071   6.031  0.0792  0.9214 -0.0738
  193MOL    C9931203   6.165   0.120   5.905  0.4188 -0.4545  0.1731
  193MOL   N10031204   6.078   0.087   5.792  0.2809 -0.2092  0.7379
  193MOL   H10131205   6.068   7.243   6.010  2.3500  0.2812  0.4561
  193MOL   H10231206   5.998   0.128   6.035 -1.5152 -1.7134  1.5254
  193MOL   H10331207   6.252   0.054   5.897 -0.9103 -2.2415  0.0375
  193MOL   H10431208   6.063   7.263   5.802 -2.1902  0.0152 -0.5535
  193MOL   H10531209   6.132   0.090   5.707  1.2077  2.4486  1.3658
  193MOL   C10631210   6.216   0.269   5.908  0.1062  0.6147 -0.4671
  193MOL   C10731211   6.293   0.331   5.792  0.6173  0.0206  0.1073
  193MOL   N10831212   6.203   0.345   5.673 -0.1430 -0.4602  0.4401
  193MOL   H10931213   6.141   0.342   5.939 -1.0166 -0.4808 -0.5616
  193MOL   H11031214   6.292   0.251   5.985  0.9357 -2.7811 -1.9865
  193MOL   H11131215   6.374   0.264   5.766  1.2674  1.5690 -2.0697
  193MOL   H11231216   6.122   0.285   5.688 -1.7031  1.8810  1.7625
  193MOL   H11331217   6.160   0.436   5.668 -0.3846 -0.5686  0.5075
  193MOL   C11431218   6.338   0.478   5.832  0.1430 -0.3530 -0.3844
  193MOL   C11531219   6.460   0.526   5.750  0.0215 -0.3877 -0.7470
  193MOL   N11631220   6.408   0.554   5.613 -0.0038 -0.3392 -0.8142
  193MOL   H11731221   6.261   0.555   5.819  1.5270  0.7340 -2.4608
  193MOL   H11831222   6.360   0.464   5.937 -0.5683 -2.0738 -0.4333
  193MOL   H11931223   6.537   0.449   5.752  2.1919  1.7585 -0.3948
  193MOL   H12031224   6.342   0.481   5.592  0.0957 -0.3547 -1.0748
  193MOL   H12131225   6.486   0.550   5.549  1.0812 -1.0840  0.5124
  193MOL   C12231226   6.515   0.664   5.806  0.0730  0.2313 -0.3989
  193MOL   C12331227   6.651   0.710   5.757 -0.5270 -0.0963 -0.5791
  193MOL   N12431228   6.653   0.738   5.617  0.0110 -0.5554  0.0670
  193MOL   H12531229   6.436   0.738   5.794 -0.3344  0.0293  0.9591
  193MOL   H12631230   6.516   0.658   5.915  0.0364  0.5367 -0.3822
  193MOL   H12731231   6.715   0.624   5.777 -1.3533 -0.7495 -0.7068
  193MOL   H12831232   6.659   0.653   5.562  0.2638 -0.2167 -0.4260
  193MOL   H12931233   6.566   0.780   5.587 -0.3433 -1.8019 -0.7236
  193MOL   C13031234   6.700   0.834   5.839  0.4072  0.1571 -0.6488
  193MOL   C13131235   6.789   0.818   5.959  0.0863 -0.2023 -0.7507
  193MOL   N13231236   6.920   0.764   5.925 -0.4026  0.7062 -0.6812
  193MOL   H13331237   6.772   0.884   5.775  0.9278  2.8604  1.9251
  193MOL   H13431238   6.624   0.907   5.867  0.3620 -0.4905  1.0379
  193MOL   H13531239   6.736   0.749   6.024  1.3172 -1.0817 -0.6680
  193MOL   H13631240   6.972   0.775   6.011 -0.8662 -2.9654  0.1587
  193MOL   H13731241   6.909   0.664   5.913 -0.1886  0.7523 -1.2378
  193MOL   C13831242   6.838   0.950   6.037  0.3712  0.1101 -0.2575
  193MOL   C13931243   6.726   1.032   6.100  0.2997 -0.9598 -0.5307
  193MOL   N14031244   6.764   1.086   6.231  0.0188  0.9102  0.2765
  193MOL   H14131245   6.893   0.914   6.124 -1.4978 -0.1026  0.8831
  193MOL   H14231246   6.907   1.014   5.983 -1.3371  2.9048  0.7488
  193MOL   H14331247   6.644   0.962   6.121  0.7415 -1.6093 -0.9204
  193MOL   H14431248   6.692   1.153   6.253 -0.2666  0.4612  0.7131
  193MOL   H14531249   6.849   1.139   6.219  0.2219  0.2260 -1.4523
  193MOL   C14631250   6.670   1.152   6.011  0.0631 -0.5800  0.9834
  193MOL   C14731251   6.547   1.223   6.062 -0.0740  0.2064 -0.3364
  193MOL   N14831252   6.581   1.305   6.178 -0.3243  0.0805 -0.4796
  193MOL   H14931253   6.751   1.207   5.964  0.1806 -1.0708  0.6116
  193MOL   H15031254   6.628   1.111   5.920 -0.0855  1.7662 -0.0191
  193MOL   H15131255   6.475   1.144   6.083  0.7041 -0.3201  0.3744
  193MOL   H15231256   6.655   1.367   6.148 -0.2327 -0.5684 -1.6292
  193MOL   H15331257   6.504   1.361   6.210 -0.5156  0.0361 -0.8571
  193MOL   C15431258   6.472   1.317   5.968 -0.1706  0.1410  0.2619
  193MOL   C15531259   6.392   1.243   5.854 -0.4255 -0.3236 -0.3054
  193MOL   N15631260   6.314   1.340   5.779  0.2781 -0.0529 -0.8317
  193MOL   H15731261   6.394   1.355   6.034 -1.2006 -1.0413 -0.2417
  193MOL   H15831262   6.536   1.395   5.925  1.0878  0.9107  3.4079
  193MOL   H15931263   6.322   1.167   5.888 -0.3870 -1.3522 -2.4326
  193MOL   H16031264   6.359   1.430   5.769  1.7588 -0.9173 -2.1234
  193MOL   H16131265   6.293   1.305   5.687 -0.3084 -1.9446  0.0093
  193MOL   H16231266   6.464   1.188   5.793 -0.4390 -1.2200  0.4810
  194MOL     C131267   3.153   5.324   7.220 -0.3358  0.2169  0.2480
  194MOL     C231268   3.094   5.432   7.125 -0.5801  0.0306  0.1522
  194MOL     N331269   3.041   5.348   7.015  0.1836 -0.3843 -0.7224
  194MOL     H431270   3.254   5.293   7.191 -0.3498  0.1336  0.2901
  194MOL     H531271   3.085   5.240   7.215  0.1332 -0.1917  0.6297
  194MOL     H631272   3.170   5.505   7.095 -1.9656  1.1664 -0.6625
  194MOL     H731273   3.028   5.409   6.936 -1.0778 -1.2694 -1.2070
  194MOL     H831274   3.116   5.283   6.997 -0.8743 -1.6180 -0.6977
  194MOL     H931275   3.153   5.352   0.050 -0.1194 -1.2777  0.6612
  194MOL    C1031276   2.971   5.506   7.183  0.6907 -0.0828 -0.7045
  194MOL    C1131277   3.002   5.622   7.274  0.3144  0.6479 -0.8315
  194MOL    N1231278   2.992   5.738   7.185  0.2612  0.0671  0.0248
  194MOL    H1331279   2.913   5.538   7.097  0.8248  2.6183  0.1839
  194MOL    H1431280   2.906   5.435   7.235 -1.3460  2.3995  0.2038
  194MOL    H1531281   3.093   5.604   0.055  1.4120  1.4291 -2.2945
  194MOL    H1631282   3.067   5.752   7.119 -1.0337 -3.2455 -2.2801
  194MOL    H1731283   2.911   5.727   7.126  0.4984 -2.3285  0.0942
  194MOL    C1831284   2.895   5.650   0.105  0.1210  0.0237  0.2253
  194MOL    C1931285   2.897   5.575   0.240 -0.1620 -0.3495 -0.2255
  194MOL    N2031286   2.782   5.632   0.309 -0.0601  0.2833  0.0787
  194MOL    H2131287   2.892   5.757   0.125 -0.5841  0.2824 -1.2323
  194MOL    H2231288   2.801   5.625   0.056 -0.3428  0.8546  0.6836
  194MOL    H2331289   2.982   5.608   0.300  0.5944 -0.7217 -1.0773
  194MOL    H2431290   2.780   5.575   0.393 -0.6032  0.1026 -0.0594
  194MOL    H2531291   2.697   5.615   0.259  0.7126  1.2520 -1.5949
  194MOL    C2631292   2.896   5.419   0.240  0.1726 -0.4485 -0.5630
  194MOL    C2731293   2.867   5.356   0.377  0.2677  0.4632 -0.2337
  194MOL    N2831294   2.855   5.210   0.355 -0.5561 -0.1920 -0.3690
  194MOL    H2931295   2.816   5.391   0.172  2.1871 -0.3565 -3.0684
  194MOL    H3031296   2.993   5.386   0.204  0.2351 -0.4653 -0.3823
  194MOL    H3131297   2.767   5.383   0.409 -0.7015 -0.3324 -2.5206
  194MOL    H3231298   2.920   5.152   0.304 -0.6855 -1.4121  0.8075
  194MOL    H3331299   2.860   5.161   0.444  0.2063  2.0824  0.8990
  194MOL    C3431300   2.977   5.378   0.490  0.2432  0.5316  0.6966
  194MOL    C3531301   2.936   5.327   0.628 -0.1819  0.3894 -0.1060
  194MOL    N3631302   3.046   5.315   0.715  0.0419  0.2788 -0.1907
  194MOL    H3731303   3.058   5.311   0.461 -0.7167 -0.0010 -0.7953
  194MOL    H3831304   2.997   5.485   0.504 -0.3960  1.0453 -1.9835
  194MOL    H3931305   2.886   5.230   0.622 -0.4330  0.5069  0.0927
  194MOL    H4031306   3.022   5.286   0.809 -0.2810  0.5431 -0.1884
  194MOL    H4131307   3.107   5.240   0.686  0.3288  1.2577 -2.2195
  194MOL    C4231308   2.826   5.400   0.699 -0.2046 -0.0138  0.3747
  194MOL    C4331309   2.710   5.312   0.756 -0.0430 -0.1848 -0.8344
  194MOL    N4431310   2.622   5.408   0.825  0.1107 -0.2944 -1.0437
  194MOL    H4531311   2.867   5.458   0.781  0.0242  0.5037 -0.1026
  194MOL    H4631312   2.797   5.472   0.623  2.3044  1.2522  0.5376
  194MOL    H4731313   2.759   5.241   0.822 -2.4975 -0.6191  0.5809
  194MOL    H4831314   2.594   5.478   0.759  1.4220  0.9619 -0.3042
  194MOL    H4931315   2.542   5.352   0.852  0.8371 -0.2815  1.2746
  194MOL    C5031316   2.622   5.247   0.646 -1.0460  0.2049  1.2686
  194MOL    C5131317   2.521   5.135   0.691 -0.1414  0.0153  0.2791
  194MOL    N5231318   2.442   5.164   0.812 -0.4948 -0.2881 -1.0838
  194MOL    H5331319   2.568   5.327   0.596 -1.9431 -1.3349 -0.2829
  194MOL    H5431320   2.681   5.197   0.569  0.7238 -0.2496  2.8711
  194MOL    H5531321   2.572   5.043   0.719  0.1421 -0.4165 -1.5796
  194MOL    H5631322   2.375   5.234   0.783 -1.4419 -0.7017  0.0875
  194MOL    H5731323   2.390   5.079   0.827  2.7396 -1.9117  1.7683
  194MOL    C5831324   2.424   5.097   0.572 -0.6793  0.6977 -0.2452
  194MOL    C5931325   2.495   5.016   0.460  0.6478 -0.0965 -0.4234
  194MOL    N6031326   2.525   4.884   0.513  0.3318  0.7590  0.3730
  194MOL    H6131327   2.334   5.044   0.604  0.4370 -1.7178 -1.0176
  194MOL    H6231328   2.375   5.190   0.543 -0.7647  0.0307 -2.3161
  194MOL    H6331329   2.596   5.056   0.448  0.7025  0.5994  1.9263
  194MOL    H6431330   2.533   4.829   0.429 -1.0942  0.0821  0.6679
  194MOL    H6531331   2.434   4.847   0.536  0.8282 -0.9870 -0.3729
  194MOL    C6631332   2.414   5.007   0.328  0.3578  0.2579 -0.1273
  194MOL    C6731333   2.408   5.138   0.244  0.9063 -0.0908  0.0795
  194MOL    N6831334   2.542   5.151   0.197 -0.4888  0.3194 -0.2313
  194MOL    H6931335   2.457   4.925   0.269  1.2609  2.2799 -2.3701
  194MOL    H7031336   2.313   4.968   0.336 -0.1890  1.8033  0.6140
  194MOL    H7131337   2.374   5.217   0.310 -1.0887  0.5822 -1.6776
  194MOL    H7231338   2.568   5.071   0.140 -1.5433  0.2436 -0.6173
  194MOL    H7331339   2.604   5.168   0.275 -2.6412  0.5357  1.4822
  194MOL    C7431340   2.303   5.132   0.129 -0.0727  0.5798 -0.6268
  194MOL    C7531341   2.182   5.230   0.146  0.6706  0.5419 -0.3320
  194MOL    N7631342   2.135   5.280   0.015  0.3561 -0.4202  0.0147
  194MOL    H7731343   2.356   5.143   0.035  0.4003  1.6874 -0.2460
  194MOL    H7831344   2.257   5.033   0.134  2.5879 -0.6757  0.4394
  194MOL    H7931345   2.216   5.315   0.205  0.1814  0.6476 -0.1921
  194MOL    H8031346   2.048   5.234   7.271  0.1454  0.1643 -0.4575
  194MOL    H8131347   2.114   5.379   0.018 -0.2979 -0.5755  0.8510
  194MOL    C8231348   2.062   5.164   0.219  0.8778 -0.3061 -0.2659
  194MOL    C8331349   2.064   5.159   0.373 -0.0063  0.2998 -0.8340
  194MOL    N8431350   2.078   5.294   0.426 -0.1094 -0.0756  0.1566
  194MOL    H8531351   1.967   5.206   0.186  1.9281  1.6074 -0.8909
  194MOL    H8631352   2.056   5.061   0.184 -1.3986  0.0362 -0.9614
  194MOL    H8731353   2.154   5.112   0.413 -1.1197 -1.1265  0.0602
  194MOL    H8831354   2.036   5.278   0.517 -2.6690  2.1045 -0.5832
  194MOL    H8931355   1.997   5.337   0.384 -0.6580 -0.1441  1.1399
  194MOL    C9031356   1.937   5.091   0.441  0.1552  0.3608  0.6052
  194MOL    C9131357   1.953   5.028   0.581  0.0419  0.1485 -0.4659
  194MOL    N9231358   1.980   5.141   0.672  0.2623  0.2124  0.4484
  194MOL    H9331359   1.849   5.155   0.437  0.5223  0.8386  0.2633
  194MOL    H9431360   1.909   5.005   0.380 -1.0344 -0.0978  1.7668
  194MOL    H9531361   2.032   4.954   0.592 -1.9436 -2.0434 -0.4828
  194MOL    H9631362   2.067   5.179   0.637 -0.9505 -0.0287 -3.0299
  194MOL    H9731363   2.010   5.108   0.763  3.4027  0.2311 -0.4932
  194MOL    C9831364   1.825   4.953   0.626  0.1745  0.0268 -0.4105
  194MOL    C9931365   1.825   4.886   0.760  0.6812  0.5996  0.0143
  194MOL   N10031366   1.684   4.841   0.776  0.6478  0.5146  0.4453
  194MOL   H10131367   1.746   5.026   0.612 -0.6357 -1.3440 -3.3842
  194MOL   H10231368   1.803   4.875   0.553 -1.8939  1.3643 -1.2636
  194MOL   H10331369   1.856   4.960   0.834  0.8396 -0.1968  0.7501
  194MOL   H10431370   1.625   4.921   0.758  1.9356  1.1133 -1.2048
  194MOL   H10531371   1.668   4.809   0.871 -3.0543 -0.6508 -0.4863
  194MOL   C10631372   1.916   4.763   0.786  0.8040 -0.2278  0.5249
  194MOL   C10731373   2.009   4.774   0.908  0.3383  0.0075 -0.6186
  194MOL   N10831374   2.013   4.643   0.985 -0.2511  0.6063  1.1870
  194MOL   H10931375   1.846   4.686   0.818  1.1164 -0.5466  0.4508
  194MOL   H11031376   1.961   4.720   0.697 -1.4148 -3.3012  0.7994
  194MOL   H11131377   1.972   4.852   0.975  0.0853 -0.1407 -0.5843
  194MOL   H11231378   2.070   4.647   1.068 -0.2279 -2.0576  1.3389
  194MOL   H11331379   1.920   4.629   1.021 -0.2156 -1.2926  0.5779
  194MOL   C11431380   2.144   4.816   0.861  0.2302 -0.2697  0.7399
  194MOL   C11531381   2.262   4.836   0.965  1.1079 -0.5160  0.1577
  194MOL   N11631382   2.366   4.906   0.889  0.3364  0.4745  0.2802
  194MOL   H11731383   2.159   4.746   0.779 -1.7428 -0.1299  0.2289
  194MOL   H11831384   2.122   4.913   0.817  1.0356  0.0985  1.1418
  194MOL   H11931385   2.283   4.739   1.010  0.8049  1.1911  4.1532
  194MOL   H12031386   2.450   4.900   0.945 -0.0381 -0.3507  0.7601
  194MOL   H12131387   2.385   4.852   0.805 -3.3483 -0.4370 -0.0534
  194MOL   C12231388   2.236   4.933   1.082 -0.3596  0.0327  0.5289
  194MOL   C12331389   2.150   4.883   1.201 -0.1204  0.7170  0.6186
  194MOL   N12431390   2.248   4.803   1.273 -0.2361 -0.3811  0.3450
  194MOL   H12531391   2.330   4.963   1.130  0.3600 -1.4307  0.0443
  194MOL   H12631392   2.183   5.022   1.048 -1.9244  0.2898  3.5047
  194MOL   H12731393   2.059   4.828   1.181  1.0844 -0.6690 -1.2121
  194MOL   H12831394   2.275   4.719   1.222  0.2685 -0.4665  0.7443
  194MOL   H12931395   2.222   4.768   1.364 -2.4284  0.4749  0.0742
  194MOL   C13031396   2.119   4.993   1.305  0.2572  0.0585 -0.6665
  194MOL   C13131397   1.999   5.083   1.272 -0.0377  1.1626 -0.1529
  194MOL   N13231398   1.915   5.086   1.384 -0.2503  0.3173 -0.2064
  194MOL   H13331399   2.097   4.951   1.403  1.8311  0.5532 -0.0887
  194MOL   H13431400   2.211   5.049   1.319 -0.5742  1.5754 -1.2216
  194MOL   H13531401   1.939   5.030   1.198 -1.1882  0.3573  1.3243
  194MOL   H13631402   1.868   5.176   1.386 -1.1940 -0.1906  3.6731
  194MOL   H13731403   1.967   5.072   1.469 -0.6772 -0.6618 -0.1018
  194MOL   C13831404   2.022   5.225   1.225  0.4877  0.2755 -0.8088
  194MOL   C13931405   1.898   5.282   1.141 -0.1552  0.1301  0.6130
  194MOL   N14031406   1.938   5.420   1.126 -0.2331 -1.0890  0.3480
  194MOL   H14131407   2.047   5.294   1.305 -0.7688 -0.2949  0.0825
  194MOL   H14231408   2.110   5.242   1.162  1.7503 -3.7274 -0.2634
  194MOL   H14331409   1.801   5.284   1.192  0.2614  1.4046  1.3912
  194MOL   H14431410   1.891   5.487   1.185  2.4854  2.2925 -1.0999
  194MOL   H14531411   1.918   5.451   1.032 -2.1642  0.1882  1.1484
  194MOL   C14631412   1.869   5.213   1.004  0.2320  0.1693  0.7642
  194MOL   C14731413   1.725   5.252   0.947  0.1578  0.0176 -0.4641
  194MOL   N14831414   1.724   5.219   0.808  0.7759 -0.1267  0.5720
  194MOL   H14931415   1.952   5.228   0.935  0.3091 -2.0951  0.3415
  194MOL   H15031416   1.863   5.106   1.024 -1.6868  0.5269  2.2086
  194MOL   H15131417   1.700   5.356   0.965  2.0003  0.1228  1.7024
  194MOL   H15231418   1.801   5.257   0.754  1.7698  0.0951  2.1231
  194MOL   H15331419   1.751   5.122   0.802 -0.6226 -0.4958  0.2246
  194MOL   C15431420   1.614   5.172   1.019  0.2755  0.2916 -0.0538
  194MOL   C15531421   1.480   5.205   0.962 -0.2655  0.0263 -0.3060
  194MOL   N15631422   1.368   5.164   1.048 -0.9771  0.0364 -0.1187
  194MOL   H15731423   1.637   5.067   1.004 -3.2340 -0.3333 -1.2878
  194MOL   H15831424   1.623   5.184   1.127  0.6323 -1.7123  0.1579
  194MOL   H15931425   1.466   5.168   0.860  1.1104 -0.6023 -0.2803
  194MOL   H16031426   1.390   5.183   1.144  0.3831 -1.2747 -0.1344
  194MOL   H16131427   1.309   5.243   1.027  0.6661  0.8574 -1.8936
  194MOL   H16231428   1.473   5.314   0.960  0.9338  0.1174 -0.1259
  195MOL     C131429   5.128   6.659   2.422 -0.0981  0.0414 -0.2655
  195MOL     C231430   5.062   6.566   2.319 -0.3649  0.0460  0.1599
  195MOL     N331431   5.065   6.636   2.198 -0.8222  0.3063 -0.4379
  195MOL     H431432   5.108   6.639   2.527  2.3210 -1.3624 -0.0233
  195MOL     H531433   5.096   6.761   2.405 -1.4407  0.2941  3.2619
  195MOL     H631434   4.959   6.553   2.352 -0.8797  0.7657 -1.1037
  195MOL     H731435   5.027   6.588   2.118 -0.7016  0.5213 -0.6249
  195MOL     H831436   5.156   6.664   2.163  0.2087  0.8620  2.5301
  195MOL     H931437   5.235   6.658   2.403 -0.0647 -2.0742 -0.1624
  195MOL    C1031438   5.133   6.427   2.317  0.2444 -0.5909 -0.1563
  195MOL    C1131439   5.110   6.344   2.437  0.4763 -0.2953 -0.3041
  195MOL    N1231440   4.977   6.290   2.438  0.4105 -0.0276  0.2344
  195MOL    H1331441   5.099   6.372   2.229 -0.2268  1.4518 -1.3091
  195MOL    H1431442   5.239   6.447   2.298 -0.0603 -0.1618 -1.5055
  195MOL    H1531443   5.129   6.394   2.532  0.7363  0.0129 -0.5165
  195MOL    H1631444   4.919   6.368   2.465  0.7458 -0.1807  1.4642
  195MOL    H1731445   4.952   6.258   2.346  1.4740 -0.1614 -0.0177
  195MOL    C1831446   5.199   6.216   2.447  0.0729 -0.2941 -0.1588
  195MOL    C1931447   5.352   6.246   2.473  0.6167  0.1683  0.5368
  195MOL    N2031448   5.419   6.255   2.343  0.7086 -0.5499 -0.4042
  195MOL    H2131449   5.163   6.153   2.528 -1.5862 -1.1736 -1.5203
  195MOL    H2231450   5.181   6.159   2.355  1.1681  0.3832 -0.8033
  195MOL    H2331451   5.386   6.156   2.524 -0.8378 -1.0804 -0.6624
  195MOL    H2431452   5.375   6.332   2.296  1.0539 -0.4674 -0.5955
  195MOL    H2531453   5.513   6.290   2.356  0.6787 -0.2815 -0.9195
  195MOL    C2631454   5.383   6.368   2.566  0.1936 -0.1282  0.4742
  195MOL    C2731455   5.516   6.360   2.650  0.4162 -0.2279 -0.2358
  195MOL    N2831456   5.550   6.496   2.683  0.2344  0.0242  0.4385
  195MOL    H2931457   5.383   6.458   2.505 -0.0606 -1.3624 -1.4039
  195MOL    H3031458   5.303   6.376   2.639 -0.1273 -0.8166  0.2025
  195MOL    H3131459   5.593   6.324   2.581 -1.2843  0.9897 -2.8762
  195MOL    H3231460   5.505   6.507   2.773  0.1616  0.3799  0.3604
  195MOL    H3331461   5.509   6.556   2.612  0.3373  1.7148  1.7646
  195MOL    C3431462   5.510   6.274   2.777  0.1597 -0.6005  0.2392
  195MOL    C3531463   5.632   6.283   2.870 -0.1379 -0.2123 -0.1927
  195MOL    N3631464   5.602   6.190   2.978  0.6616  0.0550 -0.3424
  195MOL    H3731465   5.417   6.296   2.829 -0.2770 -1.5925 -0.0961
  195MOL    H3831466   5.497   6.171   2.744 -2.6457 -0.5526  1.0810
  195MOL    H3931467   5.633   6.380   2.919 -0.8537 -0.6261  0.6510
  195MOL    H4031468   5.675   6.200   3.048  1.4434  1.8238 -1.3861
  195MOL    H4131469   5.606   6.092   2.953  1.4138  0.4467 -1.7860
  195MOL    C4231470   5.762   6.260   2.799  0.5475 -0.0602  0.3859
  195MOL    C4331471   5.893   6.285   2.872 -0.3146  0.6549  0.0855
  195MOL    N4431472   5.996   6.192   2.832  0.0586  0.1184 -0.4563
  195MOL    H4531473   5.757   6.154   2.773  1.0641 -0.0098  0.0772
  195MOL    H4631474   5.773   6.319   2.708 -1.6701 -0.1640  0.0094
  195MOL    H4731475   5.874   6.277   2.979 -1.1306  0.6932 -0.0521
  195MOL    H4831476   5.966   6.098   2.853  1.6295 -0.2445  0.2031
  195MOL    H4931477   6.028   6.203   2.737  1.0590  0.3724 -0.0936
  195MOL    C5031478   5.970   6.421   2.839 -0.0193 -0.3450 -0.1691
  195MOL    C5131479   5.891   6.552   2.883  0.2892  0.2642  0.2010
  195MOL    N5231480   5.912   6.557   3.024  0.6959 -0.3474 -0.0479
  195MOL    H5331481   6.063   6.416   2.895  0.6826  0.0466 -1.2954
  195MOL    H5431482   5.989   6.427   2.732  1.2969 -0.5803  0.0483
  195MOL    H5531483   5.784   6.540   2.866  0.6625 -0.5227 -1.6909
  195MOL    H5631484   5.876   6.480   3.078 -0.8484  0.0788 -0.4655
  195MOL    H5731485   5.876   6.638   3.072 -0.4565 -1.3274  0.7554
  195MOL    C5831486   5.958   6.672   2.809 -0.1403 -0.0286  0.3998
  195MOL    C5931487   5.918   6.688   2.661  0.7863  0.2146 -0.5089
  195MOL    N6031488   5.767   6.698   2.660 -0.5105  0.3704  0.0809
  195MOL    H6131489   5.939   6.764   2.865  0.5264  0.1367  0.3608
  195MOL    H6231490   6.066   6.668   2.805 -0.1814  0.0459 -0.9581
  195MOL    H6331491   5.949   6.599   2.607  0.4512 -0.2928  0.1184
  195MOL    H6431492   5.730   6.604   2.667 -0.4756  0.5076  2.5660
  195MOL    H6531493   5.738   6.744   2.745 -0.2236 -0.2966  0.5372
  195MOL    C6631494   5.973   6.805   2.587  0.4596 -0.1685  0.0656
  195MOL    C6731495   6.116   6.782   2.527  0.8541 -0.6857  0.1435
  195MOL    N6831496   6.087   6.722   2.399  0.2797 -0.1966 -0.3197
  195MOL    H6931497   5.911   6.828   2.501  0.0494  1.7003  0.8379
  195MOL    H7031498   5.981   6.893   2.652 -0.9571  0.3645 -0.4629
  195MOL    H7131499   6.168   6.712   2.593 -1.1100  0.4650  3.0398
  195MOL    H7231500   6.045   6.640   2.440 -1.0460  0.7131  0.1674
  195MOL    H7331501   6.178   6.682   2.379  0.8643 -0.0829  1.8902
  195MOL    C7431502   6.192   6.910   2.498  0.3601 -0.9631 -0.1975
  195MOL    C7531503   6.270   6.956   2.625  0.7923 -0.2012  0.4328
  195MOL    N7631504   6.375   6.866   2.673  1.1324 -0.2970  0.3217
  195MOL    H7731505   6.258   6.894   2.412 -0.2813  0.7040 -1.0192
  195MOL    H7831506   6.126   6.988   2.461  0.4710 -1.0394 -0.5601
  195MOL    H7931507   6.202   6.957   2.710  1.1108 -0.0469  0.6856
  195MOL    H8031508   6.419   6.912   2.751  0.0438  1.2680  0.0268
  195MOL    H8131509   6.450   6.863   2.605  1.5369 -0.7026  0.7809
  195MOL    C8231510   6.324   7.100   2.604 -0.2116  0.1772 -0.5251
  195MOL    C8331511   6.362   7.170   2.730 -0.4886  0.0370  0.1081
  195MOL    N8431512   6.441   0.014   2.709  0.5278  0.5330  0.0784
  195MOL    H8531513   6.396   7.106   2.522 -1.0242 -2.4223 -1.4592
  195MOL    H8631514   6.242   7.156   2.559 -0.5361 -0.0913 -0.2681
  195MOL    H8731515   6.416   7.100   2.794  0.0504  0.2648 -0.0980
  195MOL    H8831516   6.402   0.072   2.635  0.2961 -1.3592 -1.3109
  195MOL    H8931517   6.525   7.251   2.671  1.8948  0.7956  2.7241
  195MOL    C9031518   6.238   7.220   2.811 -0.0344 -0.1781  0.2739
  195MOL    C9131519   6.259   7.195   2.972  0.0417  0.5788  0.3943
  195MOL    N9231520   6.341   0.032   3.026 -0.1720 -0.6973 -0.5973
  195MOL    H9331521   6.204   0.045   2.789  0.7730 -0.1430 -0.8281
  195MOL    H9431522   6.149   7.166   2.780  1.2908 -2.1563 -0.1999
  195MOL    H9531523   6.324   7.108   2.971 -2.5844 -1.4458 -2.2149
  195MOL    H9631524   6.419   7.268   3.076 -2.1901 -3.6903  0.3763
  195MOL    H9731525   6.382   0.078   2.946 -0.6859  0.5805 -0.1382
  195MOL    C9831526   6.133   7.155   3.046  0.5098 -0.5519 -0.0304
  195MOL    C9931527   6.152   7.049   3.144  0.0950  0.3665  0.0005
  195MOL   N10031528   6.030   7.049   3.235  0.3636  0.1819  0.5846
  195MOL   H10131529   6.103   7.248   3.095 -0.1972 -1.9104  2.1769
  195MOL   H10231530   6.055   7.126   2.975  1.6601 -0.3660 -1.3985
  195MOL   H10331531   6.233   7.088   3.206 -0.7602 -0.4771  1.7020
  195MOL   H10431532   6.051   7.007   3.325  0.0640 -1.0689  0.0851
  195MOL   H10531533   6.000   7.144   3.248 -2.7021 -0.7679  0.8383
  195MOL   C10631534   6.169   6.906   3.081 -0.3915 -0.2071 -0.3033
  195MOL   C10731535   6.273   6.807   3.137  0.3297  0.8191  0.1557
  195MOL   N10831536   6.242   6.669   3.088  0.0449 -0.1661 -0.1406
  195MOL   H10931537   6.072   6.857   3.081 -1.4373  1.7516 -2.9598
  195MOL   H11031538   6.185   6.902   2.973  0.4518 -2.2857 -0.1266
  195MOL   H11131539   6.264   6.802   3.245 -1.7681 -0.6857 -0.0480
  195MOL   H11231540   6.272   6.661   2.992 -2.2478  2.0602 -1.1151
  195MOL   H11331541   6.143   6.648   3.093 -0.3164  1.6403  0.8759
  195MOL   C11431542   6.426   6.828   3.102  0.0451  0.0099 -0.6905
  195MOL   C11531543   6.487   6.937   3.188  0.2144 -0.0952  0.2705
  195MOL   N11631544   6.507   6.897   3.324  0.5371 -0.3484 -0.0917
  195MOL   H11731545   6.490   6.741   3.116  0.3183  0.4305  0.7782
  195MOL   H11831546   6.426   6.854   2.996 -2.2776 -2.2809 -1.2947
  195MOL   H11931547   6.422   7.024   3.192  1.0216  0.5209  0.0430
  195MOL   H12031548   6.579   6.957   3.362 -1.6341  0.5214  2.9011
  195MOL   H12131549   6.424   6.927   3.373  0.3262 -1.5710  0.3154
  195MOL   C12231550   6.633   6.970   3.137  0.0433  0.2884  0.5301
  195MOL   C12331551   6.628   7.078   3.030  0.3170 -0.2554  0.1509
  195MOL   N12431552   6.622   7.202   3.102  0.5654  0.4335 -0.0146
  195MOL   H12531553   6.696   7.007   3.217  1.5746  0.4039 -0.7078
  195MOL   H12631554   6.694   6.885   3.107  0.1627  0.8759 -0.9403
  195MOL   H12731555   6.545   7.070   2.960 -1.3555 -1.6254  2.2520
  195MOL   H12831556   6.711   7.221   3.146 -0.2154 -1.6417  2.5433
  195MOL   H12931557   6.632   7.272   3.029  1.4022  0.5680  0.2179
  195MOL   C13031558   6.748   7.096   2.936 -0.1177  0.0248 -0.6574
  195MOL   C13131559   6.762   6.990   2.818 -0.1791  0.5468 -0.3961
  195MOL   N13231560   6.828   7.051   2.703 -0.2092 -0.2458  0.0386
  195MOL   H13331561   6.753   7.192   2.885 -0.1419  2.1422  3.1089
  195MOL   H13431562   6.838   7.105   2.997 -0.5959  4.1756 -0.4644
  195MOL   H13531563   6.660   6.963   2.790 -0.2586  0.2174  0.2111
  195MOL   H13631564   6.831   7.003   2.614  0.3295  1.4345 -0.8775
  195MOL   H13731565   6.924   7.059   2.731 -0.0072  0.0757 -0.7358
  195MOL   C13831566   6.843   6.867   2.862 -0.0014  0.1410 -0.2536
  195MOL   C13931567   6.861   6.751   2.759  0.1144  0.7031  0.1462
  195MOL   N14031568   6.950   6.650   2.814  0.3653  0.0763  0.1252
  195MOL   H14131569   6.939   6.910   2.889  0.5627  0.8221 -3.1188
  195MOL   H14231570   6.812   6.819   2.954 -2.4579 -1.8487 -2.0473
  195MOL   H14331571   6.911   6.786   2.668  2.1853  1.0340  1.3840
  195MOL   H14431572   6.920   6.624   2.907  0.3214 -1.4869 -0.3104
  195MOL   H14531573   6.925   6.570   2.758  0.2300  1.0552 -1.2457
  195MOL   C14631574   6.726   6.686   2.730 -0.2140  0.2412  0.0228
  195MOL   C14731575   6.726   6.574   2.628 -0.3050  0.3021  0.2726
  195MOL   N14831576   6.776   6.449   2.680 -0.4672 -0.2023 -0.4627
  195MOL   H14931577   6.679   6.658   2.824 -1.3419 -0.5065 -0.7420
  195MOL   H15031578   6.654   6.760   2.695  2.0545  2.2069 -0.6181
  195MOL   H15131579   6.791   6.600   2.544  0.0298  0.9561  0.7284
  195MOL   H15231580   6.714   6.427   2.756 -1.4566 -0.5372 -1.3439
  195MOL   H15331581   6.764   6.373   2.614 -0.5929  1.9569 -3.0131
  195MOL   C15431582   6.594   6.543   2.568  0.1794 -0.4219  0.7331
  195MOL   C15531583   6.554   6.632   2.454  0.5992 -0.0998  0.4022
  195MOL   N15631584   6.418   6.606   2.434 -0.0926  0.0707 -0.3066
  195MOL   H15731585   6.592   6.449   2.514  1.8295  0.4019 -0.8136
  195MOL   H15831586   6.522   6.522   2.647 -0.7615 -1.1028 -0.2963
  195MOL   H15931587   6.606   6.615   2.360  1.5003  0.4023  0.8068
  195MOL   H16031588   6.403   6.641   2.341 -0.0852  2.1816  0.4667
  195MOL   H16131589   6.365   6.669   2.493 -2.6497 -0.9968 -1.4115
  195MOL   H16231590   6.549   6.737   2.481 -2.7603 -0.0831 -0.0185
  196MOL     C131591   1.678   1.248   4.272  0.2539  0.1787  0.5411
  196MOL     C231592   1.718   1.267   4.125  0.4834 -0.7575 -0.4684
  196MOL     N331593   1.726   1.411   4.101 -0.6153  0.2208 -0.2309
  196MOL     H431594   1.679   1.143   4.304  0.4403 -0.3853 -1.2458
  196MOL     H531595   1.571   1.269   4.281  0.3537  0.2743  1.5182
  196MOL     H631596   1.640   1.233   4.057 -0.6732  1.0301 -0.0896
  196MOL     H731597   1.751   1.425   4.004  2.1600 -1.3427  0.2040
  196MOL     H831598   1.639   1.458   4.119 -2.1115 -1.4068 -2.7808
  196MOL     H931599   1.747   1.307   4.331  1.5747  0.5297 -1.2981
  196MOL    C1031600   1.848   1.201   4.091 -0.1645  0.1691 -0.0923
  196MOL    C1131601   1.900   1.221   3.940 -0.4664  0.1715  0.3677
  196MOL    N1231602   2.024   1.151   3.916 -0.2715  0.3758  0.0197
  196MOL    H1331603   1.923   1.239   4.162  0.9916 -1.7442 -0.2628
  196MOL    H1431604   1.842   1.094   4.110 -0.2097  0.3641  1.0316
  196MOL    H1531605   1.920   1.326   3.918  0.7814  0.0608  0.9226
  196MOL    H1631606   2.093   1.188   3.979  1.4028 -2.1985 -0.2271
  196MOL    H1731607   2.071   1.174   3.829  0.5251  1.5939  0.7636
  196MOL    C1831608   1.794   1.171   3.831 -0.3086  0.3595  0.8025
  196MOL    C1931609   1.690   1.272   3.788 -0.8610  0.2245  0.3573
  196MOL    N2031610   1.749   1.364   3.694  0.5145  0.4394 -0.5237
  196MOL    H2131611   1.838   1.145   3.735 -0.6539 -1.7598  1.1783
  196MOL    H2231612   1.751   1.075   3.862  0.0137 -0.3363 -0.8588
  196MOL    H2331613   1.648   1.330   3.871 -2.2734  1.9271 -1.5057
  196MOL    H2431614   1.691   1.435   3.652  1.2737  0.7187 -1.1137
  196MOL    H2531615   1.818   1.421   3.740 -0.4570  1.5055 -0.3780
  196MOL    C2631616   1.567   1.219   3.711 -0.4772 -0.0823  0.0899
  196MOL    C2731617   1.451   1.159   3.794  0.0111 -0.0906  0.1647
  196MOL    N2831618   1.354   1.124   3.692  0.7571  0.2128 -0.2569
  196MOL    H2931619   1.520   1.294   3.647  0.4420  1.2064  0.9101
  196MOL    H3031620   1.607   1.150   3.636 -0.6104  0.1532 -0.1999
  196MOL    H3131621   1.419   1.247   3.851 -0.3640 -0.9092  1.2340
  196MOL    H3231622   1.274   1.185   3.694 -1.1075 -2.1458  0.4880
  196MOL    H3331623   1.310   1.033   3.698  0.1730  0.4587 -0.7434
  196MOL    C3431624   1.476   1.043   3.890 -0.1263 -0.3692 -0.0519
  196MOL    C3531625   1.352   1.009   3.977  0.6924  0.5800 -0.4341
  196MOL    N3631626   1.396   0.893   4.054 -0.7948  0.4054  0.1419
  196MOL    H3731627   1.520   0.957   3.839 -0.3250 -0.2163 -0.4789
  196MOL    H3831628   1.556   1.060   3.962 -1.3777 -1.2643  1.6126
  196MOL    H3931629   1.273   0.970   3.914  0.2506 -2.2699  1.7235
  196MOL    H4031630   1.439   0.830   3.988  0.6735  3.1058 -1.6007
  196MOL    H4131631   1.311   0.854   4.092 -0.5308  2.1045  2.5884
  196MOL    C4231632   1.290   1.122   4.062  0.0412 -0.3501  0.3043
  196MOL    C4331633   1.179   1.212   3.995  0.0910 -0.8926 -0.1514
  196MOL    N4431634   1.051   1.139   3.980 -0.2869  0.3195  0.1247
  196MOL    H4531635   1.247   1.079   4.153 -1.3948  0.4060 -0.0040
  196MOL    H4631636   1.368   1.185   4.105 -0.9394 -0.6946  2.6314
  196MOL    H4731637   1.206   1.238   3.892  2.2949  1.2690  0.9400
  196MOL    H4831638   0.975   1.205   3.969 -0.2893  0.0276 -1.7599
  196MOL    H4931639   1.039   1.094   4.070  1.5467  1.7703  1.1338
  196MOL    C5031640   1.141   1.337   4.082 -0.2955 -0.1568  0.6043
  196MOL    C5131641   1.250   1.439   4.122 -0.5495 -0.4420 -0.0859
  196MOL    N5231642   1.282   1.512   3.996 -0.6947  0.4699  0.4052
  196MOL    H5331643   1.053   1.382   4.036 -0.8319 -0.6033  1.1870
  196MOL    H5431644   1.094   1.299   4.172 -0.0321 -0.0866  0.7716
  196MOL    H5531645   1.342   1.395   4.161  1.5208  1.1833 -2.9927
  196MOL    H5631646   1.342   1.592   4.014  0.9110 -0.2381 -1.6845
  196MOL    H5731647   1.345   1.446   3.953 -2.1654 -1.2434  0.7937
  196MOL    C5831648   1.194   1.556   4.209 -0.1132  0.1860  0.1502
  196MOL    C5931649   1.290   1.604   4.311  0.5119  0.3229 -0.4026
  196MOL    N6031650   1.336   1.491   4.394  0.6238  0.0476  0.1461
  196MOL    H6131651   1.168   1.644   4.150 -1.0793  0.4758  0.9943
  196MOL    H6231652   1.100   1.517   4.250 -0.7566  0.4791 -1.0050
  196MOL    H6331653   1.227   1.666   4.374  0.7361 -0.1585  0.2938
  196MOL    H6431654   1.377   1.418   4.337 -0.1571  0.7683 -1.3615
  196MOL    H6531655   1.256   1.453   4.441  1.3066  1.9231  2.9247
  196MOL    C6631656   1.411   1.684   4.251  0.6115 -0.0851 -0.1558
  196MOL    C6731657   1.372   1.815   4.182 -0.0426 -0.4220 -0.5143
  196MOL    N6831658   1.307   1.901   4.282 -0.2407  0.0975  0.9126
  196MOL    H6931659   1.486   1.702   4.328  0.7685  0.3751 -0.4160
  196MOL    H7031660   1.456   1.622   4.173  1.9548 -0.0862  0.6049
  196MOL    H7131661   1.293   1.806   4.108 -0.9733 -1.2886  0.5593
  196MOL    H7231662   1.277   1.983   4.231 -1.3368 -2.2059 -2.2986
  196MOL    H7331663   1.213   1.868   4.297 -1.7307  3.5274 -0.3495
  196MOL    C7431664   1.491   1.894   4.131 -1.3610 -0.4574  0.2132
  196MOL    C7531665   1.561   1.840   4.004 -0.0252 -0.1782  0.7670
  196MOL    N7631666   1.461   1.846   3.895  0.0367  0.5211  0.1745
  196MOL    H7731667   1.459   1.996   4.112  3.0697  0.9993 -0.1604
  196MOL    H7831668   1.564   1.908   4.211 -1.2643  1.1910 -0.1563
  196MOL    H7931669   1.588   1.736   4.018  1.5263  0.0103 -0.6354
  196MOL    H8031670   1.492   1.785   3.820  0.1390  0.6760  0.0897
  196MOL    H8131671   1.369   1.818   3.926 -0.0045  1.1185  0.6211
  196MOL    C8231672   1.688   1.914   3.971  1.0514 -0.1892 -0.3005
  196MOL    C8331673   1.810   1.874   4.055  0.2567 -0.2454 -0.0886
  196MOL    N8431674   1.823   1.726   4.065  0.1279 -0.0100  0.5580
  196MOL    H8531675   1.706   1.898   3.864  0.5765  0.3870 -0.4705
  196MOL    H8631676   1.673   2.021   3.988 -0.3103 -0.4754  0.2786
  196MOL    H8731677   1.781   1.909   4.154 -0.4158  0.8818 -0.6790
  196MOL    H8831678   1.883   1.709   4.144  0.3962 -1.1787  0.1073
  196MOL    H8931679   1.737   1.682   4.094 -0.1562 -0.8673 -1.5325
  196MOL    C9031680   1.941   1.945   4.027  0.6135  0.0681 -0.0507
  196MOL    C9131681   2.010   2.027   4.144 -0.4132  0.2700 -0.4274
  196MOL    N9231682   2.152   2.036   4.108  0.2059 -0.5550 -0.0070
  196MOL    H9331683   2.005   1.862   3.996  0.5600 -1.9539  4.8357
  196MOL    H9431684   1.928   2.014   3.943 -0.0136 -1.2497 -1.0375
  196MOL    H9531685   2.006   1.963   4.232 -3.9944 -0.4067 -1.0279
  196MOL    H9631686   2.206   1.961   4.149  1.5533  0.0156 -0.7080
  196MOL    H9731687   2.191   2.122   4.144 -1.3622  1.5157 -3.0306
  196MOL    C9831688   1.952   2.167   4.159  0.1612 -0.1575  0.2583
  196MOL    C9931689   1.993   2.231   4.289  0.1102 -0.8756 -0.0102
  196MOL   N10031690   2.008   2.377   4.278 -0.0447  0.2787 -0.4883
  196MOL   H10131691   1.984   2.225   4.072 -0.3016  0.5700  0.5758
  196MOL   H10231692   1.844   2.154   4.151  0.3622 -2.6157  0.9662
  196MOL   H10331693   2.086   2.175   4.308  0.4490 -1.1249 -2.3455
  196MOL   H10431694   2.104   2.406   4.293  0.0130 -0.6370  1.0142
  196MOL   H10531695   1.974   2.407   4.187 -3.6369 -2.9503 -0.3080
  196MOL   C10631696   1.898   2.212   4.410 -0.8055  0.3659  1.0048
  196MOL   C10731697   1.894   2.074   4.474 -0.3273 -0.6576  0.5182
  196MOL   N10831698   2.005   2.053   4.557 -0.0911  0.0448  0.3531
  196MOL   H10931699   1.929   2.286   4.484  1.7961 -1.5779  1.9360
  196MOL   H11031700   1.794   2.226   4.383 -1.2486  1.5262  3.1186
  196MOL   H11131701   1.902   1.992   4.403  2.3622  0.4179 -0.4789
  196MOL   H11231702   1.998   2.100   4.646  2.0325  2.0928 -0.5179
  196MOL   H11331703   2.080   2.101   4.509 -0.5667 -0.3405 -0.7759
  196MOL   C11431704   1.763   2.058   4.560 -0.3485  0.0076 -0.4800
  196MOL   C11531705   1.649   1.978   4.486  0.0709 -0.2286  0.0478
  196MOL   N11631706   1.673   1.838   4.514  1.4075 -0.0533 -1.0205
  196MOL   H11731707   1.778   2.004   4.653 -0.6158 -0.0167 -0.4518
  196MOL   H11831708   1.721   2.149   4.601  1.3522  0.5545  0.0779
  196MOL   H11931709   1.655   2.015   4.383 -2.1385 -1.6356 -0.6235
  196MOL   H12031710   1.758   1.808   4.467  0.6075 -0.1192 -2.4789
  196MOL   H12131711   1.598   1.784   4.472  0.6077  0.6805 -0.5391
  196MOL   C12231712   1.512   2.025   4.527 -0.2822  0.6694 -0.0259
  196MOL   C12331713   1.471   2.161   4.486  0.6340  0.7611  0.9931
  196MOL   N12431714   1.435   2.156   4.350  0.2970 -0.6321  0.6101
  196MOL   H12531715   1.427   1.965   4.494 -1.0828  0.2203  2.7702
  196MOL   H12631716   1.512   2.026   4.636  0.0960 -0.1966 -0.0142
  196MOL   H12731717   1.545   2.238   4.509 -0.8673  2.6663 -0.3698
  196MOL   H12831718   1.395   2.065   4.329  2.0699 -1.2828 -0.0175
  196MOL   H12931719   1.518   2.158   4.293 -0.3639  1.8174 -0.3276
  196MOL   C13031720   1.352   2.206   4.568 -0.5527  0.3976  0.0117
  196MOL   C13131721   1.322   2.359   4.565  0.3501 -0.2778 -0.8234
  196MOL   N13231722   1.273   2.394   4.435  0.3038 -0.4265 -0.1638
  196MOL   H13331723   1.264   2.145   4.546  0.7331 -0.8811 -1.6636
  196MOL   H13431724   1.381   2.174   4.668 -2.2438 -1.1164  0.0489
  196MOL   H13531725   1.412   2.418   4.577  0.6941 -0.9944  0.1316
  196MOL   H13631726   1.174   2.375   4.425  0.6080 -1.7160 -0.8740
  196MOL   H13731727   1.314   2.319   4.382 -0.9505 -0.9338 -0.4473
  196MOL   C13831728   1.226   2.396   4.672 -0.2103  0.1109  0.3557
  196MOL   C13931729   1.275   2.467   4.800  0.5519 -0.4696  0.6964
  196MOL   N14031730   1.174   2.532   4.877 -0.3357 -0.2545  0.4086
  196MOL   H14131731   1.156   2.466   4.626  2.2589  2.5159  0.1234
  196MOL   H14231732   1.171   2.305   4.698 -1.5625  0.4886 -1.0964
  196MOL   H14331733   1.341   2.539   4.751 -2.1999  0.4373 -1.8674
  196MOL   H14431734   1.223   2.588   4.946  0.3149  0.1952 -0.3907
  196MOL   H14531735   1.143   2.459   4.939 -1.7988 -1.8165 -2.0536
  196MOL   C14631736   1.362   2.389   4.894 -0.6462  0.3358  0.3778
  196MOL   C14731737   1.452   2.468   4.995 -0.8421 -0.3192 -0.2001
  196MOL   N14831738   1.534   2.384   5.075  0.2954  0.5272 -0.6722
  196MOL   H14931739   1.308   2.315   4.953  0.9515 -1.3487 -0.2369
  196MOL   H15031740   1.430   2.326   4.836  0.7009  0.6478  1.5952
  196MOL   H15131741   1.391   2.523   5.067 -1.1506 -0.2780 -0.4938
  196MOL   H15231742   1.613   2.429   5.119  0.3060 -0.3939  0.2735
  196MOL   H15331743   1.563   2.302   5.025 -2.0958 -2.3440  2.4143
  196MOL   C15431744   1.541   2.590   4.936  0.4689  0.0228  0.2667
  196MOL   C15531745   1.649   2.549   4.828 -0.6070  0.3517 -0.2271
  196MOL   N15631746   1.723   2.669   4.794 -0.2612 -0.1597  0.3914
  196MOL   H15731747   1.483   2.669   4.889  4.2437  2.7014 -0.1867
  196MOL   H15831748   1.581   2.644   5.023 -0.5598  0.8948  0.2101
  196MOL   H15931749   1.602   2.508   4.739  1.0015 -0.7317 -0.5965
  196MOL   H16031750   1.654   2.725   4.745 -0.3122  0.5674  1.2643
  196MOL   H16131751   1.782   2.627   4.725  0.8558 -1.1524  1.9246
  196MOL   H16231752   1.721   2.480   4.872 -0.0850 -0.4536 -2.2737
  197MOL     C131753   4.389   0.760   3.103  0.4501 -0.8081 -0.6269
  197MOL     C231754   4.370   0.606   3.103 -0.4325 -0.1269  0.0985
  197MOL     N331755   4.280   0.580   3.215  0.6507 -0.1337  0.3187
  197MOL     H431756   4.299   0.816   3.078 -0.3439 -0.9315  1.8139
  197MOL     H531757   4.456   0.792   3.023  0.4306 -0.6532 -0.5810
  197MOL     H631758   4.464   0.560   3.135 -0.5044 -1.8581 -2.0515
  197MOL     H731759   4.310   0.625   3.300  3.0470  1.8217 -1.4627
  197MOL     H831760   4.249   0.487   3.237  1.5195 -0.3665  0.5633
  197MOL     H931761   4.425   0.794   3.200  1.7306 -2.6390 -0.4296
  197MOL    C1031762   4.328   0.552   2.967  0.7673  0.1705 -0.4372
  197MOL    C1131763   4.445   0.554   2.860 -0.5532  0.4358 -0.2179
  197MOL    N1231764   4.481   0.414   2.840 -0.8538  0.4721  0.8309
  197MOL    H1331765   4.298   0.449   2.986 -4.1227  1.2328 -1.8354
  197MOL    H1431766   4.243   0.604   2.924  0.3211  0.9013  1.2992
  197MOL    H1531767   4.539   0.600   2.888 -1.0072  0.6583  0.9708
  197MOL    H1631768   4.569   0.426   2.792 -0.4844 -1.7138  0.8897
  197MOL    H1731769   4.510   0.376   2.930 -1.3892  3.0808  2.1602
  197MOL    C1831770   4.414   0.612   2.723 -0.2191  0.3702  0.2748
  197MOL    C1931771   4.391   0.767   2.711  0.2117  0.6329 -0.2785
  197MOL    N2031772   4.501   0.843   2.659  0.0846 -0.2048  0.2000
  197MOL    H2131773   4.495   0.579   2.658 -1.9833 -0.6969 -1.4465
  197MOL    H2231774   4.328   0.561   2.680 -1.3324  2.5271 -0.1383
  197MOL    H2331775   4.356   0.809   2.805 -0.8141  0.9009 -0.7704
  197MOL    H2431776   4.558   0.802   2.586  1.4779  0.7634  0.7204
  197MOL    H2531777   4.468   0.924   2.608 -2.2087 -1.3665 -0.2307
  197MOL    C2631778   4.267   0.807   2.619  0.2879  0.4225  0.0101
  197MOL    C2731779   4.191   0.937   2.665  0.3439 -0.0413 -0.2136
  197MOL    N2831780   4.121   0.994   2.552  0.3058  0.1411  0.1517
  197MOL    H2931781   4.308   0.812   2.518 -1.8152  0.8055 -0.8473
  197MOL    H3031782   4.193   0.727   2.615  0.4453  0.1973  1.3206
  197MOL    H3131783   4.269   1.012   2.681 -0.7545  1.4474 -1.5702
  197MOL    H3231784   4.101   1.092   2.569 -1.6670  0.0233 -1.2858
  197MOL    H3331785   4.178   0.999   2.468  2.5869  1.5298  1.7170
  197MOL    C3431786   4.103   0.913   2.796  0.2413  0.2949  0.4535
  197MOL    C3531787   4.063   1.049   2.855 -0.4766 -0.1078 -1.2477
  197MOL    N3631788   3.952   1.022   2.944  0.2278 -0.0112  0.2155
  197MOL    H3731789   4.018   0.858   2.756  1.0937 -1.0159  0.4010
  197MOL    H3831790   4.152   0.846   2.866 -0.9532 -1.7306 -0.5979
  197MOL    H3931791   4.036   1.118   2.775 -1.9501  0.5558 -0.1846
  197MOL    H4031792   3.864   1.044   2.900 -0.2370 -2.6289 -0.2924
  197MOL    H4131793   3.944   0.921   2.942  1.5259 -0.1011 -1.4506
  197MOL    C4231794   4.158   1.135   2.950 -0.4851  1.0577 -0.1900
  197MOL    C4331795   4.309   1.159   2.905  0.1796 -0.5088 -0.9858
  197MOL    N4431796   4.293   1.228   2.783  0.6766 -0.0021  0.8354
  197MOL    H4531797   4.111   1.230   2.974  1.4411  1.6775  1.3043
  197MOL    H4631798   4.156   1.085   3.047 -0.6900  0.1306 -0.6732
  197MOL    H4731799   4.361   1.067   2.879 -0.0753 -0.3686 -1.9816
  197MOL    H4831800   4.251   1.318   2.801 -2.6660 -1.3992  0.3384
  197MOL    H4931801   4.236   1.180   2.714 -0.4839  0.6834  1.3013
  197MOL    C5031802   4.396   1.242   3.000 -0.0208 -0.2049  0.3326
  197MOL    C5131803   4.419   1.187   3.143  0.2817  0.0516 -0.4574
  197MOL    N5231804   4.500   1.065   3.132 -0.4168  0.4593 -0.0330
  197MOL    H5331805   4.491   1.255   2.949  0.0828  1.7661  1.0082
  197MOL    H5431806   4.343   1.337   3.006 -1.0697 -0.6353 -1.6644
  197MOL    H5531807   4.325   1.159   3.192  1.6802 -2.5787  0.8235
  197MOL    H5631808   4.452   0.979   3.110  1.0080 -0.2669 -0.3299
  197MOL    H5731809   4.564   1.070   3.054 -0.8445 -0.9738 -0.4976
  197MOL    C5831810   4.489   1.290   3.232  0.0730  1.0807  0.2026
  197MOL    C5931811   4.408   1.327   3.360 -0.0634  0.3926 -0.2978
  197MOL    N6031812   4.503   1.402   3.437  0.2141 -0.4266 -0.3079
  197MOL    H6131813   4.586   1.247   3.257  0.4179  0.9742 -1.2748
  197MOL    H6231814   4.514   1.380   3.175  0.0254  0.9380 -0.0470
  197MOL    H6331815   4.390   1.232   3.411  0.9799  0.7758  0.7985
  197MOL    H6431816   4.531   1.488   3.392  0.8697 -1.2899 -1.5855
  197MOL    H6531817   4.586   1.348   3.456 -1.0249 -2.3489 -0.1471
  197MOL    C6631818   4.291   1.412   3.328  0.0382 -0.4809  0.0898
  197MOL    C6731819   4.176   1.414   3.432  0.5364 -0.4234  0.0919
  197MOL    N6831820   4.075   1.509   3.390  0.1427 -0.2660 -0.4226
  197MOL    H6931821   4.325   1.514   3.313 -1.9967  0.3146  0.6373
  197MOL    H7031822   4.255   1.389   3.227  1.3698  0.9031 -0.7153
  197MOL    H7131823   4.219   1.440   3.529  0.9115 -1.6536  0.2587
  197MOL    H7231824   3.986   1.482   3.430 -0.2519  0.4030 -0.8450
  197MOL    H7331825   4.099   1.602   3.420 -2.2688 -0.2787  1.7223
  197MOL    C7431826   4.103   1.281   3.448 -0.5512  0.0012 -0.1679
  197MOL    C7531827   4.022   1.282   3.583  0.4136 -0.0166  0.9663
  197MOL    N7631828   3.886   1.237   3.547  0.2828  0.2550  0.3171
  197MOL    H7731829   4.042   1.261   3.360 -0.2308  1.6531 -0.7916
  197MOL    H7831830   4.172   1.197   3.452  0.6580  0.8966 -1.7087
  197MOL    H7931831   4.016   1.385   3.618  2.1198  0.7389 -0.8119
  197MOL    H8031832   3.845   1.287   3.470  0.2107 -0.2867  0.0053
  197MOL    H8131833   3.815   1.259   3.616  1.7287  2.2978  1.1898
  197MOL    C8231834   4.089   1.192   3.690  0.0986  0.1984  0.2831
  197MOL    C8331835   4.222   1.231   3.748 -0.1357 -0.1187 -1.0862
  197MOL    N8431836   4.200   1.341   3.843 -0.6027  0.3502 -0.2222
  197MOL    H8531837   4.018   1.200   3.772 -0.3160 -5.2308  0.6368
  197MOL    H8631838   4.087   1.086   3.667  0.7458 -0.3046  2.4398
  197MOL    H8731839   4.292   1.266   3.671  1.5042 -1.5473 -0.2798
  197MOL    H8831840   4.155   1.427   3.815 -3.6640 -0.1974  2.6843
  197MOL    H8931841   4.154   1.316   3.930 -1.6966 -2.5158 -1.5681
  197MOL    C9031842   4.296   1.128   3.836  0.1656 -1.1020 -0.4515
  197MOL    C9131843   4.390   1.031   3.759  0.0864 -0.0728  0.3565
  197MOL    N9231844   4.470   0.945   3.848  0.3617 -0.0649  0.0194
  197MOL    H9331845   4.347   1.184   3.915 -0.3275  0.1363 -0.9871
  197MOL    H9431846   4.217   1.072   3.886 -1.3960  0.7917 -0.7301
  197MOL    H9531847   4.463   1.093   3.706  0.8925 -0.2128  1.2902
  197MOL    H9631848   4.550   0.924   3.790  1.1351  2.0174  0.3175
  197MOL    H9731849   4.435   0.850   3.853  1.0303 -0.3685 -0.8591
  197MOL    C9831850   4.324   0.948   3.648 -0.0363 -0.1931  0.0020
  197MOL    C9931851   4.421   0.851   3.571  0.4809  0.1665  0.6791
  197MOL   N10031852   4.350   0.764   3.481  0.2060  0.2489  0.1548
  197MOL   H10131853   4.240   0.894   3.693  0.0056 -1.3698 -1.2648
  197MOL   H10231854   4.282   1.015   3.573  2.5783  1.1057 -0.3603
  197MOL   H10331855   4.458   0.780   3.644 -0.1911  0.6126  1.4672
  197MOL   H10431856   4.286   0.814   3.421 -0.1945  0.0590  0.4194
  197MOL   H10531857   4.288   0.694   3.521 -0.8943  0.3654 -1.3095
  197MOL   C10631858   4.515   0.931   3.486  0.4855 -0.4640  0.5396
  197MOL   C10731859   4.634   0.857   3.428 -0.2369  0.4309 -0.4317
  197MOL   N10831860   4.725   0.963   3.381 -0.9406 -0.4812  0.1506
  197MOL   H10931861   4.459   0.990   3.414  1.6834  0.3984  0.2957
  197MOL   H11031862   4.554   1.013   3.547 -1.5901 -0.5853  2.0641
  197MOL   H11131863   4.604   0.797   3.342 -3.3103 -1.4572  1.8419
  197MOL   H11231864   4.771   0.939   3.295  1.2584  0.4912  1.0116
  197MOL   H11331865   4.667   1.042   3.357  0.0296  0.6301  1.3561
  197MOL   C11431866   4.700   0.752   3.526  0.5388 -0.2043  0.1545
  197MOL   C11531867   4.810   0.676   3.452  0.4811 -0.1707  0.4779
  197MOL   N11631868   4.891   0.607   3.555  0.0589 -0.5023 -0.4751
  197MOL   H11731869   4.743   0.804   3.611 -0.6358  0.4337  0.3789
  197MOL   H11831870   4.627   0.676   3.555  2.1519 -2.4418 -1.4885
  197MOL   H11931871   4.891   0.740   3.418  1.0260 -1.1317 -0.0655
  197MOL   H12031872   4.826   0.575   3.625 -1.4336  2.2775 -0.5325
  197MOL   H12131873   4.940   0.683   3.599 -0.4011 -0.5402  0.1031
  197MOL   C12231874   4.753   0.578   3.348 -0.2707  0.1279 -0.0746
  197MOL   C12331875   4.829   0.581   3.207 -0.3843  0.5717  0.5367
  197MOL   N12431876   4.842   0.449   3.150 -0.0272  0.1591 -0.0132
  197MOL   H12531877   4.765   0.481   3.395 -0.3350  0.5708  0.8640
  197MOL   H12631878   4.645   0.579   3.331 -0.6430 -1.4952  2.0668
  197MOL   H12731879   4.930   0.615   3.227 -0.0703  1.2812 -2.0759
  197MOL   H12831880   4.757   0.422   3.102  1.3849 -1.9469 -1.4372
  197MOL   H12931881   4.911   0.451   3.076 -0.0261 -1.4758 -0.0737
  197MOL   C13031882   4.768   0.683   3.106 -0.0077  0.6043  0.0664
  197MOL   C13131883   4.848   0.691   2.970  0.1505  0.0630 -0.4626
  197MOL   N13231884   4.769   0.749   2.863  0.3914 -0.3967 -0.4055
  197MOL   H13331885   4.663   0.658   3.088  0.0227 -0.5449  1.3837
  197MOL   H13431886   4.754   0.782   3.150 -1.4820  0.6244 -0.3991
  197MOL   H13531887   4.859   0.587   2.941  2.1884  1.1812 -3.9176
  197MOL   H13631888   4.697   0.680   2.851  0.5089 -0.1990 -2.3697
  197MOL   H13731889   4.833   0.728   2.788 -0.4438 -1.3670 -0.8477
  197MOL   C13831890   4.983   0.764   2.979  0.2399  0.0926  1.4947
  197MOL   C13931891   5.106   0.666   2.980 -0.0533 -0.2663  0.6935
  197MOL   N14031892   5.141   0.645   2.838 -0.0284 -0.2872 -0.2990
  197MOL   H14131893   4.998   0.839   2.902 -1.0749 -0.0309  1.1089
  197MOL   H14231894   4.985   0.826   3.069  0.7539  0.0148  1.5419
  197MOL   H14331895   5.086   0.565   3.016 -1.9233 -0.8185 -1.7404
  197MOL   H14431896   5.240   0.661   2.828  0.2457 -2.2313 -0.9997
  197MOL   H14531897   5.127   0.547   2.814  3.2956 -1.6659  2.9880
  197MOL   C14631898   5.230   0.726   3.049  0.9668  0.4073  0.0493
  197MOL   C14731899   5.209   0.745   3.205  0.3615 -0.0103 -0.2131
  197MOL   N14831900   5.290   0.652   3.282 -0.3795  0.5681  0.6225
  197MOL   H14931901   5.317   0.663   3.030 -0.2651 -0.5213 -2.7047
  197MOL   H15031902   5.249   0.823   3.004  0.3291 -0.6361 -2.5927
  197MOL   H15131903   5.107   0.737   3.244  0.4178  2.6458  0.5888
  197MOL   H15231904   5.225   0.577   3.301 -0.1398  0.8926  2.7855
  197MOL   H15331905   5.370   0.607   3.240 -1.6200 -2.0683  0.9670
  197MOL   C15431906   5.247   0.876   3.267 -0.3804 -0.1430 -0.8708
  197MOL   C15531907   5.136   0.978   3.242  0.1066  0.2253 -0.1462
  197MOL   N15631908   5.171   1.100   3.315 -0.4162  0.7569 -0.1370
  197MOL   H15731909   5.262   0.866   3.374  0.5837 -1.9431 -1.1477
  197MOL   H15831910   5.343   0.903   3.222  1.4278 -1.5920  1.9946
  197MOL   H15931911   5.038   0.952   3.282  0.1430  0.6762  0.2430
  197MOL   H16031912   5.178   1.069   3.411  1.0301  0.5601 -0.2974
  197MOL   H16131913   5.095   1.167   3.319  0.2585  1.4668  1.5396
  197MOL   H16231914   5.119   1.003   3.137 -0.4670  0.9979  0.1291
  198MOL     C131915   4.179   6.418   6.274 -0.3848 -0.1805 -0.1855
  198MOL     C231916   4.325   6.416   6.319  0.5050 -0.0081  0.0919
  198MOL     N331917   4.364   6.278   6.349 -0.2731 -0.1082 -0.2775
  198MOL     H431918   4.120   6.362   6.348  1.3756  1.5736  2.6038
  198MOL     H531919   4.151   6.383   6.175 -0.6809  0.4827 -0.3385
  198MOL     H631920   4.338   6.465   6.416 -1.7560 -0.5091  0.6816
  198MOL     H731921   4.285   6.216   6.344 -1.0868  0.9129 -0.3920
  198MOL     H831922   4.375   6.285   6.449 -1.5441  0.1644 -0.1424
  198MOL     H931923   4.139   6.519   6.286 -0.4666 -0.2777  0.4008
  198MOL    C1031924   4.416   6.476   6.205  0.0783  0.4138  0.2895
  198MOL    C1131925   4.385   6.629   6.189  0.1739  0.9018  0.4980
  198MOL    N1231926   4.485   6.712   6.254 -0.0630  0.5186 -0.2065
  198MOL    H1331927   4.522   6.457   6.219 -0.4103 -2.0215  0.9270
  198MOL    H1431928   4.387   6.419   6.117 -0.5699 -0.3977  1.0190
  198MOL    H1531929   4.286   6.651   6.229 -0.3516  0.6905 -0.6480
  198MOL    H1631930   4.455   6.808   6.247  0.1877  0.6153  0.0491
  198MOL    H1731931   4.487   6.699   6.354 -3.3798 -1.8965 -0.3942
  198MOL    C1831932   4.395   6.668   6.041  0.1482  0.0336  0.3059
  198MOL    C1931933   4.274   6.635   5.955 -0.0334 -0.1503 -0.3344
  198MOL    N2031934   4.176   6.742   5.952  0.1001 -0.2138 -0.0444
  198MOL    H2131935   4.407   6.776   6.038 -1.8222  0.2568  0.3719
  198MOL    H2231936   4.490   6.627   6.004  0.9804  2.2675 -0.1156
  198MOL    H2331937   4.221   6.560   6.013  1.3478  1.6996  3.4839
  198MOL    H2431938   4.136   6.740   6.044 -0.7415  1.0313 -0.3692
  198MOL    H2531939   4.210   6.836   5.935 -2.4705  0.6668 -0.5902
  198MOL    C2631940   4.296   6.604   5.808  0.1439  0.2502 -0.1299
  198MOL    C2731941   4.397   6.494   5.772 -0.9310  0.3570  0.3908
  198MOL    N2831942   4.351   6.426   5.650 -0.7222  0.5488  0.5747
  198MOL    H2931943   4.203   6.582   5.756  0.8142 -0.9870 -0.8354
  198MOL    H3031944   4.335   6.702   5.780 -1.7354  0.8923 -0.5971
  198MOL    H3131945   4.395   6.417   5.850 -1.5782 -0.9824 -0.9313
  198MOL    H3231946   4.253   6.409   5.666 -0.5348 -0.2848  0.8626
  198MOL    H3331947   4.397   6.336   5.654 -0.4917  0.6646  0.5265
  198MOL    C3431948   4.538   6.554   5.746  0.6886 -0.7588 -0.7999
  198MOL    C3531949   4.661   6.466   5.773 -0.5686  0.1662 -0.4301
  198MOL    N3631950   4.773   6.543   5.721  0.0190  0.6019  0.0435
  198MOL    H3731951   4.531   6.585   5.642  1.6980  1.8420 -0.1236
  198MOL    H3831952   4.558   6.645   5.802 -2.7605 -1.0039  0.9552
  198MOL    H3931953   4.646   6.376   5.714 -4.3048  0.7127 -0.3945
  198MOL    H4031954   4.771   6.632   5.768  0.1975  1.5768 -1.7449
  198MOL    H4131955   4.738   6.563   5.628 -0.2271 -0.9898 -0.2377
  198MOL    C4231956   4.682   6.428   5.920 -0.9557  0.5737 -0.6734
  198MOL    C4331957   4.739   6.290   5.944 -0.4031  0.4418 -0.0655
  198MOL    N4431958   4.829   6.292   6.055 -0.5385 -0.2587 -0.2926
  198MOL    H4531959   4.735   6.514   5.960  1.4394 -1.4405  0.6469
  198MOL    H4631960   4.588   6.428   5.974 -0.2125  0.9749  0.6173
  198MOL    H4731961   4.784   6.247   5.855  0.3296 -3.1685  1.9848
  198MOL    H4831962   4.884   6.376   6.041  1.2473 -1.4004 -0.2477
  198MOL    H4931963   4.905   6.231   6.031 -0.1430 -0.0250  0.3634
  198MOL    C5031964   4.627   6.193   5.973  0.2937  0.3332 -0.1596
  198MOL    C5131965   4.657   6.045   5.990 -0.0401  0.3044  0.2255
  198MOL    N5231966   4.542   5.974   6.049 -0.8468 -0.1819 -0.2587
  198MOL    H5331967   4.582   6.229   6.065 -1.5191 -2.8683  0.2786
  198MOL    H5431968   4.553   6.205   5.894  1.8005  3.5519 -1.1740
  198MOL    H5531969   4.739   6.036   6.061  0.6103 -1.7511 -0.7632
  198MOL    H5631970   4.573   5.881   6.074 -0.6349 -0.4357 -1.4600
  198MOL    H5731971   4.524   6.008   6.143  2.3504 -0.7287  0.5985
  198MOL    C5831972   4.702   5.974   5.856 -0.4788 -0.3809 -0.1831
  198MOL    C5931973   4.748   5.822   5.866  0.3998 -0.1814 -0.1968
  198MOL    N6031974   4.772   5.781   5.733 -0.2357  0.4967  0.2083
  198MOL    H6131975   4.617   5.978   5.789 -0.6341 -0.5870  0.0031
  198MOL    H6231976   4.780   6.035   5.809 -0.8040 -1.0370 -1.5954
  198MOL    H6331977   4.671   5.765   5.918 -0.0221  0.3477 -0.2380
  198MOL    H6431978   4.690   5.805   5.679 -0.7123  0.6942  1.0214
  198MOL    H6531979   4.845   5.842   5.699  2.1641 -1.2433  2.1107
  198MOL    C6631980   4.882   5.817   5.945 -0.3132  0.1960  0.3252
  198MOL    C6731981   4.938   5.676   5.968  0.1529 -0.0011  1.0739
  198MOL    N6831982   5.074   5.698   6.013  0.1355  0.5246  0.1886
  198MOL    H6931983   4.948   5.877   5.883  0.6514 -0.4491  0.7152
  198MOL    H7031984   4.872   5.866   6.042 -0.2539 -1.1197  1.0152
  198MOL    H7131985   4.940   5.630   5.869 -1.4419 -0.4737  1.2445
  198MOL    H7231986   5.120   5.613   6.040 -1.8178 -0.2401  1.2267
  198MOL    H7331987   5.126   5.745   5.940 -1.4441  1.1146 -0.5780
  198MOL    C7431988   4.863   5.586   6.064  0.5407 -0.3281  0.1789
  198MOL    C7531989   4.908   5.435   6.064 -0.5058 -0.7717  0.3136
  198MOL    N7631990   4.872   5.376   6.191 -0.3788 -0.0637 -0.9210
  198MOL    H7731991   4.883   5.625   6.164  3.4490 -2.7103  0.5674
  198MOL    H7831992   4.756   5.598   6.044  1.1167 -0.5884 -3.2167
  198MOL    H7931993   5.017   5.426   6.062 -0.6078 -1.7716 -2.0547
  198MOL    H8031994   4.888   5.276   6.186 -0.2369 -0.0355 -1.0387
  198MOL    H8131995   4.912   5.419   6.273  0.3723 -2.8978  0.2827
  198MOL    C8231996   4.837   5.349   5.953 -0.2676 -0.3272 -0.2469
  198MOL    C8331997   4.902   5.209   5.928 -0.5050 -0.2397 -0.2685
  198MOL    N8431998   4.803   5.100   5.917 -0.1977  0.5806 -0.1874
  198MOL    H8531999   4.733   5.351   5.985  0.1232  1.0588  0.9486
  198MOL    H8632000   4.839   5.410   5.863 -0.5258  1.4078  0.9107
  198MOL    H8732001   4.966   5.190   6.014  0.5934  2.0012 -0.5447
  198MOL    H8832002   4.727   5.140   5.864  0.5771 -0.3061 -2.0251
  198MOL    H8932003   4.825   5.036   5.842  2.1114  0.9037  0.1727
  198MOL    C9032004   4.997   5.209   5.801 -0.1808 -0.0618  0.0787
  198MOL    C9132005   5.116   5.316   5.799  0.0100  0.4286  0.2405
  198MOL    N9232006   5.243   5.254   5.787  0.1848 -0.5056 -0.1043
  198MOL    H9332007   5.055   5.117   5.797  0.9249  0.6554 -0.6854
  198MOL    H9432008   4.944   5.207   5.706  2.9701  0.6902 -1.7629
  198MOL    H9532009   5.112   5.364   5.897  0.1400 -1.2988  1.1151
  198MOL    H9632010   5.314   5.311   5.830  1.0410 -1.8904  0.3390
  198MOL    H9732011   5.233   5.175   5.848 -2.5176 -1.5804 -1.8554
  198MOL    C9832012   5.098   5.422   5.696  0.6030 -0.4063  0.4749
  198MOL    C9932013   5.108   5.371   5.549 -0.1659  0.5659 -0.4849
  198MOL   N10032014   5.025   5.455   5.471 -0.3379  0.7202  0.6782
  198MOL   H10132015   5.000   5.462   5.720  0.2430 -1.5013  0.8634
  198MOL   H10232016   5.155   5.512   5.717  2.1788 -1.2777  0.0152
  198MOL   H10332017   5.065   5.271   5.542 -0.1554  0.4874  0.5891
  198MOL   H10432018   4.934   5.481   5.508  0.2749  0.9453  2.0646
  198MOL   H10532019   5.007   5.401   5.388  4.4572 -0.3242  0.1710
  198MOL   C10632020   5.259   5.379   5.499 -0.3198  0.3413  0.1494
  198MOL   C10732021   5.302   5.297   5.379  0.6553 -0.3579 -0.4851
  198MOL   N10832022   5.386   5.382   5.299 -0.1225  0.0307 -0.3330
  198MOL   H10932023   5.278   5.485   5.483  1.3970 -0.0257 -0.4312
  198MOL   H11032024   5.336   5.355   5.573 -0.4349 -3.3275 -0.8252
  198MOL   H11132025   5.218   5.273   5.314  0.0444 -0.8898  0.4868
  198MOL   H11232026   5.381   5.340   5.208  1.3314 -1.4683  0.2476
  198MOL   H11332027   5.348   5.475   5.290 -0.6337 -0.1869 -0.4110
  198MOL   C11432028   5.377   5.175   5.415  0.4013  0.4376  0.0033
  198MOL   C11532029   5.295   5.047   5.460  0.3932  0.0654  1.1752
  198MOL   N11632030   5.216   4.998   5.346 -0.4247  0.0228  0.3258
  198MOL   H11732031   5.426   5.135   5.326 -1.0448 -0.7435 -0.2949
  198MOL   H11832032   5.463   5.197   5.477 -0.2941 -1.0897  1.5430
  198MOL   H11932033   5.233   5.082   5.544 -0.8688 -1.3478  0.8497
  198MOL   H12032034   5.172   4.913   5.379  0.1183  0.1524  1.4008
  198MOL   H12132035   5.137   5.060   5.357 -0.0347  0.5238  0.3171
  198MOL   C12232036   5.383   4.924   5.493 -0.0868  0.3957  0.5286
  198MOL   C12332037   5.452   4.942   5.629 -0.0848 -0.1498 -0.4658
  198MOL   N12432038   5.346   4.930   5.728 -0.2523 -0.2309  0.1007
  198MOL   H12532039   5.325   4.832   5.488  1.2637 -0.4911  0.8045
  198MOL   H12632040   5.462   4.913   5.418  0.0124  0.5136  0.6148
  198MOL   H12732041   5.497   5.040   5.641 -1.7089  0.4694  0.6739
  198MOL   H12832042   5.265   4.971   5.682  1.4869  2.9004 -0.2884
  198MOL   H12932043   5.317   4.835   5.709 -0.5745  0.2463 -1.9022
  198MOL   C13032044   5.561   4.836   5.670  0.2950  0.2787 -0.4011
  198MOL   C13132045   5.701   4.858   5.595  0.1578 -0.2120 -0.2685
  198MOL   N13232046   5.792   4.766   5.661  0.1583  0.4664 -0.1427
  198MOL   H13332047   5.579   4.848   5.776  0.3573  1.3769 -0.5258
  198MOL   H13432048   5.527   4.734   5.655  2.5896 -0.6078  0.1803
  198MOL   H13532049   5.754   4.951   5.612 -0.2556  0.0166 -0.2103
  198MOL   H13632050   5.878   4.754   5.609 -0.4262 -1.5063 -0.7028
  198MOL   H13732051   5.821   4.824   5.738 -2.2963  2.7449 -0.8276
  198MOL   C13832052   5.704   4.805   5.455  0.0847  0.6213  0.1869
  198MOL   C13932053   5.744   4.915   5.352 -0.4433  0.0492  0.4563
  198MOL   N14032054   5.888   4.938   5.360  0.2169  0.0592  0.5003
  198MOL   H14132055   5.770   4.720   5.440  1.5642  1.9734 -1.1024
  198MOL   H14232056   5.607   4.760   5.433 -0.5104  1.4758  1.0071
  198MOL   H14332057   5.685   5.006   5.353 -0.7654 -0.1575  2.4956
  198MOL   H14432058   5.906   5.001   5.284 -1.6724  0.6858  0.5554
  198MOL   H14532059   5.895   4.993   5.445 -1.4423  0.4396  0.4096
  198MOL   C14632060   5.713   4.861   5.212  0.4431  0.7133  0.3249
  198MOL   C14732061   5.729   4.967   5.102  0.1861  0.2386 -0.0937
  198MOL   N14832062   5.727   4.897   4.969  0.2793 -0.6571  0.0273
  198MOL   H14932063   5.780   4.775   5.200 -1.4563 -0.5795 -1.2553
  198MOL   H15032064   5.615   4.813   5.211  1.7721 -2.2393  2.6596
  198MOL   H15132065   5.830   5.007   5.102  0.5631 -0.6964  0.0939
  198MOL   H15232066   5.780   4.811   4.977  0.5411 -0.6737 -1.6518
  198MOL   H15332067   5.641   4.859   4.933  0.1071  1.6227 -2.1388
  198MOL   C15432068   5.635   5.087   5.107 -0.0763 -0.4808  0.4717
  198MOL   C15532069   5.690   5.201   5.198 -0.2351 -0.0695  0.4541
  198MOL   N15632070   5.620   5.322   5.167  0.3835  0.0621  0.4051
  198MOL   H15732071   5.640   5.131   5.008  1.1026  2.5948  1.8259
  198MOL   H15832072   5.533   5.059   5.130 -0.0959 -1.1892 -0.4679
  198MOL   H15932073   5.795   5.208   5.170 -0.4340 -1.6043 -0.7540
  198MOL   H16032074   5.566   5.354   5.246 -0.6983  0.3848 -0.4436
  198MOL   H16132075   5.555   5.307   5.090 -0.2485 -1.3872  1.2127
  198MOL   H16232076   5.674   5.198   5.306 -0.0619  1.5929  0.5424
  199MOL     C132077   5.135   5.844   4.574  0.1000 -0.7934  0.0456
  199MOL     C232078   5.254   5.753   4.536 -0.5398  0.6975  0.4388
  199MOL     N332079   5.224   5.620   4.591  0.2655 -0.0673  0.5216
  199MOL     H432080   5.049   5.819   4.511 -0.5520  2.0419 -0.2477
  199MOL     H532081   5.159   5.947   4.547 -1.4404 -0.3785  0.2076
  199MOL     H632082   5.345   5.797   4.576 -1.2205  1.1266  1.5085
  199MOL     H732083   5.279   5.611   4.676  2.9094 -1.6162 -1.2620
  199MOL     H832084   5.279   5.566   4.526  1.2529  3.1098 -1.4079
  199MOL     H932085   5.117   5.839   4.681 -2.5206  1.9641 -0.2153
  199MOL    C1032086   5.271   5.737   4.384 -0.9896 -0.6588 -1.2178
  199MOL    C1132087   5.400   5.671   4.326  0.5673 -0.8793 -0.4322
  199MOL    N1232088   5.388   5.535   4.369  0.6583  0.6343 -0.3541
  199MOL    H1332089   5.185   5.680   4.347 -1.6302 -0.3026 -0.2898
  199MOL    H1432090   5.253   5.834   4.336  1.7550  0.0152 -0.9765
  199MOL    H1532091   5.486   5.716   4.374  0.2863 -0.9740  0.1741
  199MOL    H1632092   5.479   5.490   4.370 -0.2846 -1.2893  0.6590
  199MOL    H1732093   5.333   5.484   4.302 -0.9885 -0.3612  1.7227
  199MOL    C1832094   5.424   5.674   4.172  0.1645 -0.2083 -0.7067
  199MOL    C1932095   5.488   5.802   4.112  0.4898 -0.2463 -0.2555
  199MOL    N2032096   5.617   5.828   4.173 -0.4950 -0.4214 -0.6020
  199MOL    H2132097   5.471   5.583   4.136 -1.0100 -0.5185 -1.4763
  199MOL    H2232098   5.323   5.668   4.132  0.1623 -0.6884 -0.6336
  199MOL    H2332099   5.427   5.887   4.143  1.2886 -0.5543  2.2574
  199MOL    H2432100   5.664   5.899   4.118 -0.6792 -1.1996 -1.7875
  199MOL    H2532101   5.665   5.742   4.152 -0.5946 -0.0174 -2.6797
  199MOL    C2632102   5.480   5.812   3.957  0.3505 -0.0402 -0.1984
  199MOL    C2732103   5.467   5.955   3.903 -0.1313 -0.2279  0.0493
  199MOL    N2832104   5.507   5.960   3.765  0.4810 -0.4098 -1.3188
  199MOL    H2932105   5.574   5.768   3.922 -0.2414  0.4251 -2.4263
  199MOL    H3032106   5.397   5.754   3.916  0.1239 -0.5245  0.9180
  199MOL    H3132107   5.540   6.018   3.952 -1.7265  1.1270  0.7431
  199MOL    H3232108   5.507   6.059   3.749 -0.2937 -0.5776 -2.3953
  199MOL    H3332109   5.603   5.927   3.759  0.1270 -1.6941 -0.0657
  199MOL    C3432110   5.319   5.997   3.926 -0.2896  0.3220  0.4209
  199MOL    C3532111   5.287   6.148   3.912 -0.2948 -0.3175 -0.0612
  199MOL    N3632112   5.142   6.132   3.920  0.4537  0.0084 -0.3011
  199MOL    H3732113   5.263   5.927   3.865 -0.4817  0.1516  0.7959
  199MOL    H3832114   5.296   5.982   4.032 -3.4358  0.7932 -0.1629
  199MOL    H3932115   5.305   6.181   3.809  1.8717 -2.0668 -0.2758
  199MOL    H4032116   5.107   6.118   4.013 -1.8148 -0.6284 -1.2178
  199MOL    H4132117   5.099   6.218   3.891 -0.6647  0.4155  2.4561
  199MOL    C4232118   5.342   6.235   4.026  0.3595  0.2204 -0.2406
  199MOL    C4332119   5.336   6.389   3.992  0.1607 -0.3447 -0.8684
  199MOL    N4432120   5.206   6.436   4.034 -0.3121 -0.2776  0.0277
  199MOL    H4532121   5.291   6.221   4.121 -0.3226  0.6464 -0.5489
  199MOL    H4632122   5.443   6.205   4.056  0.5349  1.4180  0.3728
  199MOL    H4732123   5.349   6.407   3.885 -0.6216  1.6430 -0.6610
  199MOL    H4832124   5.197   6.534   4.015  1.4570  0.1209  1.1274
  199MOL    H4932125   5.137   6.400   3.970 -0.4810 -0.8334  0.5165
  199MOL    C5032126   5.439   6.474   4.065 -0.2829 -1.0897  0.1076
  199MOL    C5132127   5.436   6.631   4.066  0.5719 -0.0543  0.0385
  199MOL    N5232128   5.546   6.671   4.147 -0.2092  0.3246 -0.0853
  199MOL    H5332129   5.438   6.426   4.163  0.6530 -1.0222  0.1604
  199MOL    H5432130   5.537   6.457   4.021  1.0174 -0.7269  2.7130
  199MOL    H5532131   5.345   6.671   4.109  1.4108  0.2332  1.5864
  199MOL    H5632132   5.632   6.623   4.124 -0.5305 -0.2553 -0.0806
  199MOL    H5732133   5.540   6.648   4.245  1.4911  2.6810  0.6161
  199MOL    C5832134   5.452   6.674   3.915  0.5667 -0.1871 -0.1748
  199MOL    C5932135   5.452   6.831   3.898  0.0861 -0.3279 -0.0176
  199MOL    N6032136   5.490   6.867   3.763  0.2972  0.8319 -0.3757
  199MOL    H6132137   5.552   6.642   3.886  0.1789  0.1525 -1.9464
  199MOL    H6232138   5.373   6.627   3.857  2.4230 -1.6330 -1.6048
  199MOL    H6332139   5.524   6.880   3.965  0.2535 -1.4175  0.6015
  199MOL    H6432140   5.511   6.966   3.755 -1.1450  1.2162  0.4515
  199MOL    H6532141   5.569   6.816   3.726 -0.6800 -1.6458  0.8770
  199MOL    C6632142   5.317   6.899   3.923  0.0909  0.0278  0.4716
  199MOL    C6732143   5.311   7.027   4.015 -0.2694  0.5067 -0.6642
  199MOL    N6832144   5.188   7.101   3.995  0.7152  0.1532  0.7614
  199MOL    H6932145   5.274   6.935   3.830  1.0211 -0.4993 -0.1632
  199MOL    H7032146   5.257   6.815   3.959 -0.5627  0.4873  0.4755
  199MOL    H7132147   5.392   7.091   3.980 -0.2534  0.0432 -1.4886
  199MOL    H7232148   5.177   7.096   3.894  3.3138 -2.6463  0.5317
  199MOL    H7332149   5.103   7.055   4.023 -0.2317  0.0476 -2.0683
  199MOL    C7432150   5.332   7.000   4.164  0.0511  0.3347 -0.3993
  199MOL    C7532151   5.335   7.118   4.266 -0.3008  0.0068 -1.0792
  199MOL    N7632152   5.390   7.085   4.393  0.2933 -0.8192  0.2479
  199MOL    H7732153   5.259   6.922   4.187  1.2004 -0.0610  2.0536
  199MOL    H7832154   5.417   6.933   4.158 -0.8904 -1.0948  1.6599
  199MOL    H7932155   5.234   7.154   4.286  0.2689  0.8404  0.3839
  199MOL    H8032156   5.403   7.165   4.453  1.4510 -0.0356 -1.0349
  199MOL    H8132157   5.331   7.019   4.441 -2.8690  2.1775  0.6597
  199MOL    C8232158   5.409   7.244   4.223  0.6556  0.5478 -0.5319
  199MOL    C8332159   5.338   0.103   4.245  0.0008  0.8816  0.3698
  199MOL    N8432160   5.287   0.107   4.382 -0.7340  0.0784 -0.3062
  199MOL    H8532161   5.512   7.251   4.258  0.6577  2.1765 -0.8628
  199MOL    H8632162   5.425   7.232   4.115  0.5582  0.1704 -0.5063
  199MOL    H8732163   5.255   0.095   4.174  1.4275  0.9819 -1.3423
  199MOL    H8832164   5.187   0.122   4.384 -0.8582 -0.8524  2.8037
  199MOL    H8932165   5.313   0.195   4.425 -1.6198  0.0977  0.2263
  199MOL    C9032166   5.421   0.229   4.219 -0.4392  0.1524 -0.5364
  199MOL    C9132167   5.518   0.239   4.102 -0.1082 -0.3597 -0.2494
  199MOL    N9232168   5.449   0.219   3.973 -0.3232  0.0530 -0.2116
  199MOL    H9332169   5.350   0.311   4.224 -0.9161 -0.1927 -1.5344
  199MOL    H9432170   5.478   0.248   4.310 -0.7748  0.9580 -0.4912
  199MOL    H9532171   5.582   0.150   4.107 -3.2812 -2.8182 -1.8046
  199MOL    H9632172   5.514   0.242   3.899  2.2548 -0.6031  1.7662
  199MOL    H9732173   5.391   0.138   3.960  0.9100 -2.0658  5.5548
  199MOL    C9832174   5.595   0.368   4.099 -0.0985  0.1564 -0.0922
  199MOL    C9932175   5.722   0.369   4.192 -0.0992  0.6967  1.0036
  199MOL   N10032176   5.828   0.284   4.142  0.2548  0.5293 -0.2404
  199MOL   H10132177   5.620   0.392   3.996  1.6354 -1.5158 -0.1018
  199MOL   H10232178   5.519   0.435   4.139  0.8540 -0.0039  2.1300
  199MOL   H10332179   5.701   0.339   4.295 -1.6888  1.3431  0.8881
  199MOL   H10432180   5.896   0.287   4.217 -1.8544 -1.2273  1.8101
  199MOL   H10532181   5.805   0.188   4.121  0.7978  0.4521 -0.4919
  199MOL   C10632182   5.776   0.509   4.196  0.0354  0.7945  0.1317
  199MOL   C10732183   5.897   0.533   4.293 -0.6520 -0.3700  0.3017
  199MOL   N10832184   5.962   0.659   4.274 -0.3311 -0.1238  0.3849
  199MOL   H10932185   5.809   0.536   4.096  3.0503  0.8725  1.0974
  199MOL   H11032186   5.698   0.578   4.227 -0.8046 -0.5258  1.0481
  199MOL   H11132187   5.966   0.451   4.278 -1.0950 -0.9115  1.1856
  199MOL   H11232188   6.000   0.650   4.181  4.4091 -0.4784  2.1596
  199MOL   H11332189   5.897   0.736   4.269 -0.8271 -0.4488  1.6029
  199MOL   C11432190   5.867   0.527   4.446 -0.7903  0.6723  0.1750
  199MOL   C11532191   5.903   0.390   4.514 -0.5060 -0.1570  0.0052
  199MOL   N11632192   6.053   0.386   4.528  0.3934  0.3195  0.5812
  199MOL   H11732193   5.904   0.611   4.505 -0.4615  1.2944 -0.8858
  199MOL   H11832194   5.760   0.544   4.462 -1.3662 -1.2460 -1.3703
  199MOL   H11932195   5.869   0.305   4.456  1.0384  0.1667 -1.4070
  199MOL   H12032196   6.069   0.484   4.543 -5.4251  1.4419  0.6115
  199MOL   H12132197   6.083   0.336   4.611  0.4193  0.6366  0.7610
  199MOL   C12232198   5.842   0.382   4.660  0.3488  0.4201 -0.1486
  199MOL   C12332199   5.871   0.243   4.730  0.1931 -0.3171 -0.9142
  199MOL   N12432200   5.837   0.261   4.866 -0.1706 -0.1980 -0.0518
  199MOL   H12532201   5.882   0.463   4.721  0.7936 -1.9339  2.8374
  199MOL   H12632202   5.737   0.409   4.653  0.4782  0.9427 -0.0858
  199MOL   H12732203   5.977   0.221   4.730  0.2629  0.0118 -0.4503
  199MOL   H12832204   5.870   0.185   4.924 -0.7290  0.2449  0.8624
  199MOL   H12932205   5.891   0.339   4.902 -0.4851  0.6725 -1.4136
  199MOL   C13032206   5.788   0.127   4.669 -0.8110  0.1828 -0.0020
  199MOL   C13132207   5.878   0.031   4.590 -0.2536  0.4693 -0.2566
  199MOL   N13232208   5.981   7.254   4.671 -0.9307 -0.2767  0.1172
  199MOL   H13332209   5.734   0.072   4.746  1.2389 -0.4272  1.0609
  199MOL   H13432210   5.709   0.168   4.607 -0.7253 -0.2515 -0.4037
  199MOL   H13532211   5.920   0.094   4.511  0.4018  0.6904  0.2654
  199MOL   H13632212   5.957   7.173   4.727 -0.2552 -0.2540  0.4519
  199MOL   H13732213   6.012   0.050   4.735 -1.2037 -0.0255 -0.0367
  199MOL   C13832214   5.811   7.196   4.515  0.1254  0.4811  0.2716
  199MOL   C13932215   5.895   7.128   4.405 -0.1711  0.4448 -0.3686
  199MOL   N14032216   5.991   7.036   4.473 -0.3569  0.3440  0.1159
  199MOL   H14132217   5.762   7.121   4.577 -1.1761  0.5629 -0.6356
  199MOL   H14232218   5.725   7.238   4.464 -0.1392 -4.0745 -3.3638
  199MOL   H14332219   5.952   7.199   4.345  0.5908  1.0541  1.0624
  199MOL   H14432220   6.038   7.096   4.539 -0.0660 -0.6287  0.8051
  199MOL   H14532221   5.925   6.984   4.528 -1.1740  0.5857 -0.6330
  199MOL   C14632222   5.800   7.047   4.313  0.4882  0.7119 -0.1978
  199MOL   C14732223   5.857   7.005   4.170 -0.1287  0.3624 -0.1455
  199MOL   N14832224   5.803   6.874   4.147 -0.0855 -0.3147 -0.2563
  199MOL   H14932225   5.741   6.971   4.364  1.0816  0.4826  0.1632
  199MOL   H15032226   5.718   7.116   4.294 -0.1935  0.5040  1.8910
  199MOL   H15132227   5.965   6.997   4.174 -0.1484  0.7196  4.0425
  199MOL   H15232228   5.713   6.872   4.101 -0.4078 -0.5744  0.3921
  199MOL   H15332229   5.800   6.819   4.231 -0.3360 -0.1913 -0.1859
  199MOL   C15432230   5.801   7.085   4.057 -0.4998  0.5024  0.0741
  199MOL   C15532231   5.822   7.236   4.065 -0.2661 -0.8198  0.1628
  199MOL   N15632232   5.776   0.025   3.946 -0.1132 -0.3647 -0.1989
  199MOL   H15732233   5.844   7.049   3.964  2.4070 -0.8699  1.8788
  199MOL   H15832234   5.692   7.073   4.056 -0.3694 -1.4820  3.0714
  199MOL   H15932235   5.925   7.257   4.093 -0.3931 -0.8690  0.6862
  199MOL   H16032236   5.801   7.236   3.873 -2.6685 -1.4975 -0.1383
  199MOL   H16132237   5.810   0.119   3.931 -3.3537  1.6451  3.8860
  199MOL   H16232238   5.779   0.002   4.156 -1.2754 -2.5311  0.4942
  200MOL     C132239   1.680   5.939   5.571 -1.2806  0.1495 -0.0527
  200MOL     C232240   1.828   5.890   5.599 -0.0424 -0.1189  0.3548
  200MOL     N332241   1.897   5.934   5.475 -0.3305  0.1323  0.2144
  200MOL     H432242   1.646   5.899   5.475  1.8637  0.7259 -1.4617
  200MOL     H532243   1.682   6.048   5.574  0.4709  0.1617 -1.1811
  200MOL     H632244   1.801   5.784   5.591  0.4395 -0.2413  0.3337
  200MOL     H732245   1.995   5.949   5.489 -0.5872  1.8561  0.2480
  200MOL     H832246   1.901   5.851   5.417 -1.8519  0.4822 -0.4312
  200MOL     H932247   1.603   5.907   5.642 -0.6205  1.2869  1.2113
  200MOL    C1032248   1.883   5.938   5.736  0.3955  0.4733  0.0761
  200MOL    C1132249   1.868   5.848   5.859  0.1636  0.4631 -0.1795
  200MOL    N1232250   1.916   5.719   5.813 -0.3038 -0.7819 -0.0738
  200MOL    H1332251   1.989   5.958   5.718  0.2202  0.2449 -1.2260
  200MOL    H1432252   1.834   6.033   5.754  0.4027  0.4109  0.4341
  200MOL    H1532253   1.763   5.841   5.890  0.1794  2.7546  0.4970
  200MOL    H1632254   1.845   5.664   5.767 -0.0930  0.4507 -1.9247
  200MOL    H1732255   1.995   5.722   5.750 -0.2711  0.0733  0.0065
  200MOL    C1832256   1.950   5.895   5.973 -0.6243  0.0369  0.7349
  200MOL    C1932257   1.918   5.822   6.103 -0.1696  0.2758 -0.8432
  200MOL    N2032258   2.035   5.846   6.186 -0.3318  0.4666 -0.2057
  200MOL    H2132259   2.058   5.898   5.956 -0.4760  0.4391  1.7108
  200MOL    H2232260   1.917   5.996   5.997 -0.2117  0.8704 -2.0437
  200MOL    H2332261   1.921   5.713   6.091  1.5536  0.2245 -0.2257
  200MOL    H2432262   2.021   5.807   6.279  1.7056 -2.0287 -0.9013
  200MOL    H2532263   2.024   5.944   6.208 -0.7596  0.1074  1.3010
  200MOL    C2632264   1.780   5.857   6.172 -0.1969 -0.4820 -0.3645
  200MOL    C2732265   1.723   5.732   6.236  0.0895  0.2526  0.2377
  200MOL    N2832266   1.631   5.777   6.337  0.1423  0.1165 -0.3560
  200MOL    H2932267   1.796   5.940   6.240  0.8348 -0.0055 -1.1817
  200MOL    H3032268   1.699   5.888   6.105 -0.5725  0.1894  0.3948
  200MOL    H3132269   1.803   5.677   6.286  1.6715  1.4127 -0.9175
  200MOL    H3232270   1.687   5.806   6.416  0.9646 -1.3639 -0.3723
  200MOL    H3332271   1.575   5.702   6.375  1.7380 -0.0403  1.7533
  200MOL    C3432272   1.649   5.645   6.126  0.0782 -0.4118  0.3231
  200MOL    C3532273   1.575   5.515   6.162  0.1293 -0.0200  0.1010
  200MOL    N3632274   1.496   5.480   6.044 -0.7211 -0.3848 -0.2473
  200MOL    H3732275   1.573   5.712   6.084 -1.6402 -1.0093  2.3832
  200MOL    H3832276   1.721   5.632   6.046  1.6324  2.9177  1.0854
  200MOL    H3932277   1.503   5.531   6.242 -0.8911  2.2796 -1.2518
  200MOL    H4032278   1.445   5.558   6.006  0.4792  1.0504  0.9916
  200MOL    H4132279   1.551   5.431   5.975  1.3386 -1.4651  2.0399
  200MOL    C4232280   1.661   5.393   6.209 -0.6400 -0.1242  0.3768
  200MOL    C4332281   1.615   5.320   6.337 -0.0957 -0.0480 -0.2818
  200MOL    N4432282   1.671   5.183   6.326  0.4349  0.3234 -0.0189
  200MOL    H4532283   1.669   5.319   6.129 -1.9835  1.0347 -0.8768
  200MOL    H4632284   1.766   5.422   6.219 -0.7896  0.4214  0.3592
  200MOL    H4732285   1.506   5.314   6.333 -0.0907  0.3978 -1.0020
  200MOL    H4832286   1.628   5.117   6.388 -1.0437  1.6489  0.4014
  200MOL    H4932287   1.634   5.151   6.237 -0.7150  0.2248  0.4845
  200MOL    C5032288   1.684   5.393   6.453 -0.7742  0.2869 -0.7356
  200MOL    C5132289   1.656   5.334   6.598  0.2534 -0.1473 -0.2463
  200MOL    N5232290   1.719   5.205   6.614 -0.5198 -0.1013  0.2425
  200MOL    H5332291   1.793   5.401   6.445 -0.5269 -0.4437  1.3559
  200MOL    H5432292   1.655   5.498   6.451  0.4429  0.6122 -2.8554
  200MOL    H5532293   1.548   5.330   6.610  0.1585 -1.0459 -1.3521
  200MOL    H5632294   1.735   5.172   6.520  0.8963  1.1663  0.0059
  200MOL    H5732295   1.815   5.226   6.640 -0.0195 -0.8597 -0.9742
  200MOL    C5832296   1.715   5.428   6.713 -0.0533 -0.4853  0.2921
  200MOL    C5932297   1.710   5.372   6.862  0.1785 -0.1381  0.0595
  200MOL    N6032298   1.786   5.467   6.948 -0.4019  0.9730 -0.1473
  200MOL    H6132299   1.820   5.452   6.696 -0.1306 -0.9715 -0.8892
  200MOL    H6232300   1.668   5.524   6.694 -2.5376 -1.1356  2.8417
  200MOL    H6332301   1.753   5.272   6.875 -0.4783 -0.2251  1.7575
  200MOL    H6432302   1.885   5.447   6.954 -0.9993 -2.2962 -0.2846
  200MOL    H6532303   1.750   5.453   7.042 -0.8953  0.8801 -0.3525
  200MOL    C6632304   1.558   5.361   6.900  1.1547  0.5571 -0.5809
  200MOL    C6732305   1.530   5.269   7.024  0.1196  0.3742  0.0133
  200MOL    N6832306   1.425   5.322   7.110 -0.1488  0.0306  0.2083
  200MOL    H6932307   1.506   5.451   6.934 -2.2915 -0.2582 -3.4697
  200MOL    H7032308   1.499   5.322   6.817  2.8726  1.0324 -2.0333
  200MOL    H7132309   1.622   5.270   7.083  0.0651  2.3301  0.0925
  200MOL    H7232310   1.482   5.359   7.185  0.9733  1.6173 -1.3882
  200MOL    H7332311   1.369   5.250   7.152 -0.4016 -0.0321 -0.2345
  200MOL    C7432312   1.473   5.126   6.983  0.6945 -0.5245 -0.5139
  200MOL    C7532313   1.470   5.012   7.084  0.6258  1.0434  0.4031
  200MOL    N7632314   1.390   4.904   7.043 -0.1227  0.2101 -0.1795
  200MOL    H7732315   1.369   5.135   6.952  0.8314  2.1606 -0.3146
  200MOL    H7832316   1.528   5.086   6.898 -0.9483 -2.4604 -0.7042
  200MOL    H7932317   1.426   5.042   7.179 -1.5369 -0.1422 -0.1840
  200MOL    H8032318   1.423   4.863   6.956  1.4979 -0.3583  0.6745
  200MOL    H8132319   1.297   4.925   7.011  0.3036 -1.0405 -2.3236
  200MOL    C8232320   1.602   4.955   7.118  0.4171 -0.6286 -0.0421
  200MOL    C8332321   1.668   5.024   7.234 -0.5461 -0.2306  0.2721
  200MOL    N8432322   1.608   4.961   0.078 -0.9001 -0.1237 -0.5286
  200MOL    H8532323   1.610   4.848   7.136  1.5104 -0.7776 -1.3828
  200MOL    H8632324   1.664   4.961   7.029 -0.6088  0.1546 -0.7193
  200MOL    H8732325   1.667   5.133   7.227  1.6031 -0.1124  1.5289
  200MOL    H8832326   1.648   4.868   0.084 -1.6340 -0.4893 -1.2302
  200MOL    H8932327   1.509   4.951   0.067 -0.9520 -0.1323 -0.0713
  200MOL    C9032328   1.821   4.994   7.243 -0.1095  0.6553 -0.7637
  200MOL    C9132329   1.913   5.039   7.126 -0.3628 -0.2615  0.3363
  200MOL    N9232330   1.926   5.185   7.124  0.4470 -0.4204 -0.2033
  200MOL    H9332331   1.868   5.033   0.058 -0.5513 -1.5466  0.4270
  200MOL    H9432332   1.834   4.887   7.255 -3.9348  0.2583  0.5605
  200MOL    H9532333   1.877   5.008   7.028 -1.3380  0.8245  0.3322
  200MOL    H9632334   2.001   5.204   7.059  0.7989  1.2231  0.6542
  200MOL    H9732335   1.850   5.232   7.076  0.2605 -0.1557  0.3475
  200MOL    C9832336   2.051   4.979   7.136  0.3186 -0.3116  0.2565
  200MOL    C9932337   2.152   5.001   7.014  0.4326  0.2771  0.1177
  200MOL   N10032338   2.290   4.967   7.059 -0.2511 -0.5194  0.5279
  200MOL   H10132339   2.100   4.995   7.232 -2.6067  1.8582  1.4488
  200MOL   H10232340   2.044   4.870   7.143  1.6432 -0.3825  0.5405
  200MOL   H10332341   2.161   5.105   6.982 -1.6547  0.1813 -0.9057
  200MOL   H10432342   2.355   5.022   7.004  0.4136  0.0611  1.8576
  200MOL   H10532343   2.306   5.011   7.148 -3.0044  1.1893  0.2386
  200MOL   C10632344   2.120   4.926   6.879 -0.6818 -0.4314  0.2080
  200MOL   C10732345   2.060   4.787   6.877 -0.3806 -0.1001 -0.1040
  200MOL   N10832346   2.013   4.762   6.739 -0.5509  0.5609  0.4394
  200MOL   H10932347   2.045   4.997   6.842  0.4677  0.9510  0.4590
  200MOL   H11032348   2.207   4.918   6.813 -0.9306  0.5107 -0.2520
  200MOL   H11132349   1.969   4.789   6.938 -1.2311 -1.9842 -1.2544
  200MOL   H11232350   1.935   4.699   6.752  0.7253 -2.1237 -3.9425
  200MOL   H11332351   2.086   4.706   6.696 -1.0230  1.4594 -1.5537
  200MOL   C11432352   2.151   4.666   6.914 -0.3295  0.2772 -0.8069
  200MOL   C11532353   2.163   4.614   7.062 -0.0120 -0.9077  0.3083
  200MOL   N11632354   2.061   4.511   7.071 -0.9370  1.0490  0.0209
  200MOL   H11732355   2.125   4.580   6.852 -1.6047 -0.6141  0.9092
  200MOL   H11832356   2.250   4.701   6.886  1.2561  0.3667  4.3547
  200MOL   H11932357   2.128   4.695   7.125 -0.5045 -0.3740 -0.6560
  200MOL   H12032358   2.049   4.463   7.159 -0.3834  0.9704  0.0562
  200MOL   H12132359   1.972   4.557   7.058 -1.1492  1.1203  1.6439
  200MOL   C12232360   2.305   4.564   7.092 -0.4759  0.3525  0.4488
  200MOL   C12332361   2.403   4.652   7.162  0.6041 -0.3607  0.3514
  200MOL   N12432362   2.461   4.750   7.076 -0.2760 -0.2699 -0.2371
  200MOL   H12532363   2.301   4.479   7.160 -0.2980  1.1306  1.4417
  200MOL   H12632364   2.357   4.531   7.002 -0.0912  1.7446  0.1562
  200MOL   H12732365   2.480   4.588   7.203  1.7093  1.5472  1.3489
  200MOL   H12832366   2.390   4.804   7.031 -0.8737 -2.0753 -1.5271
  200MOL   H12932367   2.504   4.811   7.144  0.4649  0.3191 -1.2148
  200MOL   C13032368   2.355   4.725   0.017 -0.1765  0.1993 -0.0282
  200MOL   C13132369   2.291   4.627   0.117 -0.0225 -0.2614 -0.2810
  200MOL   N13232370   2.407   4.547   0.172 -0.6430 -0.2798 -0.3183
  200MOL   H13332371   2.432   4.782   0.069  0.9577 -0.3176 -1.1113
  200MOL   H13432372   2.274   4.794   7.270  1.4999  2.2502  0.0277
  200MOL   H13532373   2.223   4.561   0.063 -1.8552 -0.1213  1.7342
  200MOL   H13632374   2.444   4.476   0.111  0.2691 -0.2868  0.2361
  200MOL   H13732375   2.368   4.497   0.250  1.0967 -1.0328  0.0804
  200MOL   C13832376   2.216   4.701   0.229  0.3051  0.0960 -0.7161
  200MOL   C13932377   2.079   4.639   0.267  0.2197  0.4861 -0.8129
  200MOL   N14032378   2.047   4.679   0.407  0.1593  0.9627 -0.2023
  200MOL   H14132379   2.275   4.703   0.321  1.1782 -0.1231 -1.2587
  200MOL   H14232380   2.199   4.806   0.203  0.0838 -0.1424 -1.5630
  200MOL   H14332381   2.089   4.531   0.276  1.1371  0.8826  4.5550
  200MOL   H14432382   2.092   4.612   0.468 -1.5663 -0.2329 -0.1982
  200MOL   H14532383   1.950   4.652   0.411 -0.4161  2.9019 -0.4244
  200MOL   C14632384   1.969   4.679   0.170 -0.3313 -0.4329  0.1206
  200MOL   C14732385   1.834   4.598   0.179 -0.0222  0.2085 -0.0764
  200MOL   N14832386   1.711   4.676   0.156  0.0152 -0.0439 -0.1841
  200MOL   H14932387   1.950   4.786   0.177  0.3967 -0.2634 -0.3457
  200MOL   H15032388   2.003   4.670   0.066 -2.0393  0.5079 -0.5392
  200MOL   H15132389   1.817   4.552   0.276 -0.6564 -1.4428 -0.9586
  200MOL   H15232390   1.632   4.629   0.197 -2.0914  3.1363 -0.4437
  200MOL   H15332391   1.715   4.754   0.221  0.0525  0.3876 -0.6971
  200MOL   C15432392   1.836   4.477   0.087 -0.6003  0.0275  0.5591
  200MOL   C15532393   1.949   4.379   0.109  0.2763 -0.1636  0.4930
  200MOL   N15632394   1.939   4.265   0.020 -0.2503 -0.0964  0.1247
  200MOL   H15732395   1.748   4.414   0.097  0.1195 -1.0412  0.1735
  200MOL   H15832396   1.851   4.508   7.259  0.8332  0.1740  0.8027
  200MOL   H15932397   1.956   4.337   0.209 -1.6717  1.7116  1.4741
  200MOL   H16032398   1.899   4.285   7.205 -1.3636  0.0658  0.6530
  200MOL   H16132399   1.874   4.204   0.065  0.1551  3.0696  5.3962
  200MOL   H16232400   2.053   4.406   0.092  0.9421 -2.6678  0.4485
  201MOL     C132401   3.465   3.019   2.940 -0.0557 -0.7441  0.0344
  201MOL     C232402   3.536   2.959   2.819  0.4883 -0.4663 -0.8576
  201MOL     N332403   3.551   2.813   2.846  0.1769  0.0277 -0.7020
  201MOL     H432404   3.464   3.127   2.927 -0.1221 -0.8652 -1.0151
  201MOL     H532405   3.525   3.010   3.031  1.5083 -0.1292 -0.9187
  201MOL     H632406   3.637   2.998   2.806  0.7966 -0.2247  1.8770
  201MOL     H732407   3.463   2.763   2.844  1.2356 -2.0263  1.7208
  201MOL     H832408   3.594   2.788   2.933 -2.1200 -1.3467  0.0613
  201MOL     H932409   3.365   2.981   2.958 -0.0447 -1.7638 -1.9820
  201MOL    C1032410   3.449   2.961   2.692  0.7069  0.3808 -0.1272
  201MOL    C1132411   3.457   3.082   2.604  0.1404 -0.2039  0.1562
  201MOL    N1232412   3.587   3.067   2.535  0.6938 -0.0900 -0.0262
  201MOL    H1332413   3.479   2.875   2.632 -0.5026 -0.5202  0.5389
  201MOL    H1432414   3.344   2.941   2.710  0.9528 -0.1599  0.7849
  201MOL    H1532415   3.462   3.179   2.654 -1.0839  0.2702 -0.6125
  201MOL    H1632416   3.595   3.135   2.461  0.4446 -2.1289 -1.9719
  201MOL    H1732417   3.666   3.089   2.595  0.5675  2.4049 -0.7382
  201MOL    C1832418   3.337   3.090   2.500 -0.0633 -0.4530 -0.2664
  201MOL    C1932419   3.209   3.168   2.540 -0.0307  0.0296 -0.2763
  201MOL    N2032420   3.129   3.169   2.420 -0.1444  0.1381 -0.0048
  201MOL    H2132421   3.384   3.139   2.415 -1.1411  1.2335  0.0807
  201MOL    H2232422   3.317   2.988   2.467  0.6392 -0.8777  0.5805
  201MOL    H2332423   3.241   3.268   2.567  2.8344 -1.1214  0.8366
  201MOL    H2432424   3.133   3.076   2.382 -1.9983  0.4950 -1.1662
  201MOL    H2532425   3.029   3.181   2.432 -0.2507 -0.9104  0.1454
  201MOL    C2632426   3.131   3.104   2.658 -0.4783 -1.1747 -0.3387
  201MOL    C2732427   2.995   3.174   2.696 -0.2004 -0.4391  0.2017
  201MOL    N2832428   2.925   3.085   2.790 -0.0255 -0.4549 -0.1163
  201MOL    H2932429   3.110   2.999   2.638 -0.3138 -1.0970 -0.9314
  201MOL    H3032430   3.189   3.097   2.749  0.4034 -3.4895 -1.0407
  201MOL    H3132431   2.927   3.185   2.612 -1.7908  0.8864  1.6089
  201MOL    H3232432   2.827   3.107   2.798  0.2516  0.0201  2.1617
  201MOL    H3332433   2.956   3.105   2.884  1.8597  0.5209 -0.9254
  201MOL    C3432434   3.019   3.312   2.759  0.2278  0.0193  0.4249
  201MOL    C3532435   2.893   3.376   2.827 -0.0612  0.1653  0.1732
  201MOL    N3632436   2.934   3.491   2.911 -0.3142 -0.6639 -0.8465
  201MOL    H3732437   3.107   3.296   2.821 -2.3830 -0.8296  4.0057
  201MOL    H3832438   3.058   3.372   2.676 -1.5546 -1.0445 -1.2194
  201MOL    H3932439   2.858   3.303   2.899 -0.3563 -1.1723 -1.2979
  201MOL    H4032440   2.854   3.542   2.946  0.1148 -0.3528 -0.3032
  201MOL    H4132441   2.961   3.447   2.998  0.0138  0.2846 -0.4614
  201MOL    C4232442   2.780   3.420   2.734  0.0349 -0.5378 -0.1953
  201MOL    C4332443   2.676   3.306   2.708  0.0587  0.5140  0.0492
  201MOL    N4432444   2.608   3.254   2.824  0.2982  0.1760  0.2521
  201MOL    H4532445   2.713   3.499   2.768  1.9173  0.6681  0.8527
  201MOL    H4632446   2.812   3.430   2.630 -2.9162  0.4366 -1.0482
  201MOL    H4732447   2.731   3.217   2.678 -1.2059 -0.8166  1.6129
  201MOL    H4832448   2.562   3.335   2.864  2.9666  2.3789 -1.0026
  201MOL    H4932449   2.531   3.192   2.804  1.2531 -1.6072  1.9880
  201MOL    C5032450   2.565   3.330   2.595 -0.4287 -0.3916  0.1887
  201MOL    C5132451   2.624   3.351   2.460 -0.6312  0.9145 -0.2267
  201MOL    N5232452   2.523   3.294   2.374 -0.4760 -0.2925  0.6995
  201MOL    H5332453   2.506   3.239   2.608  2.2910 -2.5522 -1.9176
  201MOL    H5432454   2.508   3.419   2.623  1.0068  0.7889 -0.5871
  201MOL    H5532455   2.719   3.298   2.453 -0.7345  0.9541 -2.2208
  201MOL    H5632456   2.430   3.320   2.405 -1.7311 -0.2251 -2.9055
  201MOL    H5732457   2.527   3.318   2.276 -4.4361 -1.1299  0.2535
  201MOL    C5832458   2.643   3.503   2.428  0.1925 -0.0482  0.8630
  201MOL    C5932459   2.722   3.538   2.296 -0.2057  0.9671 -0.1318
  201MOL    N6032460   2.703   3.672   2.255 -0.5584 -0.4683 -0.2651
  201MOL    H6132461   2.547   3.555   2.422  0.3569  0.1153 -0.5756
  201MOL    H6232462   2.693   3.548   2.514  0.4889  0.9096  0.2028
  201MOL    H6332463   2.679   3.477   2.217 -0.0461  1.5847 -0.7059
  201MOL    H6432464   2.659   3.672   2.164 -1.1881 -1.6411  0.0305
  201MOL    H6532465   2.790   3.720   2.238  0.8170 -1.2007  3.9901
  201MOL    C6632466   2.872   3.507   2.303 -0.7121 -0.4221 -0.4439
  201MOL    C6732467   2.931   3.480   2.169 -0.4135  0.4800  0.1352
  201MOL    N6832468   3.071   3.522   2.172 -0.0034 -0.3526  0.4043
  201MOL    H6932469   2.930   3.581   2.358  0.1015 -1.3233 -0.0635
  201MOL    H7032470   2.896   3.418   2.362  2.3404 -0.1574 -1.1967
  201MOL    H7132471   2.873   3.538   2.097  1.3130  1.0138 -0.8886
  201MOL    H7232472   3.121   3.506   2.086 -0.0853 -1.1262  0.4889
  201MOL    H7332473   3.125   3.476   2.244  1.3827  1.5519  0.6062
  201MOL    C7432474   2.928   3.337   2.127  0.4268  0.6514 -0.6706
  201MOL    C7532475   2.784   3.273   2.101 -0.1032  0.3644  0.6505
  201MOL    N7632476   2.711   3.330   1.988  0.0212 -0.5626  0.0707
  201MOL    H7732477   2.994   3.320   2.042  1.2667 -0.5950  0.2085
  201MOL    H7832478   2.980   3.277   2.202 -2.4030 -1.8004 -0.6103
  201MOL    H7932479   2.730   3.272   2.195  1.2448 -1.1716  1.4446
  201MOL    H8032480   2.612   3.314   2.003 -0.9963  0.6899 -4.5181
  201MOL    H8132481   2.721   3.426   2.016 -0.1058  0.0076 -1.7703
  201MOL    C8232482   2.796   3.130   2.053 -0.4853  0.3816  0.1330
  201MOL    C8332483   2.797   3.028   2.165  0.0297  0.2114 -0.8989
  201MOL    N8432484   2.659   3.003   2.211 -0.4965  0.0340 -0.1333
  201MOL    H8532485   2.715   3.093   1.990 -0.3467  0.7651 -0.2684
  201MOL    H8632486   2.883   3.107   1.992 -2.2385 -0.3530 -2.1489
  201MOL    H8732487   2.860   3.069   2.244  0.2040  1.3811 -1.6404
  201MOL    H8832488   2.656   2.944   2.294  1.4795 -1.0070 -0.7517
  201MOL    H8932489   2.618   3.087   2.249 -1.5716 -0.5422 -0.0055
  201MOL    C9032490   2.871   2.898   2.129 -0.3050 -0.0073  0.4420
  201MOL    C9132491   3.023   2.927   2.129 -0.0323  0.2910 -0.1411
  201MOL    N9232492   3.071   2.899   2.263 -0.3944  0.6543  0.0999
  201MOL    H9332493   2.858   2.811   2.193  1.4221 -0.4903  0.1860
  201MOL    H9432494   2.843   2.864   2.029  0.6260  0.0255  0.1639
  201MOL    H9532495   3.055   3.021   2.085  2.5451  0.0895  1.2253
  201MOL    H9632496   2.996   2.917   2.327 -0.4653 -2.1245  0.8583
  201MOL    H9732497   3.088   2.800   2.261 -0.2395  0.6797 -2.6519
  201MOL    C9832498   3.103   2.822   2.042  0.5186 -0.2943 -0.0290
  201MOL    C9932499   3.097   2.845   1.891 -0.2405  0.0777 -0.3995
  201MOL   N10032500   3.185   2.955   1.870 -0.0949  0.2512 -0.3886
  201MOL   H10132501   3.210   2.825   2.066  0.8125  0.0574 -1.3151
  201MOL   H10232502   3.068   2.721   2.065 -1.8801  0.6297  0.5202
  201MOL   H10332503   2.996   2.873   1.859 -0.1210 -0.8031 -1.5874
  201MOL   H10432504   3.156   3.025   1.936  2.4301  1.0754 -0.0977
  201MOL   H10532505   3.278   2.936   1.905 -0.5440  0.2996  0.8641
  201MOL   C10632506   3.147   2.721   1.802  0.1165  0.3984 -0.2717
  201MOL   C10732507   3.146   2.740   1.647  0.5409  0.2256 -0.2086
  201MOL   N10832508   3.273   2.689   1.598 -0.3186 -0.4790  0.3603
  201MOL   H10932509   3.249   2.706   1.835  0.2475  2.6708  0.4315
  201MOL   H11032510   3.085   2.638   1.836 -0.0817  0.6714  0.0478
  201MOL   H11132511   3.157   2.846   1.623  1.5544 -0.1025 -1.2312
  201MOL   H11232512   3.347   2.753   1.622  0.2650 -1.0851  0.2147
  201MOL   H11332513   3.280   2.679   1.498 -1.6464 -0.7769  0.2901
  201MOL   C11432514   3.026   2.690   1.563  1.1493 -0.0630 -1.0805
  201MOL   C11532515   2.887   2.740   1.619 -0.3122 -0.1915  0.0909
  201MOL   N11632516   2.812   2.771   1.502 -0.2510 -0.3223 -0.5980
  201MOL   H11732517   3.039   2.708   1.456  2.1287 -0.2305 -0.9982
  201MOL   H11832518   3.025   2.581   1.552  0.4794 -0.3016  1.1138
  201MOL   H11932519   2.910   2.827   1.681  2.0244 -0.7773  0.0871
  201MOL   H12032520   2.724   2.798   1.543  0.2373 -0.6163  0.6809
  201MOL   H12132521   2.839   2.861   1.465 -1.1131 -0.4543 -1.5838
  201MOL   C12232522   2.809   2.632   1.696  0.3707 -0.6900 -0.3798
  201MOL   C12332523   2.667   2.682   1.737  0.1700  0.7342  0.0690
  201MOL   N12432524   2.598   2.570   1.803 -0.0093  0.0821  0.5641
  201MOL   H12532525   2.789   2.555   1.622 -0.0168 -0.4420 -0.5336
  201MOL   H12632526   2.864   2.592   1.781 -0.6995 -0.1150  0.5987
  201MOL   H12732527   2.592   2.699   1.661 -0.6856 -2.6775  0.0656
  201MOL   H12832528   2.512   2.602   1.844  0.1069  0.1532  0.7538
  201MOL   H12932529   2.572   2.495   1.740  0.6713  0.9685 -0.7833
  201MOL   C13032530   2.669   2.801   1.837  0.1509 -0.3479 -0.3801
  201MOL   C13132531   2.527   2.853   1.849  0.1485  0.5508  0.0407
  201MOL   N13232532   2.511   2.905   1.987 -0.3607  0.3642  0.3182
  201MOL   H13332533   2.697   2.762   1.935  1.6244  2.1509  0.2288
  201MOL   H13432534   2.738   2.877   1.802  1.4778 -1.5585 -0.4192
  201MOL   H13532535   2.454   2.774   1.831  0.4907  0.5024 -1.1789
  201MOL   H13632536   2.601   2.929   2.026  1.3895 -2.8287 -1.5396
  201MOL   H13732537   2.472   2.998   1.980 -1.5799 -0.2059 -0.4897
  201MOL   C13832538   2.508   2.983   1.764 -0.3440  0.2584 -0.7770
  201MOL   C13932539   2.448   2.981   1.625 -0.5014 -0.6584  0.0122
  201MOL   N14032540   2.547   2.921   1.528 -0.7571  0.1850 -0.4240
  201MOL   H14132541   2.452   3.062   1.814 -0.2881 -0.0689 -0.1947
  201MOL   H14232542   2.604   3.033   1.747  0.5773 -1.5496 -1.0270
  201MOL   H14332543   2.419   3.081   1.595 -0.1167 -0.3480  0.6841
  201MOL   H14432544   2.576   2.988   1.458 -0.5761  0.5134 -0.0324
  201MOL   H14532545   2.493   2.848   1.483 -0.7272  0.1675 -0.4304
  201MOL   C14632546   2.321   2.898   1.624  0.1818  0.3649  0.0908
  201MOL   C14732547   2.227   2.940   1.511  0.1676 -0.3167  0.6061
  201MOL   N14832548   2.148   2.824   1.471  0.0592 -0.1813 -0.5524
  201MOL   H14932549   2.339   2.791   1.607  0.8384  0.7655 -1.9129
  201MOL   H15032550   2.265   2.909   1.717  0.0717  1.9962 -0.1612
  201MOL   H15132551   2.295   2.965   1.429 -1.3461  0.0995 -0.5521
  201MOL   H15232552   2.214   2.757   1.434 -1.0861 -0.7619 -1.5543
  201MOL   H15332553   2.082   2.853   1.401 -0.5439 -1.9672 -0.7495
  201MOL   C15432554   2.133   3.066   1.552  0.7319  0.1267 -0.7378
  201MOL   C15532555   2.200   3.193   1.606  0.0849 -1.2096  0.2359
  201MOL   N15632556   2.110   3.310   1.648 -0.1378  0.5428  0.3134
  201MOL   H15732557   2.067   3.088   1.467  0.0029 -2.2404 -0.8128
  201MOL   H15832558   2.064   3.036   1.630 -0.5179  0.0952 -1.8324
  201MOL   H15932559   2.264   3.221   1.522  1.2149  0.8294  1.7180
  201MOL   H16032560   2.049   3.334   1.571 -0.1947  1.8542  0.7586
  201MOL   H16132561   2.158   3.399   1.658 -1.0309  1.0066  0.4883
  201MOL   H16232562   2.260   3.170   1.695 -0.9260 -0.3684  1.1504
  202MOL     C132563   1.181   5.719   1.872  0.0181  0.0248 -0.5420
  202MOL     C232564   1.270   5.836   1.871 -0.0691 -0.5896  0.6320
  202MOL     N332565   1.380   5.810   1.959  0.0767  0.0124 -0.1864
  202MOL     H432566   1.159   5.715   1.979  2.9378 -1.2798  0.0605
  202MOL     H532567   1.234   5.629   1.841  0.4528 -0.4674  1.5450
  202MOL     H632568   1.219   5.928   1.901 -0.2415 -0.8993  1.2872
  202MOL     H732569   1.342   5.804   2.052  0.5458 -0.3904 -0.0159
  202MOL     H832570   1.444   5.888   1.959  1.6306 -1.2296 -1.2148
  202MOL     H932571   1.089   5.723   1.814  0.1329  0.8837 -0.6689
  202MOL    C1032572   1.314   5.875   1.726  0.0657  0.2447  0.0220
  202MOL    C1132573   1.236   5.991   1.650  0.1285 -0.2105  0.3151
  202MOL    N1232574   1.305   6.115   1.674  0.4530 -0.3733  0.6511
  202MOL    H1332575   1.416   5.912   1.737  0.0795 -0.0005  0.7251
  202MOL    H1432576   1.329   5.781   1.673  3.0319 -0.3232  1.7791
  202MOL    H1532577   1.137   5.992   1.696  0.6886  0.0581  1.5216
  202MOL    H1632578   1.334   6.130   1.770 -0.8643 -0.7822  1.1299
  202MOL    H1732579   1.237   6.187   1.654 -1.1136 -2.1564 -0.6070
  202MOL    C1832580   1.229   5.973   1.493 -0.3452 -0.0043 -0.0824
  202MOL    C1932581   1.136   5.857   1.452 -0.0451 -0.6344  1.3498
  202MOL    N2032582   0.996   5.913   1.430  0.1356  0.6774  0.4549
  202MOL    H2132583   1.208   6.069   1.446  1.2588  0.7919  0.7865
  202MOL    H2232584   1.332   5.965   1.459  0.2973  1.7065  1.3578
  202MOL    H2332585   1.138   5.778   1.527 -0.5853 -0.3360  1.6835
  202MOL    H2432586   0.959   5.949   1.517 -0.5011 -0.1057  0.5067
  202MOL    H2532587   0.996   5.999   1.376  1.9290  1.3516  1.4628
  202MOL    C2632588   1.179   5.809   1.310 -0.3341 -0.6096  0.5890
  202MOL    C2732589   1.317   5.740   1.311 -0.3565  0.3979  0.4461
  202MOL    N2832590   1.319   5.621   1.402 -0.3420 -0.1122 -0.1195
  202MOL    H2932591   1.116   5.731   1.268 -2.1418  0.9960  0.2151
  202MOL    H3032592   1.171   5.894   1.241 -1.4915 -0.3021  1.0994
  202MOL    H3132593   1.394   5.808   1.347  1.9795 -1.7241 -0.4262
  202MOL    H3232594   1.283   5.634   1.495  0.2307  0.8770 -0.0346
  202MOL    H3332595   1.416   5.601   1.421 -1.1879 -0.4912  4.4502
  202MOL    C3432596   1.374   5.689   1.170 -0.4937  0.2272 -0.6724
  202MOL    C3532597   1.416   5.807   1.074 -0.4825 -0.2065  0.2251
  202MOL    N3632598   1.538   5.768   1.002  0.0596  0.2573  0.3401
  202MOL    H3732599   1.460   5.624   1.190 -0.7078  0.0674 -0.2777
  202MOL    H3832600   1.314   5.613   1.120  0.3354 -0.1183 -1.1621
  202MOL    H3932601   1.435   5.899   1.129 -1.3483  0.0527  0.1105
  202MOL    H4032602   1.546   5.854   0.950  1.4997 -1.1728 -1.8872
  202MOL    H4132603   1.505   5.699   0.935 -1.5858 -1.4454  2.7812
  202MOL    C4232604   1.302   5.837   0.977  0.0520  0.6306  0.4202
  202MOL    C4332605   1.323   5.972   0.905  0.2549 -0.2250 -0.1283
  202MOL    N4432606   1.442   5.972   0.820  1.4278 -0.1822  1.2916
  202MOL    H4532607   1.301   5.743   0.920  0.5004  1.4599 -0.9925
  202MOL    H4632608   1.207   5.853   1.028 -0.6747  0.7206 -0.9243
  202MOL    H4732609   1.347   6.037   0.989 -1.4684 -0.6155  0.6814
  202MOL    H4832610   1.472   6.063   0.787  1.3198 -0.9250 -0.9467
  202MOL    H4932611   1.416   5.923   0.736 -0.0267  2.0090  0.4256
  202MOL    C5032612   1.199   6.026   0.832  0.0326  0.7946  0.1403
  202MOL    C5132613   1.082   6.064   0.931  0.8097  0.1809  0.3867
  202MOL    N5232614   1.130   6.162   1.022 -0.4623 -0.2069 -0.7014
  202MOL    H5332615   1.232   6.113   0.776  1.3709  0.3596  0.2472
  202MOL    H5432616   1.154   5.963   0.755 -1.2567  0.3512  1.2238
  202MOL    H5532617   1.048   5.969   0.972  2.3751 -0.3492  0.4941
  202MOL    H5632618   1.225   6.135   1.043 -0.3120 -0.9646 -2.2643
  202MOL    H5732619   1.154   6.245   0.970  1.7711 -2.3180 -3.2515
  202MOL    C5832620   0.959   6.125   0.857  0.5590  0.2003 -0.6780
  202MOL    C5932621   0.818   6.111   0.923 -0.0391  0.0632 -0.1195
  202MOL    N6032622   0.727   6.195   0.850 -0.5354  0.0788 -0.2474
  202MOL    H6132623   0.980   6.231   0.842  1.1054  0.3012  0.7840
  202MOL    H6232624   0.950   6.078   0.759  1.2232  0.4211 -0.8494
  202MOL    H6332625   0.810   6.144   1.027  0.4042 -0.2527  0.0169
  202MOL    H6432626   0.648   6.228   0.904 -0.6370 -1.1237  0.3716
  202MOL    H6532627   0.772   6.275   0.809 -1.4601  0.4599 -0.5433
  202MOL    C6632628   0.767   5.962   0.943  0.0712 -0.8267 -0.5257
  202MOL    C6732629   0.808   5.877   1.065 -0.2386 -0.6767 -0.0619
  202MOL    N6832630   0.762   5.934   1.189  0.1439 -0.3185  0.0829
  202MOL    H6932631   0.658   5.965   0.945  0.1210  1.2147  2.2128
  202MOL    H7032632   0.806   5.916   0.852  0.7365 -1.0871 -0.1087
  202MOL    H7132633   0.916   5.860   1.068 -0.4403 -1.9963  0.1732
  202MOL    H7232634   0.843   5.946   1.248 -1.3768 -0.3101  2.2545
  202MOL    H7332635   0.722   5.847   1.221  1.0822 -0.9108 -0.3282
  202MOL    C7432636   0.744   5.729   1.043 -0.3696  0.0344  0.2529
  202MOL    C7532637   0.783   5.626   1.149  0.3525 -0.1082  0.9953
  202MOL    N7632638   0.713   5.659   1.268 -0.4383  0.3291  0.3218
  202MOL    H7732639   0.640   5.727   1.012 -0.2583 -1.3087 -0.0753
  202MOL    H7832640   0.792   5.707   0.948  0.1998  0.0374  0.5372
  202MOL    H7932641   0.886   5.644   1.180  0.8789 -0.1529 -0.6866
  202MOL    H8032642   0.766   5.631   1.349 -1.2135 -1.2600  0.3019
  202MOL    H8132643   0.621   5.620   1.281 -1.5344  1.9409 -2.0571
  202MOL    C8232644   0.770   5.477   1.113  0.1684 -0.8257  0.0343
  202MOL    C8332645   0.885   5.441   1.010 -0.0075  0.9495  0.6461
  202MOL    N8432646   1.006   5.413   1.090 -0.0012 -0.4379 -0.4918
  202MOL    H8532647   0.761   5.415   1.202  2.2584 -1.2762 -0.0589
  202MOL    H8632648   0.673   5.478   1.061 -0.2307  0.0312  0.7721
  202MOL    H8732649   0.899   5.523   0.940  0.2301 -0.4626 -0.9794
  202MOL    H8832650   1.031   5.476   1.164 -0.0556 -1.1607  0.1460
  202MOL    H8932651   1.079   5.407   1.021 -0.0213  0.5398 -0.6060
  202MOL    C9032652   0.860   5.309   0.942  0.0767 -0.1060 -0.6849
  202MOL    C9132653   0.979   5.227   0.890 -0.0705  0.4363 -0.5624
  202MOL    N9232654   0.929   5.092   0.874  0.0336 -0.3206  0.1118
  202MOL    H9332655   0.803   5.248   1.011 -0.9761  0.7514 -0.7824
  202MOL    H9432656   0.781   5.328   0.869 -1.1861  1.4768  1.0586
  202MOL    H9532657   1.063   5.216   0.959  0.5057  0.4525 -1.2535
  202MOL    H9632658   0.929   5.067   0.972  0.3930 -1.0294 -0.0685
  202MOL    H9732659   0.999   5.027   0.843  1.2558 -0.2198  2.5376
  202MOL    C9832660   1.045   5.270   0.762 -0.4042  0.1017 -0.3315
  202MOL    C9932661   1.125   5.406   0.750 -0.1235  0.5235 -0.3119
  202MOL   N10032662   1.231   5.406   0.852  0.0511 -0.6400  0.2170
  202MOL   H10132663   1.120   5.192   0.747  0.3172  0.7945 -0.3342
  202MOL   H10232664   0.968   5.279   0.685 -0.7281  2.6282  0.2463
  202MOL   H10332665   1.053   5.485   0.773 -0.6790  0.1566 -0.7705
  202MOL   H10432666   1.308   5.356   0.809 -1.2176 -0.0705 -2.8235
  202MOL   H10532667   1.265   5.501   0.860  0.4353 -0.7832  0.3332
  202MOL   C10632668   1.175   5.446   0.616 -0.6082  0.1058  0.5393
  202MOL   C10732669   1.074   5.488   0.503 -0.2371 -0.5353 -0.5543
  202MOL   N10832670   1.064   5.635   0.513  0.3941  0.0420  0.2873
  202MOL   H10932671   1.245   5.529   0.620 -2.7094  1.8983  0.7989
  202MOL   H11032672   1.254   5.374   0.594 -1.3353 -0.4958 -0.1264
  202MOL   H11132673   0.977   5.438   0.515 -0.0696 -0.4455  1.3367
  202MOL   H11232674   0.974   5.658   0.474  0.6689 -1.8836 -1.5828
  202MOL   H11332675   1.052   5.672   0.606  1.8536 -0.8822  0.8571
  202MOL   C11432676   1.130   5.462   0.368 -0.2882  0.1819  0.6979
  202MOL   C11532677   1.150   5.316   0.320 -0.3469 -0.2781 -0.3523
  202MOL   N11632678   1.024   5.275   0.270 -0.3418  0.5904  0.2355
  202MOL   H11732679   1.075   5.519   0.293  3.2352  4.2833  1.0063
  202MOL   H11832680   1.227   5.511   0.359 -2.0240  3.3689 -1.6794
  202MOL   H11932681   1.190   5.255   0.401 -1.1276 -1.4336 -0.8307
  202MOL   H12032682   1.025   5.174   0.264  1.6603  0.4850  1.5896
  202MOL   H12132683   0.956   5.295   0.342 -0.5980 -1.2957  0.5288
  202MOL   C12232684   1.262   5.316   0.206 -1.0348 -0.4341 -1.0444
  202MOL   C12332685   1.395   5.263   0.247  0.2595  0.6546 -0.9251
  202MOL   N12432686   1.496   5.244   0.141 -0.6833  0.2841  0.0704
  202MOL   H12532687   1.219   5.265   0.120  1.3671 -5.1988  0.3923
  202MOL   H12632688   1.288   5.418   0.180 -1.7509  0.2491  0.8721
  202MOL   H12732689   1.379   5.158   0.274 -0.5876  1.2264  0.8516
  202MOL   H12832690   1.490   5.147   0.114  0.1480 -0.1039  1.2212
  202MOL   H12932691   1.579   5.222   0.194 -0.3206  1.7035  0.1167
  202MOL   C13032692   1.459   5.330   0.372  0.2567  0.2304  0.6751
  202MOL   C13132693   1.538   5.240   0.471  0.3757  0.4708  0.1815
  202MOL   N13232694   1.596   5.336   0.563  0.3239 -0.4454  0.5843
  202MOL   H13332695   1.507   5.420   0.333 -0.6442  1.4466  2.3196
  202MOL   H13432696   1.379   5.370   0.434 -0.5083  0.2094 -0.2790
  202MOL   H13532697   1.617   5.179   0.427  0.6563  0.9783 -0.0308
  202MOL   H13632698   1.674   5.375   0.512  0.0062 -1.8336 -0.9941
  202MOL   H13732699   1.626   5.280   0.641  2.9431  0.5048  0.3303
  202MOL   C13832700   1.454   5.142   0.567  0.2425  0.2146  0.0068
  202MOL   C13932701   1.397   5.009   0.507  0.1686  0.0847 -0.0204
  202MOL   N14032702   1.512   4.933   0.465 -0.0419  0.9257  0.0933
  202MOL   H14132703   1.507   5.113   0.658  2.1656 -0.6546 -1.3299
  202MOL   H14232704   1.365   5.199   0.593  0.7791  0.7478  0.6965
  202MOL   H14332705   1.338   5.016   0.416 -0.5082 -0.0234  0.4120
  202MOL   H14432706   1.566   4.913   0.547 -1.3013 -0.0094  0.7112
  202MOL   H14532707   1.566   4.999   0.411 -0.2989  0.8669 -0.2429
  202MOL   C14632708   1.321   4.928   0.614 -0.3135 -0.2770 -0.1346
  202MOL   C14732709   1.197   4.854   0.554  1.5246 -0.6811 -1.2566
  202MOL   N14832710   1.138   4.767   0.659 -0.4498  0.3805 -0.3392
  202MOL   H14932711   1.387   4.863   0.672 -2.3468 -1.0648  1.3694
  202MOL   H15032712   1.290   4.987   0.700 -0.7804 -4.1583  2.4826
  202MOL   H15132713   1.228   4.788   0.473 -0.9764 -1.2461 -1.8115
  202MOL   H15232714   1.135   4.823   0.743 -1.7045  0.4851 -0.4429
  202MOL   H15332715   1.197   4.687   0.677  1.7813  1.3994 -2.8003
  202MOL   C15432716   1.089   4.951   0.513 -0.2355 -0.4239 -0.0272
  202MOL   C15532717   1.001   4.887   0.402 -0.1051 -0.1453  0.0006
  202MOL   N15632718   0.924   4.998   0.344  0.6877 -0.0650 -0.0923
  202MOL   H15732719   1.020   4.978   0.593 -0.4033 -1.1330  0.0734
  202MOL   H15832720   1.139   5.042   0.480  0.0224 -0.3695  0.5139
  202MOL   H15932721   0.934   4.808   0.434 -3.6872  1.6914 -2.5701
  202MOL   H16032722   0.853   4.957   0.284 -0.7457 -0.8868  2.1221
  202MOL   H16132723   0.863   5.036   0.415  4.7201  1.0817  2.9020
  202MOL   H16232724   1.068   4.840   0.329  1.0444  0.4072  0.6881
  203MOL     C132725   5.173   4.483   1.860 -0.1565 -0.1315  0.0537
  203MOL     C232726   5.043   4.484   1.930 -0.4031 -0.0711 -0.6523
  203MOL     N332727   4.951   4.388   1.874 -0.9868  0.2205 -0.1029
  203MOL     H432728   5.157   4.514   1.757  2.2424 -0.8388 -0.5656
  203MOL     H532729   5.222   4.386   1.857 -0.9435 -0.5577  0.7244
  203MOL     H632730   5.008   4.587   1.923 -0.2368  0.0973  0.8422
  203MOL     H732731   4.951   4.403   1.774 -0.3676 -0.1978 -0.1721
  203MOL     H832732   4.858   4.412   1.903 -2.0218 -1.1017 -2.1547
  203MOL     H932733   5.232   4.556   1.915 -0.4749 -1.1482  1.7948
  203MOL    C1032734   5.048   4.452   2.083  0.1086 -0.3374 -0.1355
  203MOL    C1132735   5.136   4.544   2.170  0.8778 -0.0216 -0.6322
  203MOL    N1232736   5.044   4.611   2.263  0.1823 -0.2059  0.1352
  203MOL    H1332737   4.946   4.446   2.121  0.0812  2.8155  0.4104
  203MOL    H1432738   5.079   4.348   2.091  0.8137 -0.1280 -0.0979
  203MOL    H1532739   5.158   4.623   2.099  1.0200 -0.2918 -0.8912
  203MOL    H1632740   5.005   4.545   2.329  1.9177 -2.0115 -0.5908
  203MOL    H1732741   4.957   4.643   2.224  0.6067  0.3242 -0.3889
  203MOL    C1832742   5.264   4.476   2.237  0.4126  0.3641 -0.0307
  203MOL    C1932743   5.379   4.447   2.146 -0.0483  0.0385  0.0186
  203MOL    N2032744   5.470   4.560   2.141  0.6013  0.3627  0.1381
  203MOL    H2132745   5.277   4.556   2.310  0.8584  0.0088  0.2759
  203MOL    H2232746   5.235   4.395   2.304  1.8854  1.1005  1.5254
  203MOL    H2332747   5.336   4.424   2.048 -2.3630  0.9979  0.7826
  203MOL    H2432748   5.535   4.557   2.063  0.9251  0.6943  0.3978
  203MOL    H2532749   5.418   4.638   2.105  0.0904  0.6901  1.5491
  203MOL    C2632750   5.464   4.323   2.183  0.4455  0.5563 -0.3848
  203MOL    C2732751   5.404   4.185   2.151  0.3318  0.2227 -0.1224
  203MOL    N2832752   5.373   4.166   2.013 -0.1267  0.3162 -0.3482
  203MOL    H2932753   5.553   4.328   2.121  1.1489 -1.7048  0.3955
  203MOL    H3032754   5.499   4.330   2.286  1.0967  0.8735 -0.6256
  203MOL    H3132755   5.321   4.178   2.221  0.6897 -2.3225  0.0883
  203MOL    H3232756   5.326   4.252   1.988 -0.1447  0.7628  1.1949
  203MOL    H3332757   5.456   4.148   1.958 -0.7368 -0.5197 -1.0212
  203MOL    C3432758   5.499   4.067   2.181  0.4356  0.0816  0.5481
  203MOL    C3532759   5.553   4.047   2.327  0.0506  0.0015 -1.0094
  203MOL    N3632760   5.446   3.988   2.407  0.0563 -0.1444 -0.3439
  203MOL    H3732761   5.455   3.972   2.152 -3.0008  1.9485 -0.6637
  203MOL    H3832762   5.580   4.075   2.108  0.6233 -0.7885  0.6589
  203MOL    H3932763   5.574   4.144   2.372  1.7883 -0.1756 -1.3828
  203MOL    H4032764   5.353   4.028   2.394 -0.1112 -1.1704 -2.5808
  203MOL    H4132765   5.475   3.993   2.503 -1.5503 -1.2292  0.2268
  203MOL    C4232766   5.678   3.948   2.342 -0.0225  0.3424  0.5708
  203MOL    C4332767   5.819   4.008   2.368 -0.0039 -0.3864  0.8611
  203MOL    N4432768   5.893   3.894   2.421  0.7120 -0.0819 -0.6082
  203MOL    H4532769   5.654   3.880   2.424 -1.5589  1.6422  1.2217
  203MOL    H4632770   5.677   3.895   2.248 -1.1145  0.6537  0.4063
  203MOL    H4732771   5.804   4.076   2.452 -0.2354 -1.1627  1.4467
  203MOL    H4832772   5.900   3.830   2.343 -0.9098 -0.0642 -0.7711
  203MOL    H4932773   5.832   3.841   2.481 -0.1682 -0.0314 -1.4538
  203MOL    C5032774   5.899   4.072   2.253 -0.4855 -0.3289 -0.2039
  203MOL    C5132775   5.947   4.218   2.287  0.1765  0.7073 -0.0777
  203MOL    N5232776   6.071   4.267   2.227  0.0680 -0.0809  0.0952
  203MOL    H5332777   5.980   4.004   2.226 -0.4555 -0.1495 -0.5736
  203MOL    H5432778   5.841   4.074   2.161 -1.4160 -4.4728  0.1677
  203MOL    H5532779   5.967   4.207   2.394 -1.8088 -2.0990  0.0636
  203MOL    H5632780   6.054   4.300   2.133 -1.3047  2.6173  1.2240
  203MOL    H5732781   6.113   4.342   2.279  3.9022 -1.0995 -1.3539
  203MOL    C5832782   5.839   4.328   2.273  0.2922 -0.0256 -0.1695
  203MOL    C5932783   5.840   4.452   2.380 -0.5224  0.1485  0.5895
  203MOL    N6032784   5.772   4.567   2.317 -0.2648 -0.0912 -0.6080
  203MOL    H6132785   5.849   4.364   2.170 -0.3798 -2.0451 -0.9480
  203MOL    H6232786   5.737   4.291   2.271  0.7888 -1.4686  0.9503
  203MOL    H6332787   5.942   4.474   2.411 -1.0603  0.3376  2.2811
  203MOL    H6432788   5.767   4.652   2.372 -1.7614  0.3541 -1.3799
  203MOL    H6532789   5.674   4.556   2.293 -0.8840 -0.3547  1.9072
  203MOL    C6632790   5.752   4.425   2.507 -0.5156 -0.4644  0.5318
  203MOL    C6732791   5.825   4.350   2.619  0.6321  0.1254 -0.9599
  203MOL    N6832792   5.916   4.453   2.681 -0.1628  0.4901 -0.0045
  203MOL    H6932793   5.713   4.520   2.543 -0.1659  0.0109 -0.3572
  203MOL    H7032794   5.661   4.371   2.480 -1.9794  1.1670  2.0376
  203MOL    H7132795   5.880   4.262   2.582 -0.3831 -1.3850  1.0236
  203MOL    H7232796   6.004   4.434   2.636 -0.6940  0.6443 -1.1462
  203MOL    H7332797   5.888   4.548   2.660  1.2054  0.8048 -0.4421
  203MOL    C7432798   5.734   4.286   2.729  0.0635  0.4191  0.6617
  203MOL    C7532799   5.639   4.173   2.678  0.7966  0.2095 -0.3142
  203MOL    N7632800   5.691   4.048   2.725 -0.0298  0.8466  0.2170
  203MOL    H7732801   5.795   4.247   2.811  2.5811  2.0719 -0.3387
  203MOL    H7832802   5.671   4.361   2.776 -1.5742  0.4989 -1.5570
  203MOL    H7932803   5.647   4.169   2.569 -1.9960 -2.0524 -0.5082
  203MOL    H8032804   5.620   3.997   2.776  0.0238 -0.3834 -0.9150
  203MOL    H8132805   5.714   4.000   2.639 -0.5357 -1.1998  1.2075
  203MOL    C8232806   5.495   4.194   2.710  0.3431  0.6934 -0.3194
  203MOL    C8332807   5.429   4.318   2.638 -0.1871 -0.3502  0.1074
  203MOL    N8432808   5.377   4.280   2.509  0.2051  0.0350 -0.4188
  203MOL    H8532809   5.441   4.105   2.676 -1.8239  1.2498  1.5151
  203MOL    H8632810   5.465   4.209   2.814 -2.4675 -0.2598 -0.9510
  203MOL    H8732811   5.489   4.408   2.633  0.4883 -0.8752 -1.6569
  203MOL    H8832812   5.301   4.214   2.495 -0.2024  0.6362 -1.0315
  203MOL    H8932813   5.456   4.249   2.454  0.6655  0.5995 -0.0897
  203MOL    C9032814   5.302   4.364   2.714  0.2925  0.2380 -0.6900
  203MOL    C9132815   5.267   4.509   2.686  0.6395 -0.1126 -0.3734
  203MOL    N9232816   5.136   4.524   2.735  0.2111  0.2992  0.5510
  203MOL    H9332817   5.218   4.297   2.695  0.3881  0.2740 -1.2510
  203MOL    H9432818   5.297   4.346   2.821 -0.8379  0.7136 -0.6594
  203MOL    H9532819   5.273   4.530   2.580 -0.4360  2.2303 -0.0241
  203MOL    H9632820   5.121   4.546   2.832  0.7341  1.1578  0.4382
  203MOL    H9732821   5.105   4.429   2.721  1.6176 -0.1579  0.5069
  203MOL    C9832822   5.358   4.614   2.757 -0.5429  0.0044 -0.2475
  203MOL    C9932823   5.299   4.760   2.759 -0.1338 -0.3954  0.4208
  203MOL   N10032824   5.386   4.834   2.849 -0.3872  0.0987 -0.4153
  203MOL   H10132825   5.375   4.590   2.862 -0.6532  2.3787  0.3385
  203MOL   H10232826   5.457   4.609   2.711 -0.5932  0.1819 -0.3746
  203MOL   H10332827   5.201   4.762   2.805 -0.8661 -0.1697 -1.1182
  203MOL   H10432828   5.463   4.877   2.799 -2.6351  2.1637 -2.2102
  203MOL   H10532829   5.327   4.911   2.875 -0.6682 -0.3767  0.3630
  203MOL   C10632830   5.325   4.831   2.619 -0.5381  0.1653 -0.5384
  203MOL   C10732831   5.227   4.805   2.502 -0.1795  0.2439  0.1264
  203MOL   N10832832   5.096   4.771   2.557 -0.1968 -0.5056 -0.2553
  203MOL   H10932833   5.340   4.938   2.634 -2.5483 -0.0880  3.9899
  203MOL   H11032834   5.426   4.803   2.588 -0.1595  0.3864  0.4937
  203MOL   H11132835   5.258   4.713   2.452 -1.2216  0.9059 -1.7797
  203MOL   H11232836   5.104   4.694   2.622 -2.2163 -0.0765  0.5186
  203MOL   H11332837   5.043   4.734   2.480 -1.2482 -0.7197  0.5513
  203MOL   C11432838   5.218   4.917   2.400  0.0038 -0.6485 -0.3013
  203MOL   C11532839   5.347   4.935   2.313  0.6128  0.7584 -0.1727
  203MOL   N11632840   5.355   4.826   2.213  0.0538  0.7532  0.2379
  203MOL   H11732841   5.137   4.897   2.329 -1.8619  2.3846  0.8595
  203MOL   H11832842   5.195   5.013   2.447 -1.8720 -1.3902  0.3437
  203MOL   H11932843   5.438   4.921   2.371 -0.7733 -1.1376  1.6094
  203MOL   H12032844   5.262   4.808   2.179  1.1698 -0.3722 -2.3256
  203MOL   H12132845   5.380   4.751   2.276  2.1896  2.2388  1.2170
  203MOL   C12232846   5.367   5.075   2.238  0.1491 -0.3537  0.4106
  203MOL   C12332847   5.450   5.187   2.304  0.7103  0.1903  0.6917
  203MOL   N12432848   5.474   5.300   2.210 -0.1049  0.5826 -0.6050
  203MOL   H12532849   5.420   5.065   2.144  0.4858  0.9758  0.4429
  203MOL   H12632850   5.274   5.116   2.199 -0.0243 -1.8697 -0.8137
  203MOL   H12732851   5.545   5.144   2.336 -0.8784 -2.7501  1.6373
  203MOL   H12832852   5.389   5.354   2.200 -0.5269 -0.5568 -3.6598
  203MOL   H12932853   5.505   5.267   2.120 -1.5923 -2.5995 -0.0491
  203MOL   C13032854   5.371   5.258   2.422 -0.4608  0.2481 -0.0353
  203MOL   C13132855   5.442   5.345   2.531 -0.0282 -0.4488 -0.2591
  203MOL   N13232856   5.539   5.432   2.461  0.0159 -0.1555  0.4119
  203MOL   H13332857   5.290   5.309   2.370  1.1882  1.2283 -1.6852
  203MOL   H13432858   5.318   5.176   2.470 -0.9045 -1.2239 -2.9391
  203MOL   H13532859   5.500   5.273   2.589 -1.8064 -1.0896  0.7578
  203MOL   H13632860   5.629   5.436   2.508 -0.4650 -0.8780  1.4143
  203MOL   H13732861   5.562   5.388   2.374  1.6977  1.4442 -0.0010
  203MOL   C13832862   5.341   5.417   2.623 -0.7722  0.0452  0.3459
  203MOL   C13932863   5.250   5.334   2.716 -0.3636 -0.3956  0.1109
  203MOL   N14032864   5.344   5.275   2.814 -0.1420 -0.3660  0.0323
  203MOL   H14132865   5.394   5.485   2.691  2.3185 -2.6430  0.7444
  203MOL   H14232866   5.275   5.484   2.568  2.5404  1.9537 -1.4963
  203MOL   H14332867   5.218   5.248   2.658 -1.4577  0.0472  0.0496
  203MOL   H14432868   5.308   5.182   2.830  0.1056 -0.5029 -0.2028
  203MOL   H14532869   5.347   5.329   2.899  1.0367 -2.9090  1.6805
  203MOL   C14632870   5.144   5.404   2.798 -0.7261  0.0196 -0.3895
  203MOL   C14732871   5.007   5.432   2.732 -0.3170 -0.0400  0.1382
  203MOL   N14832872   4.934   5.312   2.705 -0.6164  0.2392  0.9750
  203MOL   H14932873   5.129   5.353   2.893  0.4780  2.2643  1.0562
  203MOL   H15032874   5.195   5.496   2.827 -0.7068  0.1370 -0.7924
  203MOL   H15132875   5.014   5.496   2.644 -2.3634  5.1300  3.4763
  203MOL   H15232876   4.838   5.342   2.699 -0.6465 -0.2612 -1.7190
  203MOL   H15332877   4.969   5.269   2.620  0.4140  1.3113  0.8450
  203MOL   C15432878   4.914   5.514   2.821 -0.0420 -0.1222 -0.1629
  203MOL   C15532879   4.958   5.654   2.826 -0.6587  0.3437 -0.0783
  203MOL   N15632880   4.855   5.738   2.880  0.1069  0.4898  0.5829
  203MOL   H15732881   4.814   5.511   2.777 -0.4359  2.5896  0.4318
  203MOL   H15832882   4.901   5.469   2.919  0.5666  0.6047  0.2603
  203MOL   H15932883   5.001   5.691   2.732 -1.8020  2.6169  0.2504
  203MOL   H16032884   4.798   5.750   2.797  0.2933 -0.6362  0.2837
  203MOL   H16132885   4.902   5.822   2.910  3.8517 -1.7887  1.3505
  203MOL   H16232886   5.043   5.664   2.893 -0.9859  0.9856  0.2400
  204MOL     C132887   3.202   5.282   1.614  0.6899  0.1259  0.0117
  204MOL     C232888   3.130   5.155   1.661 -0.3518 -0.2446 -0.5830
  204MOL     N332889   3.215   5.084   1.752  0.0120  0.4734  0.0931
  204MOL     H432890   3.209   5.350   1.699  0.1828 -0.1690  0.2915
  204MOL     H532891   3.148   5.334   1.534  2.4171  1.8131 -0.1027
  204MOL     H632892   3.114   5.091   1.574  1.4050 -0.6918 -0.5861
  204MOL     H732893   3.173   5.102   1.842 -1.0505 -3.0901  0.3642
  204MOL     H832894   3.292   5.149   1.764  0.5117 -0.1435  0.2558
  204MOL     H932895   3.307   5.267   1.586  0.5146 -0.5592 -0.2770
  204MOL    C1032896   2.993   5.176   1.734 -0.0499  0.7486  0.2002
  204MOL    C1132897   2.879   5.220   1.650 -0.0192 -0.2881 -0.1520
  204MOL    N1232898   2.759   5.164   1.709  0.3561 -0.5101 -0.3868
  204MOL    H1332899   2.966   5.083   1.783  1.4898  0.1868  0.0278
  204MOL    H1432900   2.997   5.243   1.820 -1.5255  1.7713 -0.5234
  204MOL    H1532901   2.901   5.169   1.556  2.9279  0.6378  0.0037
  204MOL    H1632902   2.675   5.178   1.656 -1.9889 -0.5011  3.1996
  204MOL    H1732903   2.774   5.064   1.716  0.3498 -0.5590 -1.0762
  204MOL    C1832904   2.864   5.370   1.621  0.2494 -0.5514 -0.2210
  204MOL    C1932905   2.791   5.406   1.490  0.3795 -0.0719  0.8494
  204MOL    N2032906   2.770   5.551   1.482  0.3186 -0.1934 -0.0793
  204MOL    H2132907   2.807   5.418   1.700  0.5100 -1.1395  0.3286
  204MOL    H2232908   2.962   5.417   1.632 -0.6744  1.0534  1.3081
  204MOL    H2332909   2.694   5.359   1.481  0.6025 -0.3347 -0.1681
  204MOL    H2432910   2.725   5.593   1.563 -0.5227 -1.2437  0.0075
  204MOL    H2532911   2.865   5.584   1.475  0.1058  0.5199  0.2817
  204MOL    C2632912   2.873   5.360   1.370 -0.2521  1.0095 -0.2253
  204MOL    C2732913   2.803   5.337   1.238 -0.0655  0.2669  0.6022
  204MOL    N2832914   2.898   5.319   1.128 -0.4578 -0.2912  0.1726
  204MOL    H2932915   2.958   5.425   1.349  0.7254  1.0249  3.4254
  204MOL    H3032916   2.921   5.264   1.394  1.1577  1.7895  0.1539
  204MOL    H3132917   2.730   5.414   1.213  0.3093  0.4528  0.0818
  204MOL    H3232918   2.867   5.250   1.061  0.6327 -0.1437 -0.4929
  204MOL    H3332919   2.904   5.410   1.083  2.3684  0.0815  1.2514
  204MOL    C3432920   2.731   5.196   1.238  0.3376 -0.4415 -0.8264
  204MOL    C3532921   2.605   5.198   1.156  0.0720  0.5481 -0.2554
  204MOL    N3632922   2.586   5.078   1.085 -0.3534  0.2746 -0.5845
  204MOL    H3732923   2.799   5.118   1.202 -0.3273 -1.5582  0.2821
  204MOL    H3832924   2.707   5.171   1.342  1.3821 -0.4262 -0.5665
  204MOL    H3932925   2.621   5.266   1.072 -0.4207  1.3940  0.3348
  204MOL    H4032926   2.540   5.106   0.999 -2.4748 -1.6819 -0.1343
  204MOL    H4132927   2.675   5.054   1.046 -0.0142  0.4586  0.0737
  204MOL    C4232928   2.472   5.247   1.221 -0.0903 -0.0849 -0.7555
  204MOL    C4332929   2.436   5.400   1.191  0.5326  0.1079 -0.2559
  204MOL    N4432930   2.399   5.422   1.053  0.1786 -0.0049 -0.0073
  204MOL    H4532931   2.386   5.194   1.181 -1.0619  0.7530  0.1844
  204MOL    H4632932   2.454   5.220   1.325 -1.9358 -1.6662 -1.4726
  204MOL    H4732933   2.519   5.461   1.228 -0.3929 -0.5886  3.1290
  204MOL    H4832934   2.385   5.521   1.046 -0.2488 -0.1482 -1.3941
  204MOL    H4932935   2.481   5.400   0.998  0.2778  0.3808 -0.0128
  204MOL    C5032936   2.325   5.453   1.277 -0.0033 -0.3655  0.0021
  204MOL    C5132937   2.358   5.459   1.428  0.1394  0.4809 -0.4443
  204MOL    N5232938   2.469   5.551   1.470 -0.0475  0.3516  0.4039
  204MOL    H5332939   2.304   5.555   1.247  2.6167  0.6214  1.3277
  204MOL    H5432940   2.230   5.400   1.265  0.3056 -0.5465 -1.6546
  204MOL    H5532941   2.378   5.357   1.460 -0.3992  0.6011  0.2993
  204MOL    H5632942   2.475   5.628   1.404 -1.2564 -1.0606 -1.4284
  204MOL    H5732943   2.560   5.511   1.457  0.2188  0.8606  0.6985
  204MOL    C5832944   2.235   5.513   1.506 -0.2186 -0.2710  0.0710
  204MOL    C5932945   2.193   5.427   1.626 -0.4607 -0.3282 -0.0430
  204MOL    N6032946   2.090   5.502   1.701 -1.0992  0.2100  0.0326
  204MOL    H6132947   2.266   5.612   1.541  2.0725 -0.6715 -0.7199
  204MOL    H6232948   2.153   5.548   1.444 -0.9423 -0.2188  1.0453
  204MOL    H6332949   2.282   5.416   1.689  0.3310  0.5326 -0.9951
  204MOL    H6432950   2.116   5.600   1.704 -0.1324 -0.0612  0.7080
  204MOL    H6532951   2.014   5.494   1.635 -1.5516  0.9834  0.4560
  204MOL    C6632952   2.127   5.294   1.592 -0.1705 -0.3126  0.6433
  204MOL    C6732953   2.106   5.200   1.698 -0.4007 -0.1324 -0.3212
  204MOL    N6832954   2.050   5.076   1.648  0.1268 -0.4589  0.8925
  204MOL    H6932955   2.037   5.331   1.542  0.4623  0.5885  0.1465
  204MOL    H7032956   2.175   5.247   1.506 -1.7157  1.9552 -1.5455
  204MOL    H7132957   2.033   5.251   1.761 -2.0778 -3.6243  0.6739
  204MOL    H7232958   2.013   5.015   1.720 -0.4772  1.0775  1.9170
  204MOL    H7332959   2.121   5.022   1.602 -1.0855 -0.8681 -0.5483
  204MOL    C7432960   2.239   5.165   1.771  0.1304  0.2537  0.0936
  204MOL    C7532961   2.357   5.108   1.696  0.4166 -0.2629  0.0574
  204MOL    N7632962   2.463   5.208   1.678 -0.3166 -0.2221  0.0749
  204MOL    H7732963   2.275   5.252   1.826  0.3021  0.2164  0.0397
  204MOL    H7832964   2.209   5.104   1.857 -1.2729  1.7665  0.7161
  204MOL    H7932965   2.329   5.078   1.594  0.8228  0.1887 -0.1882
  204MOL    H8032966   2.483   5.249   1.768 -4.5056  0.9887  0.5120
  204MOL    H8132967   2.427   5.291   1.635 -0.6532 -1.4765 -2.1207
  204MOL    C8232968   2.427   4.990   1.770 -0.5088 -0.2280  0.2560
  204MOL    C8332969   2.349   4.861   1.760  0.2383  0.0453 -0.4921
  204MOL    N8432970   2.373   4.785   1.644 -0.4700 -0.0867 -0.3764
  204MOL    H8532971   2.528   4.971   1.734  0.3831  0.2948  2.4096
  204MOL    H8632972   2.437   5.021   1.874 -1.2111  0.7178  0.0569
  204MOL    H8732973   2.244   4.889   1.772 -0.1385 -1.2842 -0.5195
  204MOL    H8832974   2.371   4.837   1.558 -0.6082 -0.9490 -0.9031
  204MOL    H8932975   2.465   4.744   1.639 -0.0045  1.0074 -0.8346
  204MOL    C9032976   2.384   4.771   1.881 -0.1627  0.1622  0.7758
  204MOL    C9132977   2.289   4.657   1.920  0.0329 -0.1488  1.1113
  204MOL    N9232978   2.302   4.555   1.813  0.4035 -0.6054 -0.0745
  204MOL    H9332979   2.486   4.735   1.872  0.3230  1.9117 -0.9885
  204MOL    H9432980   2.386   4.839   1.966  1.9582  0.2202  0.6897
  204MOL    H9532981   2.187   4.694   1.922  0.0417 -0.1445  1.5974
  204MOL    H9632982   2.313   4.603   1.725  0.2795  1.4997  1.0109
  204MOL    H9732983   2.216   4.506   1.795 -1.6910  2.4429  1.2038
  204MOL    C9832984   2.328   4.607   2.062 -0.4889 -0.5272  0.4455
  204MOL    C9932985   2.265   4.479   2.129  0.5902 -0.0056  0.2956
  204MOL   N10032986   2.344   4.449   2.247  0.3754  0.2357  0.4890
  204MOL   H10132987   2.436   4.596   2.061 -0.4037  0.4109 -1.0007
  204MOL   H10232988   2.300   4.694   2.121 -2.1074 -1.0502  0.4866
  204MOL   H10332989   2.280   4.407   2.049 -1.6270 -2.0724  1.6520
  204MOL   H10432990   2.298   4.373   2.293 -1.6549  0.8854 -0.3945
  204MOL   H10532991   2.435   4.414   2.218  1.4471  1.0796  2.7110
  204MOL   C10632992   2.117   4.485   2.161  0.6677 -0.2784 -0.4094
  204MOL   C10732993   2.019   4.482   2.042  0.0454 -0.4213  0.0490
  204MOL   N10832994   2.016   4.348   1.989  0.0636  0.3620 -0.5491
  204MOL   H10932995   2.088   4.416   2.240 -1.4508  0.0019 -0.8984
  204MOL   H11032996   2.105   4.583   2.207 -1.0638 -1.2157  1.2201
  204MOL   H11132997   2.059   4.554   1.970 -0.6284  1.2677  1.3361
  204MOL   H11232998   2.113   4.322   1.997 -0.3747 -1.3469 -0.7130
  204MOL   H11332999   1.999   4.360   1.890 -1.3255  2.0650 -0.1410
  204MOL   C11433000   1.870   4.507   2.075  0.7937  0.4844 -0.7251
  204MOL   C11533001   1.784   4.563   1.963  0.0551  0.2682  0.3410
  204MOL   N11633002   1.644   4.534   1.991 -0.8031  0.8204 -0.0518
  204MOL   H11733003   1.824   4.413   2.106 -1.0775  1.8953  0.8823
  204MOL   H11833004   1.859   4.572   2.162 -1.3802 -1.2292  0.3219
  204MOL   H11933005   1.804   4.500   1.877  2.0635  0.8830  0.3296
  204MOL   H12033006   1.658   4.455   2.052  2.5663  3.3846  2.6879
  204MOL   H12133007   1.616   4.604   2.058  1.1268 -0.4962  2.2067
  204MOL   C12233008   1.810   4.718   1.929 -0.6728 -0.2852 -0.3746
  204MOL   C12333009   1.817   4.752   1.779  0.8138 -0.6274 -0.1427
  204MOL   N12433010   1.831   4.902   1.769  0.0158 -0.4510 -0.6414
  204MOL   H12533011   1.731   4.775   1.979 -0.9285 -1.5288  0.6643
  204MOL   H12633012   1.902   4.749   1.979 -1.5278  0.3038  0.8521
  204MOL   H12733013   1.720   4.726   1.737 -0.3164  0.4527  1.7409
  204MOL   H12833014   1.761   4.947   1.827  1.5519 -0.4281  1.2833
  204MOL   H12933015   1.818   4.931   1.674  0.2615  1.4926 -0.1168
  204MOL   C13033016   1.944   4.694   1.716  0.1379 -0.6751  0.2608
  204MOL   C13133017   1.977   4.729   1.569 -0.6109 -0.6883  0.0366
  204MOL   N13233018   2.115   4.681   1.539  0.7260  0.0670 -0.1724
  204MOL   H13333019   2.026   4.714   1.784 -0.5100  0.5824  0.6944
  204MOL   H13433020   1.925   4.586   1.725  1.0494 -0.9326 -0.8719
  204MOL   H13533021   1.987   4.837   1.558 -0.1933 -0.7601 -0.2982
  204MOL   H13633022   2.107   4.582   1.557 -1.0875  0.0337 -1.1351
  204MOL   H13733023   2.186   4.725   1.597  2.0958  0.6314 -2.1959
  204MOL   C13833024   1.880   4.662   1.479 -0.6189  0.2589  0.5183
  204MOL   C13933025   1.757   4.746   1.447  0.2277  0.2515 -0.6715
  204MOL   N14033026   1.782   4.832   1.327  0.3684 -0.3464  0.6016
  204MOL   H14133027   1.923   4.632   1.383  1.2756  3.1676  0.3965
  204MOL   H14233028   1.846   4.574   1.534  1.7894 -1.6021 -0.8616
  204MOL   H14333029   1.732   4.806   1.535  2.4629 -0.6982  0.6278
  204MOL   H14433030   1.855   4.900   1.340 -1.6915  1.4656  3.2038
  204MOL   H14533031   1.700   4.889   1.309 -0.5673 -1.1867  2.1263
  204MOL   C14633032   1.627   4.664   1.415  0.3745  0.2388 -0.3763
  204MOL   C14733033   1.558   4.595   1.530  0.3694  0.9321 -0.5865
  204MOL   N14833034   1.411   4.604   1.507 -0.1830  0.4312 -0.0869
  204MOL   H14933035   1.556   4.738   1.377 -1.3905 -0.4636  1.4395
  204MOL   H15033036   1.653   4.593   1.337  0.7027 -0.0148 -0.0376
  204MOL   H15133037   1.568   4.652   1.623  0.1864 -1.2127  0.7827
  204MOL   H15233038   1.387   4.544   1.429  0.0758 -0.2666  0.3609
  204MOL   H15333039   1.386   4.700   1.486 -1.7439  0.3049  1.1386
  204MOL   C15433040   1.586   4.444   1.548  0.2370  0.0936 -0.6341
  204MOL   C15533041   1.609   4.390   1.689  0.5889  0.2769 -0.2374
  204MOL   N15633042   1.683   4.271   1.708  0.1323  0.1768  0.3968
  204MOL   H15733043   1.510   4.375   1.510 -0.3560  0.7362 -0.6110
  204MOL   H15833044   1.680   4.421   1.497  0.6509  1.4550 -0.4865
  204MOL   H15933045   1.518   4.375   1.747 -0.8878 -2.3713 -3.1181
  204MOL   H16033046   1.699   4.251   1.805  2.9103  1.1813  0.1884
  204MOL   H16133047   1.626   4.191   1.684  1.9137 -0.7030 -1.0529
  204MOL   H16233048   1.659   4.478   1.731  1.0249  1.4114 -2.9929
  205MOL     C133049   5.694   3.746   0.302  0.1783 -0.1183  0.3669
  205MOL     C233050   5.726   3.841   0.423 -0.2799 -0.4220  0.9610
  205MOL     N333051   5.640   3.952   0.416 -0.7795  0.4165 -0.7488
  205MOL     H433052   5.773   3.672   0.298 -0.2707 -0.5571 -0.7159
  205MOL     H533053   5.688   3.804   0.210 -0.6009  0.9518  1.0829
  205MOL     H633054   5.826   3.883   0.414 -0.7069  0.1780 -1.6102
  205MOL     H733055   5.666   4.015   0.491 -2.1060  0.0611  0.0223
  205MOL     H833056   5.673   4.014   0.343  1.5756 -0.2954 -0.3203
  205MOL     H933057   5.597   3.697   0.312 -0.9128  2.1324  1.0602
  205MOL    C1033058   5.687   3.779   0.557  0.3333  0.4537  0.0577
  205MOL    C1133059   5.780   3.659   0.588  0.1748  0.4477 -0.4047
  205MOL    N1233060   5.816   3.670   0.726  0.0042 -0.3125 -0.0752
  205MOL    H1333061   5.703   3.855   0.634 -0.1985  1.8144 -1.1528
  205MOL    H1433062   5.582   3.752   0.563 -0.0893  1.8304 -0.9374
  205MOL    H1533063   5.864   3.643   0.520  0.2475 -0.3306 -0.1344
  205MOL    H1633064   5.731   3.679   0.779  0.3985 -0.9240  0.6735
  205MOL    H1733065   5.841   3.577   0.757  1.9812  0.2828  0.1613
  205MOL    C1833066   5.701   3.532   0.563 -0.7246  0.6235 -0.3117
  205MOL    C1933067   5.761   3.396   0.602  0.3094  0.1296  0.1364
  205MOL    N2033068   5.658   3.295   0.574 -0.3651  0.4219 -0.3175
  205MOL    H2133069   5.614   3.529   0.628 -0.5504  1.4498 -0.0357
  205MOL    H2233070   5.661   3.525   0.462 -0.6345 -1.9603 -0.2199
  205MOL    H2333071   5.771   3.378   0.709  0.5137 -1.0906 -0.0893
  205MOL    H2433072   5.694   3.205   0.602 -0.9088  0.5034  0.6795
  205MOL    H2533073   5.647   3.285   0.474  2.4165 -1.0400 -0.5436
  205MOL    C2633074   5.882   3.362   0.520 -0.3479 -0.1412  0.6338
  205MOL    C2733075   6.016   3.399   0.571 -0.0270 -0.0675 -0.6373
  205MOL    N2833076   6.026   3.333   0.695  0.1565  0.0519  0.4675
  205MOL    H2933077   5.880   3.257   0.491  0.5506  0.3236 -1.1970
  205MOL    H3033078   5.867   3.397   0.417  1.0328  0.1936  0.5375
  205MOL    H3133079   6.012   3.505   0.597  1.2151 -0.2881  0.4994
  205MOL    H3233080   6.034   3.233   0.679 -4.7998 -0.2688 -0.7026
  205MOL    H3333081   6.106   3.359   0.752  0.3139  1.1383 -0.2355
  205MOL    C3433082   6.135   3.359   0.476 -0.1214  0.8330  0.8217
  205MOL    C3533083   6.176   3.466   0.378  0.0144  0.7259  0.3285
  205MOL    N3633084   6.322   3.464   0.365 -0.2961  0.1263  0.5322
  205MOL    H3733085   6.208   3.335   0.553 -1.5199 -2.1456  1.2564
  205MOL    H3833086   6.108   3.266   0.427 -1.0415  0.2962  2.2971
  205MOL    H3933087   6.145   3.562   0.418  0.3768  1.0484 -0.1584
  205MOL    H4033088   6.353   3.369   0.351 -1.9507 -0.5040  1.0349
  205MOL    H4133089   6.376   3.489   0.447 -0.1895 -2.4621  1.2870
  205MOL    C4233090   6.122   3.437   0.235 -0.7876 -0.1763 -0.3080
  205MOL    C4333091   6.111   3.560   0.145 -0.1899  0.8128 -0.2332
  205MOL    N4433092   6.105   3.518   0.010  0.5311 -0.1841 -0.5431
  205MOL    H4533093   6.177   3.359   0.182  0.4562  2.1676 -2.5759
  205MOL    H4633094   6.027   3.384   0.239 -0.4339 -0.9215 -1.5006
  205MOL    H4733095   6.208   3.605   0.168  0.3085 -0.5434  0.3808
  205MOL    H4833096   6.179   3.450   7.271  0.9893  0.0690  0.6325
  205MOL    H4933097   6.141   3.596   7.233 -0.3794  0.0811 -0.7992
  205MOL    C5033098   5.991   3.658   0.176  1.0847 -0.4417  1.0458
  205MOL    C5133099   5.984   3.778   0.084 -0.1031 -0.1820  0.1691
  205MOL    N5233100   5.861   3.780   0.004 -0.4424 -0.1929 -0.3274
  205MOL    H5333101   5.895   3.611   0.154  0.5533  1.0724 -0.0145
  205MOL    H5433102   5.989   3.686   0.281 -1.6624  3.2701  0.1149
  205MOL    H5533103   6.065   3.772   0.011 -0.4727  0.6488 -0.3161
  205MOL    H5633104   5.873   3.705   7.213  0.9076  0.2694 -0.6130
  205MOL    H5733105   5.870   3.857   7.215  1.1694 -0.1068 -0.0200
  205MOL    C5833106   6.007   3.908   0.158  0.4186 -0.3189 -0.5993
  205MOL    C5933107   6.150   3.927   0.215 -0.3914 -0.2035 -0.0675
  205MOL    N6033108   6.249   3.916   0.110  0.1660 -0.1662 -0.3488
  205MOL    H6133109   5.979   3.979   0.080 -0.8292 -2.0120 -1.7141
  205MOL    H6233110   5.942   3.920   0.245  0.8807  3.5074 -0.6931
  205MOL    H6333111   6.152   3.849   0.292  0.1549  1.0497  1.2197
  205MOL    H6433112   6.338   3.894   0.152 -0.1925  1.1356  1.1594
  205MOL    H6533113   6.263   4.003   0.061  2.4038 -0.4988 -0.3606
  205MOL    C6633114   6.184   4.058   0.285 -0.0596 -0.3248 -0.1577
  205MOL    C6733115   6.104   4.102   0.412  0.3691  0.1301 -0.0165
  205MOL    N6833116   6.157   4.038   0.536  0.4784  0.1772 -0.2542
  205MOL    H6933117   6.287   4.047   0.320  0.4613  1.2121 -1.1394
  205MOL    H7033118   6.181   4.143   0.216  1.1095  0.3099  0.5522
  205MOL    H7133119   6.005   4.058   0.407  0.5105 -0.1461 -0.5012
  205MOL    H7233120   6.117   3.949   0.560  1.9263 -0.1970  0.8247
  205MOL    H7333121   6.129   4.095   0.615  2.2114 -0.4867  0.8651
  205MOL    C7433122   6.080   4.250   0.423  0.0344  0.1921  0.0397
  205MOL    C7533123   5.975   4.302   0.319 -0.6311 -0.3055 -0.2326
  205MOL    N7633124   5.837   4.268   0.349  0.1089  0.2360 -0.0379
  205MOL    H7733125   6.039   4.277   0.520 -0.3338 -2.1652  0.5687
  205MOL    H7833126   6.176   4.300   0.418 -1.1959  2.6849  0.5413
  205MOL    H7933127   6.008   4.260   0.224  0.8391  1.2713 -0.4507
  205MOL    H8033128   5.835   4.167   0.360  1.1941  0.1130 -0.8741
  205MOL    H8133129   5.787   4.286   0.264  2.7333 -1.6311 -2.0477
  205MOL    C8233130   5.985   4.454   0.313 -0.2838  0.5064  0.0154
  205MOL    C8333131   6.101   4.500   0.225  0.4346 -0.1921  0.9386
  205MOL    N8433132   6.083   4.491   0.081 -0.2115 -0.0100 -0.0944
  205MOL    H8533133   5.891   4.492   0.272 -0.4754  1.9660  1.7485
  205MOL    H8633134   5.982   4.496   0.414  2.4232  0.1357  0.2982
  205MOL    H8733135   6.184   4.434   0.252  1.5211  0.1027 -1.5943
  205MOL    H8833136   5.994   4.531   0.054 -1.0674 -1.1692  0.9661
  205MOL    H8933137   6.150   4.555   0.041 -1.8382  1.4528 -0.5551
  205MOL    C9033138   6.135   4.647   0.263  0.3261 -0.2884 -0.4764
  205MOL    C9133139   6.263   4.682   0.337 -1.1302 -0.0031 -0.2091
  205MOL    N9233140   6.270   4.824   0.331  0.1429 -0.2762  0.3841
  205MOL    H9333141   6.140   4.711   0.175 -1.6039 -0.6624 -0.8811
  205MOL    H9433142   6.051   4.682   0.323  0.8696 -1.3076  0.9139
  205MOL    H9533143   6.340   4.633   0.277 -0.3747  1.0836 -0.1569
  205MOL    H9633144   6.214   4.880   0.394 -0.1488 -0.9070  0.6883
  205MOL    H9733145   6.243   4.854   0.239 -0.0845  1.5523  1.0237
  205MOL    C9833146   6.267   4.636   0.485 -0.8652 -0.2896 -0.1820
  205MOL    C9933147   6.408   4.599   0.542 -0.7360  0.3527 -0.1725
  205MOL   N10033148   6.493   4.717   0.546 -0.2395 -0.5058  0.3873
  205MOL   H10133149   6.217   4.708   0.551 -0.8507  0.3856 -0.9003
  205MOL   H10233150   6.211   4.543   0.490 -1.8961  0.2192 -1.9897
  205MOL   H10333151   6.461   4.535   0.472 -0.5740  2.0699 -1.6547
  205MOL   H10433152   6.448   4.795   0.591  2.2260  1.0895  0.1396
  205MOL   H10533153   6.522   4.753   0.456  0.0579 -2.8142 -0.4938
  205MOL   C10633154   6.414   4.556   0.690 -0.0236  0.4259 -0.0842
  205MOL   C10733155   6.492   4.424   0.704 -0.4336 -0.2997 -0.4204
  205MOL   N10833156   6.518   4.394   0.845  0.0380 -0.0481 -0.0154
  205MOL   H10933157   6.451   4.627   0.763 -0.3702  0.0150  0.4958
  205MOL   H11033158   6.311   4.537   0.722  0.1932 -2.1477 -0.7796
  205MOL   H11133159   6.595   4.439   0.670 -0.0663  0.0900  0.7919
  205MOL   H11233160   6.444   4.431   0.902  0.4346  0.7380  0.0008
  205MOL   H11333161   6.596   4.454   0.869 -1.1402  0.9324  1.4834
  205MOL   C11433162   6.425   4.301   0.642  0.3303  0.3727 -0.2170
  205MOL   C11533163   6.518   4.198   0.579  0.4565  0.2031  0.2900
  205MOL   N11633164   6.447   4.072   0.566 -0.2166 -0.4181 -0.6811
  205MOL   H11733165   6.356   4.259   0.716  0.7672  1.5808  0.9066
  205MOL   H11833166   6.350   4.328   0.568  0.0688 -0.7930 -0.3780
  205MOL   H11933167   6.603   4.169   0.641  0.0771 -0.5640  0.4595
  205MOL   H12033168   6.403   4.052   0.655  1.4001 -0.5906  0.0920
  205MOL   H12133169   6.363   4.070   0.510 -1.1683  1.6648  0.5919
  205MOL   C12233170   6.577   4.233   0.435 -0.2079  1.3323 -0.4418
  205MOL   C12333171   6.710   4.319   0.443  0.0575  0.3938 -0.0372
  205MOL   N12433172   6.814   4.240   0.502 -0.3556 -0.4424 -0.7423
  205MOL   H12533173   6.606   4.149   0.372  1.9323  1.3742  0.4540
  205MOL   H12633174   6.508   4.293   0.375 -0.0922  1.1776 -0.7309
  205MOL   H12733175   6.689   4.402   0.511 -0.1088 -0.9680  1.6258
  205MOL   H12833176   6.900   4.293   0.502 -0.0485 -0.8044  2.3653
  205MOL   H12933177   6.800   4.239   0.602  0.1867  0.1954 -0.6552
  205MOL   C13033178   6.762   4.368   0.307 -0.1553 -0.3337  0.0897
  205MOL   C13133179   6.681   4.481   0.240  0.1134 -0.0204 -0.5858
  205MOL   N13233180   6.721   4.613   0.296  0.6597 -0.1117 -0.0567
  205MOL   H13333181   6.867   4.398   0.309 -0.4552  0.7387  0.0375
  205MOL   H13433182   6.759   4.285   0.237 -2.9393 -1.1984  1.1695
  205MOL   H13533183   6.578   4.455   0.261  0.4622 -1.8787 -1.0813
  205MOL   H13633184   6.736   4.610   0.396  1.3661  0.2672 -0.1527
  205MOL   H13733185   6.810   4.625   0.250  0.7899 -0.9742 -0.0392
  205MOL   C13833186   6.710   4.481   0.090 -0.0257  0.8657 -0.5723
  205MOL   C13933187   6.582   4.462   0.001 -0.1479  0.9190  0.0520
  205MOL   N14033188   6.618   4.528   7.151  0.4013 -0.0117  0.0743
  205MOL   H14133189   6.760   4.574   0.067  0.5169  0.5644 -0.6075
  205MOL   H14233190   6.788   4.412   0.058 -1.6867 -1.5229  0.3619
  205MOL   H14333191   6.496   4.501   0.057 -0.4266 -1.1356  1.1181
  205MOL   H14433192   6.606   4.627   7.167  2.4519  0.6211 -1.9654
  205MOL   H14533193   6.713   4.505   7.127  0.1108 -1.8818  0.6826
  205MOL   C14633194   6.579   4.313   7.235  0.4214  0.4394 -0.5912
  205MOL   C14733195   6.457   4.271   7.157 -0.2082 -1.2969  0.0701
  205MOL   N14833196   6.495   4.144   7.093 -0.2764 -0.0078 -0.9140
  205MOL   H14933197   6.671   4.284   7.184 -0.1681 -2.3838 -0.1762
  205MOL   H15033198   6.577   4.251   0.049  3.4543  1.4042  0.1960
  205MOL   H15133199   6.446   4.332   7.067 -1.2044  0.4851  1.3613
  205MOL   H15233200   6.582   4.161   7.045  0.4050 -2.2177 -0.4966
  205MOL   H15333201   6.428   4.116   7.023 -1.1225 -0.5920  0.1170
  205MOL   C15433202   6.324   4.255   7.244  0.0495 -0.2496  1.1170
  205MOL   C15533203   6.209   4.234   7.149 -1.0803  0.4747  0.1312
  205MOL   N15633204   6.087   4.213   7.221 -0.7407  0.3251  0.2834
  205MOL   H15733205   6.330   4.166   0.031 -2.4599 -1.4588 -0.2878
  205MOL   H15833206   6.305   4.344   0.028  1.9049  0.3170  0.8890
  205MOL   H15933207   6.226   4.152   7.079  0.5307  0.5517  0.4118
  205MOL   H16033208   6.096   4.129   0.000  2.0883 -1.1823 -2.3210
  205MOL   H16133209   6.085   4.290   0.010  1.3155  0.8573 -0.2368
  205MOL   H16233210   6.213   4.322   7.085  0.9760  0.0383 -0.3750
  206MOL     C133211   2.844   5.407   5.258  0.2086  0.5913  0.1640
  206MOL     C233212   2.732   5.301   5.267 -0.2692  0.3442 -0.5764
  206MOL     N333213   2.616   5.365   5.323 -0.3431 -0.2984  0.2883
  206MOL     H433214   2.855   5.446   5.359 -2.8734  2.0776  0.0104
  206MOL     H533215   2.825   5.485   5.184  0.2343 -0.0019 -0.4718
  206MOL     H633216   2.754   5.215   5.330  3.0126  0.0908 -1.9470
  206MOL     H733217   2.556   5.295   5.362 -1.5251  1.1292  1.0861
  206MOL     H833218   2.654   5.420   5.399  0.8406 -1.8978  0.8797
  206MOL     H933219   2.935   5.356   5.229 -1.1488 -2.1933  0.5638
  206MOL    C1033220   2.683   5.250   5.129 -0.6122  0.6493 -0.5812
  206MOL    C1133221   2.786   5.144   5.072 -0.7977 -0.3772  0.0921
  206MOL    N1233222   2.737   5.008   5.092 -0.3047 -0.3728 -0.2945
  206MOL    H1333223   2.592   5.191   5.138  0.3260 -0.8287 -0.4225
  206MOL    H1433224   2.661   5.325   5.053 -2.3422  0.1123 -0.6339
  206MOL    H1533225   2.877   5.142   5.131 -0.3474  0.4605 -0.5720
  206MOL    H1633226   2.728   4.998   5.192 -0.1331  1.2516 -0.0964
  206MOL    H1733227   2.820   4.958   5.063  0.2697  0.5344 -0.2552
  206MOL    C1833228   2.821   5.168   4.927 -0.6494 -0.4447  0.4381
  206MOL    C1933229   2.914   5.298   4.912 -0.0127 -0.0719 -0.1403
  206MOL    N2033230   3.056   5.274   4.924 -0.3477  0.0372 -0.0919
  206MOL    H2133231   2.864   5.075   4.888 -1.8255 -0.0755 -1.8428
  206MOL    H2233232   2.733   5.163   4.862  0.6269 -1.5800 -1.2761
  206MOL    H2333233   2.891   5.371   4.990 -2.0100 -2.3431  1.4657
  206MOL    H2433234   3.102   5.262   5.013 -0.5831 -0.5005 -0.0440
  206MOL    H2533235   3.088   5.369   4.911  0.6664 -0.4710 -1.4608
  206MOL    C2633236   2.882   5.367   4.774  0.2683 -0.0029 -0.7726
  206MOL    C2733237   2.797   5.496   4.764  0.4316  0.4859 -0.4326
  206MOL    N2833238   2.809   5.552   4.631  0.4268  0.2085  0.2300
  206MOL    H2933239   2.981   5.392   4.736  1.8558 -1.4089  2.2820
  206MOL    H3033240   2.834   5.296   4.707 -1.3456  0.2713  0.0662
  206MOL    H3133241   2.824   5.564   4.844 -1.0956  0.0246  0.5018
  206MOL    H3233242   2.817   5.483   4.558  0.0761  0.4486 -0.0364
  206MOL    H3333243   2.720   5.593   4.608 -0.1623 -0.9329  0.4404
  206MOL    C3433244   2.646   5.473   4.786 -0.0295  0.8961 -0.6155
  206MOL    C3533245   2.551   5.588   4.840  0.3722  0.2211  0.3235
  206MOL    N3633246   2.411   5.561   4.813 -0.1705 -0.1323  0.1307
  206MOL    H3733247   2.618   5.437   4.687 -1.2376  3.0035 -1.0636
  206MOL    H3833248   2.629   5.376   4.833 -2.0026  0.8827 -1.3204
  206MOL    H3933249   2.586   5.686   4.807  1.3323 -0.5288 -0.9205
  206MOL    H4033250   2.397   5.594   4.719  1.5706 -0.2925 -0.1916
  206MOL    H4133251   2.350   5.628   4.858  0.4287  0.5841 -0.1165
  206MOL    C4233252   2.567   5.573   4.994  0.0396 -0.5593  0.1811
  206MOL    C4333253   2.517   5.701   5.067  0.2791 -0.4868 -0.0405
  206MOL    N4433254   2.500   5.666   5.208  0.1671  0.8791 -0.3396
  206MOL    H4533255   2.498   5.496   5.029 -1.1688 -0.8491 -2.6646
  206MOL    H4633256   2.671   5.558   5.021 -0.0371  3.0500  2.8172
  206MOL    H4733257   2.422   5.726   5.019  1.3499  0.2638 -1.8299
  206MOL    H4833258   2.419   5.610   5.230  0.7387 -0.4712 -1.5737
  206MOL    H4933259   2.578   5.606   5.232 -1.4911 -0.6467  1.3242
  206MOL    C5033260   2.615   5.822   5.058 -0.2123  1.0927 -0.2958
  206MOL    C5133261   2.581   5.958   5.120 -0.4561 -0.1985 -0.2019
  206MOL    N5233262   2.687   6.057   5.086 -0.1061 -0.2868 -0.4098
  206MOL    H5333263   2.706   5.786   5.105 -0.9964 -0.8947 -0.2153
  206MOL    H5433264   2.637   5.829   4.952  0.1681 -0.2202 -0.3130
  206MOL    H5533265   2.588   5.947   5.228  1.7607 -4.3672 -0.6661
  206MOL    H5633266   2.778   6.038   5.126 -1.2284  0.3560  2.5306
  206MOL    H5733267   2.665   6.140   5.139  1.2995 -0.2234  0.0959
  206MOL    C5833268   2.442   6.014   5.094  0.1362  0.1249  0.0550
  206MOL    C5933269   2.325   5.995   5.194  0.1201  0.3022 -0.2816
  206MOL    N6033270   2.351   6.092   5.301 -0.0841  0.6451 -0.0661
  206MOL    H6133271   2.445   6.122   5.077  0.5342  0.1482  0.2464
  206MOL    H6233272   2.424   5.976   4.994  0.8246  2.2916 -0.9186
  206MOL    H6333273   2.320   5.891   5.228 -0.4328 -0.2571 -2.0356
  206MOL    H6433274   2.450   6.099   5.318  0.7182 -4.0311 -2.0195
  206MOL    H6533275   2.319   6.187   5.285  1.8168  0.8121 -3.2659
  206MOL    C6633276   2.184   6.034   5.137 -0.0916  0.4586 -0.1855
  206MOL    C6733277   2.113   5.928   5.056 -0.2207 -0.5961 -0.3944
  206MOL    N6833278   2.077   5.820   5.149 -0.3496  0.3732 -0.1247
  206MOL    H6933279   2.127   6.066   5.224  1.0686  3.1649 -0.3468
  206MOL    H7033280   2.191   6.128   5.083  3.0975  0.1371 -0.4607
  206MOL    H7133281   2.180   5.900   4.974 -0.6302 -3.6269  0.2407
  206MOL    H7233282   2.026   5.871   5.220  0.1086  1.6249 -0.6742
  206MOL    H7333283   2.168   5.791   5.182 -0.4594 -0.2231 -0.3458
  206MOL    C7433284   1.979   5.981   5.011  0.3817  0.4323  0.1510
  206MOL    C7533285   1.900   5.881   4.913 -0.0850  0.5414 -0.0781
  206MOL    N7633286   1.765   5.917   4.899  0.0983 -0.4992  0.3703
  206MOL    H7733287   1.922   6.022   5.094  0.2453 -0.5036  0.5212
  206MOL    H7833288   2.003   6.073   4.957  2.6485  0.9850  2.0184
  206MOL    H7933289   1.897   5.784   4.963  0.6885  0.0901 -0.8784
  206MOL    H8033290   1.707   5.867   4.832 -0.9741  0.5196  0.5212
  206MOL    H8133291   1.698   5.917   4.975 -1.6910  1.4777 -1.1385
  206MOL    C8233292   1.974   5.882   4.773  0.4841 -0.0355 -0.0527
  206MOL    C8333293   1.955   5.755   4.694  0.2288  0.4283 -0.0604
  206MOL    N8433294   2.014   5.769   4.560  0.1588 -0.1115 -0.4239
  206MOL    H8533295   1.944   5.965   4.709  3.2597  0.2158 -1.0876
  206MOL    H8633296   2.080   5.894   4.796  1.2194  0.0469 -3.2397
  206MOL    H8733297   1.849   5.732   4.683  0.2660 -0.0134  0.4622
  206MOL    H8833298   2.016   5.687   4.501  0.9918 -0.8709  0.6229
  206MOL    H8933299   1.941   5.822   4.515  0.6469  0.8077 -0.1529
  206MOL    C9033300   2.014   5.630   4.764  0.6726  0.4238 -0.8488
  206MOL    C9133301   1.907   5.534   4.834  0.1270  0.5410 -0.0169
  206MOL    N9233302   1.803   5.495   4.740  0.0481 -0.1604  0.1697
  206MOL    H9333303   2.068   5.562   4.698  0.2451 -0.1411 -0.6214
  206MOL    H9433304   2.089   5.660   4.836 -3.5136  1.3045  3.3954
  206MOL    H9533305   1.855   5.584   4.916 -0.9442  1.3363 -1.1574
  206MOL    H9633306   1.761   5.583   4.714  0.1920  0.0538  0.6630
  206MOL    H9733307   1.852   5.473   4.654 -1.3815  0.5520 -0.8695
  206MOL    C9833308   1.973   5.416   4.888  0.6300  0.5130  0.0150
  206MOL    C9933309   2.093   5.429   4.981 -0.0667 -0.5523 -0.0332
  206MOL   N10033310   2.045   5.509   5.089  0.2275  0.1880  0.0227
  206MOL   H10133311   1.894   5.357   4.933 -2.2135  2.0933 -2.7376
  206MOL   H10233312   2.011   5.352   4.808 -1.1297  0.8957 -1.1399
  206MOL   H10333313   2.173   5.488   4.937 -1.4008  0.0591 -1.6892
  206MOL   H10433314   2.123   5.528   5.151 -1.0307 -0.5757  1.8902
  206MOL   H10533315   2.018   5.603   5.065  1.7062  0.7423  0.4279
  206MOL   C10633316   2.152   5.296   5.044  0.7453 -0.0181 -0.2613
  206MOL   C10733317   2.234   5.206   4.946  0.3084 -0.4586  0.2869
  206MOL   N10833318   2.373   5.251   4.962 -0.5084 -0.3215 -0.0390
  206MOL   H10933319   2.211   5.309   5.135 -0.9593 -0.2867  0.9185
  206MOL   H11033320   2.059   5.251   5.080 -0.0210  2.2618  0.6641
  206MOL   H11133321   2.221   5.216   4.838 -0.9091  0.2198  0.4886
  206MOL   H11233322   2.378   5.348   4.935 -0.8387 -0.1062  0.6634
  206MOL   H11333323   2.447   5.212   4.905 -2.8247 -2.5807 -1.6203
  206MOL   C11433324   2.214   5.053   4.960 -0.5806  0.2745  0.1796
  206MOL   C11533325   2.079   5.001   4.903 -0.7938 -0.4378  0.0341
  206MOL   N11633326   2.089   4.996   4.760 -0.1965  0.1666 -0.3586
  206MOL   H11733327   2.298   5.001   4.914 -0.2883  0.7081  0.2164
  206MOL   H11833328   2.220   5.009   5.059 -0.4177  0.4634  0.2542
  206MOL   H11933329   1.994   5.056   4.942 -0.2719 -1.4384  2.7095
  206MOL   H12033330   2.018   4.926   4.745 -0.1698  0.0109  0.2117
  206MOL   H12133331   2.175   4.946   4.745 -1.3758 -2.5514  1.4064
  206MOL   C12233332   2.045   4.850   4.938  0.1130 -0.6336  0.0892
  206MOL   C12333333   1.996   4.833   5.079  0.6216  0.0508 -0.3181
  206MOL   N12433334   1.869   4.769   5.074  0.2289  0.1640  0.3294
  206MOL   H12533335   1.968   4.807   4.874 -1.6118  1.4333  0.7212
  206MOL   H12633336   2.133   4.799   4.901 -0.2084  0.7393 -2.6544
  206MOL   H12733337   1.974   4.928   5.128  0.2882 -0.4063  0.4288
  206MOL   H12833338   1.844   4.709   5.151 -0.5963 -0.8705 -0.7332
  206MOL   H12933339   1.799   4.841   5.088 -0.7860 -0.5994 -0.7724
  206MOL   C13033340   2.096   4.755   5.165  0.1349  0.3401 -0.5713
  206MOL   C13133341   2.127   4.840   5.293 -0.6377 -0.2852 -0.0697
  206MOL   N13233342   2.044   4.795   5.408  0.0743  0.0474 -0.5936
  206MOL   H13333343   2.069   4.654   5.195 -1.0085  0.5401 -0.8887
  206MOL   H13433344   2.186   4.740   5.106  0.6192  1.7426 -0.2265
  206MOL   H13533345   2.111   4.946   5.274  1.6473  0.4859  2.0062
  206MOL   H13633346   2.066   4.859   5.483  0.3080 -3.1179  2.1890
  206MOL   H13733347   1.943   4.800   5.404  0.0339 -0.5874 -0.5151
  206MOL   C13833348   2.273   4.814   5.346 -0.7982 -0.2048 -0.4046
  206MOL   C13933349   2.388   4.848   5.245  0.2517 -0.0798  0.4023
  206MOL   N14033350   2.418   4.989   5.259  0.2293  0.1651  0.0976
  206MOL   H14133351   2.289   4.869   5.438  3.4353 -0.4240 -0.8964
  206MOL   H14233352   2.282   4.708   5.366  0.0213 -0.0069  0.3133
  206MOL   H14333353   2.351   4.842   5.143  3.3651 -0.7933 -0.7510
  206MOL   H14433354   2.460   5.022   5.173  0.6364 -1.1713 -0.2383
  206MOL   H14533355   2.348   5.060   5.273 -0.7234  0.0515 -3.6161
  206MOL   C14633356   2.505   4.753   5.261  0.2725  0.1566  0.5273
  206MOL   C14733357   2.484   4.607   5.223  0.1112  0.9775  0.6034
  206MOL   N14833358   2.445   4.601   5.082 -0.6513  0.1505  0.2479
  206MOL   H14933359   2.584   4.805   5.208  0.3306  0.9430  1.3805
  206MOL   H15033360   2.539   4.759   5.365  1.0223 -2.7535  0.5058
  206MOL   H15133361   2.408   4.554   5.281 -0.2418 -1.8049 -2.2558
  206MOL   H15233362   2.349   4.629   5.065 -1.1605 -1.0130  1.0819
  206MOL   H15333363   2.505   4.657   5.024 -0.5687  1.6065  1.6978
  206MOL   C15433364   2.614   4.518   5.239 -0.0429 -0.1261  0.2589
  206MOL   C15533365   2.652   4.483   5.385  0.2837  0.3232  0.0240
  206MOL   N15633366   2.758   4.392   5.376 -0.3955  0.1581  0.0845
  206MOL   H15733367   2.603   4.425   5.183  2.0005 -0.0007 -0.3832
  206MOL   H15833368   2.697   4.573   5.194  1.6889 -3.1692 -0.4420
  206MOL   H15933369   2.567   4.436   5.434  0.4983  0.9139  0.9729
  206MOL   H16033370   2.724   4.301   5.404 -0.0280 -0.1584 -0.4727
  206MOL   H16133371   2.827   4.409   5.448  1.6048  1.6790 -2.0882
  206MOL   H16233372   2.682   4.577   5.432  0.5547  0.7946 -1.0526
  207MOL     C133373   6.677   0.131   3.506 -0.4398  0.2851 -0.0259
  207MOL     C233374   6.671   7.262   3.455  0.0354 -0.7250 -0.0075
  207MOL     N333375   6.800   7.194   3.478 -0.6159  0.3640 -0.5876
  207MOL     H433376   6.587   0.185   3.476 -0.4988  0.7189  0.9356
  207MOL     H533377   6.755   0.187   3.453 -1.3756  2.2003  0.6001
  207MOL     H633378   6.639   7.251   3.351 -2.3451  1.9323  0.3931
  207MOL     H733379   6.871   7.226   3.414  0.2147 -0.5672 -0.1581
  207MOL     H833380   6.799   7.094   3.462  0.0109 -0.0284  1.6634
  207MOL     H933381   6.692   0.144   3.613  1.0062 -0.6835 -0.0926
  207MOL    C1033382   6.570   7.183   3.537 -0.1956  0.5986 -0.4591
  207MOL    C1133383   6.429   7.234   3.518 -0.1138 -0.0343 -0.3336
  207MOL    N1233384   6.390   7.229   3.380  0.6688  0.5089 -0.1444
  207MOL    H1333385   6.581   7.075   3.529 -0.4306  0.5305  0.0942
  207MOL    H1433386   6.596   7.200   3.642  0.4241 -1.9253 -0.1687
  207MOL    H1533387   6.411   0.059   3.557  1.0434 -0.5112  1.5127
  207MOL    H1633388   6.454   0.020   3.337  1.9746  0.0983  1.1267
  207MOL    H1733389   6.303   0.002   3.367  0.2913 -0.0127  0.4340
  207MOL    C1833390   6.325   7.146   3.600  0.6203 -0.0744 -0.5563
  207MOL    C1933391   6.344   7.120   3.752  0.1396  0.5634 -0.1368
  207MOL    N2033392   6.439   7.005   3.778  0.8494  0.1404  0.6769
  207MOL    H2133393   6.245   7.220   3.591  0.6990  0.1351  0.4899
  207MOL    H2233394   6.285   7.062   3.543  0.2534 -1.5435  1.8315
  207MOL    H2333395   6.253   7.077   3.793 -0.5376  1.1976 -0.9665
  207MOL    H2433396   6.481   7.020   3.869 -1.5767  1.5417  1.6145
  207MOL    H2533397   6.522   7.015   3.721  0.2931 -0.7528 -0.3209
  207MOL    C2633398   6.385   7.240   3.845  0.1288 -0.5509  0.1625
  207MOL    C2733399   6.297   7.270   3.970 -0.2921 -0.4650 -0.1610
  207MOL    N2833400   6.174   0.059   3.920 -0.7801 -0.1389  0.4260
  207MOL    H2933401   6.483   7.222   3.890 -0.0335  1.1557  1.2255
  207MOL    H3033402   6.397   0.051   3.781 -1.1959  0.4057  1.1782
  207MOL    H3133403   6.352   0.074   4.020  0.9041  0.0366 -2.2225
  207MOL    H3233404   6.207   0.147   3.882  1.6397 -1.6322 -0.9937
  207MOL    H3333405   6.108   0.086   3.992  1.1995  1.0844  1.8413
  207MOL    C3433406   6.272   7.150   4.066  0.2087  0.3108 -0.0383
  207MOL    C3533407   6.207   7.181   4.201  0.0012 -0.2164 -0.1834
  207MOL    N3633408   6.218   7.065   4.285  0.5223  0.9851 -0.0892
  207MOL    H3733409   6.197   7.087   4.019 -1.8388  2.1796  0.6466
  207MOL    H3833410   6.361   7.087   4.057  0.1118  0.2468 -0.5897
  207MOL    H3933411   6.100   7.196   4.186 -0.4344 -1.2921  1.6854
  207MOL    H4033412   6.153   7.073   4.362  1.4442 -0.5226  0.8790
  207MOL    H4133413   6.170   6.994   4.233  0.8777 -1.0121  2.2224
  207MOL    C4233414   6.262   0.029   4.279  0.1032  0.0781 -0.0022
  207MOL    C4333415   6.203   0.164   4.240  0.3200  0.5440  0.4729
  207MOL    N4433416   6.072   0.179   4.302 -0.6752 -0.0232 -0.1022
  207MOL    H4533417   6.249   0.018   4.387  2.4516 -0.3624  0.2629
  207MOL    H4633418   6.369   0.041   4.263 -0.2175  0.0424 -2.3536
  207MOL    H4733419   6.186   0.170   4.132 -1.1840  0.4969  0.7072
  207MOL    H4833420   6.076   0.247   4.377 -0.5107  0.6236 -0.6972
  207MOL    H4933421   6.050   0.093   4.352  0.9657 -0.7480 -0.6066
  207MOL    C5033422   6.282   0.286   4.297  0.4790 -0.3185 -0.5205
  207MOL    C5133423   6.250   0.417   4.218  0.3322  0.1204  0.2566
  207MOL    N5233424   6.233   0.527   4.320  0.3638 -0.3635 -0.1534
  207MOL    H5333425   6.268   0.302   4.404 -1.6281  0.9273 -0.9656
  207MOL    H5433426   6.387   0.258   4.286  0.4139 -0.4122 -0.9136
  207MOL    H5533427   6.155   0.399   4.169  0.9028 -0.4460 -0.6437
  207MOL    H5633428   6.170   0.595   4.279  0.1990 -1.1067 -1.1558
  207MOL    H5733429   6.180   0.498   4.401 -0.1488  0.4875 -0.1759
  207MOL    C5833430   6.344   0.472   4.110  0.3498 -0.0443  0.1883
  207MOL    C5933431   6.380   0.376   3.995 -0.3075 -0.1470 -0.2958
  207MOL    N6033432   6.256   0.342   3.920  0.0282  0.7206 -0.5272
  207MOL    H6133433   6.318   0.571   4.071  0.1294 -0.6768 -1.3319
  207MOL    H6233434   6.442   0.494   4.154 -0.0065  1.9147  0.0328
  207MOL    H6333435   6.414   0.287   4.047  0.0394 -0.1954 -0.6009
  207MOL    H6433436   6.279   0.339   3.821  1.3341 -0.4947 -0.2013
  207MOL    H6533437   6.179   0.405   3.937 -0.8065 -0.1975 -0.8602
  207MOL    C6633438   6.480   0.445   3.898 -0.1832 -0.2775  0.4304
  207MOL    C6733439   6.568   0.349   3.816  0.8130  0.4045  0.1969
  207MOL    N6833440   6.600   0.421   3.690 -0.0072  0.3187 -0.3378
  207MOL    H6933441   6.421   0.511   3.835  3.6743  2.2666 -0.6617
  207MOL    H7033442   6.541   0.520   3.948 -0.3942  0.9157 -1.0893
  207MOL    H7133443   6.500   0.269   3.786  0.6308  0.9948 -1.0307
  207MOL    H7233444   6.645   0.367   3.617 -1.8120  0.2207 -1.4163
  207MOL    H7333445   6.661   0.500   3.707 -1.6003  1.7938 -1.3523
  207MOL    C7433446   6.702   0.301   3.887 -0.3520 -0.0487  0.2274
  207MOL    C7533447   6.692   0.240   4.032 -0.6814 -0.5143  0.1851
  207MOL    N7633448   6.622   0.115   4.042 -0.0067  0.0280  0.1869
  207MOL    H7733449   6.754   0.232   3.822 -0.2821 -1.9191  2.1951
  207MOL    H7833450   6.767   0.388   3.902 -0.3010  0.2992 -1.9734
  207MOL    H7933451   6.632   0.303   4.097 -1.0026 -0.7141  0.0797
  207MOL    H8033452   6.542   0.107   4.103  0.6922 -1.3937  0.9461
  207MOL    H8133453   6.582   0.092   3.952 -1.3040  1.7915  0.2922
  207MOL    C8233454   6.827   0.226   4.107 -0.6643 -1.0937 -1.3053
  207MOL    C8333455   6.853   0.346   4.203 -0.0017  0.0737 -0.4282
  207MOL    N8433456   6.933   0.294   4.317 -0.6911 -0.4540 -0.1122
  207MOL    H8533457   6.818   0.138   4.170 -1.5266 -0.6528 -0.8105
  207MOL    H8633458   6.905   0.203   4.034  0.5959  0.3318 -0.4186
  207MOL    H8733459   6.757   0.375   4.245  0.3404  3.5569 -1.9449
  207MOL    H8833460   6.920   0.197   4.339 -0.1418 -0.6886 -0.7944
  207MOL    H8933461   7.023   0.300   4.271 -0.5765 -1.8235 -0.0955
  207MOL    C9033462   6.919   0.467   4.142 -0.7595  0.1510 -0.2732
  207MOL    C9133463   6.823   0.590   4.149  0.0609  0.3240 -0.1666
  207MOL    N9233464   6.829   0.638   4.286  0.4471 -0.3958  0.7213
  207MOL    H9333465   7.010   0.497   4.195 -0.7480 -0.5838  0.1281
  207MOL    H9433466   6.945   0.456   4.037 -0.4004 -0.5697 -0.1115
  207MOL    H9533467   6.723   0.563   4.116  0.2886 -2.4740  1.2354
  207MOL    H9633468   6.737   0.672   4.310  0.1088  0.4765 -1.6209
  207MOL    H9733469   6.839   0.550   4.334  0.6263 -3.2965 -4.3262
  207MOL    C9833470   6.856   0.707   4.060 -0.1380  0.6129 -0.0645
  207MOL    C9933471   6.758   0.821   4.061  0.4339  0.0649  0.1043
  207MOL   N10033472   6.818   0.919   3.979  0.1899  0.0790 -0.4138
  207MOL   H10133473   6.956   0.745   4.077  0.8974 -1.4347 -1.3656
  207MOL   H10233474   6.859   0.661   3.961  1.9402 -0.4477  0.4732
  207MOL   H10333475   6.760   0.861   4.162  1.2902 -0.7189  0.3937
  207MOL   H10433476   6.905   0.928   4.029 -0.5364  3.0930  0.4503
  207MOL   H10533477   6.772   1.008   3.993  0.7691  0.1913  0.8035
  207MOL   C10633478   6.620   0.795   4.008 -0.3308  0.1578  0.0224
  207MOL   C10733479   6.521   0.911   4.038  0.3572  0.1057  0.0582
  207MOL   N10833480   6.412   0.892   3.954  0.0995 -0.1675  0.3307
  207MOL   H10933481   6.626   0.791   3.899  1.4345  1.8615  0.0317
  207MOL   H11033482   6.585   0.700   4.047  1.7824 -0.9872 -0.7936
  207MOL   H11133483   6.579   1.000   4.014 -0.6812 -0.0021 -3.0849
  207MOL   H11233484   6.366   0.982   3.949  1.7805  0.6151 -1.4644
  207MOL   H11333485   6.344   0.830   3.995 -0.4129 -1.3349 -2.1852
  207MOL   C11433486   6.471   0.918   4.183 -0.2869  0.9285 -0.3347
  207MOL   C11533487   6.333   0.973   4.212 -0.6699  0.4271  0.3786
  207MOL   N11633488   6.324   0.980   4.354  0.3783  0.0923 -0.9645
  207MOL   H11733489   6.484   0.816   4.218 -0.4230  1.4214  1.1998
  207MOL   H11833490   6.544   0.981   4.234  1.0461  0.4222 -1.5642
  207MOL   H11933491   6.258   0.903   4.175 -1.0852  2.0078 -1.8644
  207MOL   H12033492   6.373   0.907   4.403  2.9985  2.1444 -0.3837
  207MOL   H12133493   6.375   1.064   4.377  0.0775 -0.4438  1.8089
  207MOL   C12233494   6.301   1.115   4.164 -0.2625 -0.0844  0.2714
  207MOL   C12333495   6.159   1.133   4.094  0.3191  0.1947  0.6249
  207MOL   N12433496   6.160   1.067   3.964 -0.4831 -0.0761  0.3495
  207MOL   H12533497   6.313   1.191   4.241 -1.0271 -1.5313  1.8392
  207MOL   H12633498   6.375   1.150   4.092 -2.5369  0.5933 -1.8085
  207MOL   H12733499   6.143   1.239   4.071 -0.5618 -0.0660 -0.0091
  207MOL   H12833500   6.205   1.126   3.895  1.2468 -1.7499 -0.0003
  207MOL   H12933501   6.066   1.059   3.929 -0.6325 -2.4520  1.2497
  207MOL   C13033502   6.037   1.083   4.176  0.2261  0.4098  0.3652
  207MOL   C13133503   6.011   1.167   4.306 -0.0038  0.2224 -0.7272
  207MOL   N13233504   5.976   1.308   4.269  0.1799  0.0955 -0.3557
  207MOL   H13333505   5.950   1.082   4.111  1.3198  0.9131 -1.1271
  207MOL   H13433506   6.059   0.978   4.195 -0.8560 -0.0338 -0.7671
  207MOL   H13533507   6.101   1.158   4.367  0.2922 -1.4831 -1.3907
  207MOL   H13633508   5.916   1.357   4.334 -0.2373 -0.3161 -0.4340
  207MOL   H13733509   6.052   1.373   4.254  0.2306 -0.0043 -0.5352
  207MOL   C13833510   5.890   1.126   4.390 -0.2330 -0.2186  0.0305
  207MOL   C13933511   5.879   0.975   4.419 -0.8824 -0.2856  0.3527
  207MOL   N14033512   5.994   0.915   4.494 -0.8429  0.0051  0.3171
  207MOL   H14133513   5.906   1.178   4.485 -3.0357 -0.2613  0.5650
  207MOL   H14233514   5.797   1.156   4.342 -1.7377 -3.3559  0.8813
  207MOL   H14333515   5.881   0.928   4.321  0.3527  1.3098 -0.4157
  207MOL   H14433516   5.988   0.815   4.504  0.7762 -0.3767 -2.0177
  207MOL   H14533517   6.078   0.940   4.444  0.2695 -2.9284  0.6520
  207MOL   C14633518   5.753   0.940   4.504  0.5172 -0.4246  0.4898
  207MOL   C14733519   5.616   0.933   4.427  0.6175  0.0907 -0.2171
  207MOL   N14833520   5.617   0.810   4.357  0.3828  0.1483  0.0486
  207MOL   H14933521   5.767   0.849   4.562 -0.4472 -0.4242  0.7261
  207MOL   H15033522   5.753   1.014   4.584  1.7306 -0.2603  0.3402
  207MOL   H15133523   5.608   1.016   4.358  1.2182  0.7573  0.5068
  207MOL   H15233524   5.601   0.729   4.415 -0.9022  0.4175  0.0869
  207MOL   H15333525   5.533   0.800   4.302 -0.1845 -1.1596  1.1227
  207MOL   C15433526   5.496   0.933   4.516  0.3070  0.2271 -0.3022
  207MOL   C15533527   5.455   1.064   4.592  0.3846 -0.0110  0.2940
  207MOL   N15633528   5.321   1.059   4.653 -0.5315  0.2876  0.0454
  207MOL   H15733529   5.418   0.903   4.447 -0.6096  0.4913  0.6045
  207MOL   H15833530   5.500   0.852   4.588 -1.5589 -0.0246 -0.4547
  207MOL   H15933531   5.456   1.147   4.522 -0.5731 -1.9091 -2.0279
  207MOL   H16033532   5.318   1.137   4.717 -2.6772 -0.4308  0.8457
  207MOL   H16133533   5.249   1.081   4.586  0.6133  1.2116 -0.9112
  207MOL   H16233534   5.532   1.089   4.665  1.3717  2.1287 -1.4275
  208MOL     C133535   0.944   2.558   0.194 -0.5524 -0.9309 -0.4800
  208MOL     C233536   0.851   2.513   0.083 -0.4797 -0.4853  0.6948
  208MOL     N333537   0.737   2.438   0.139 -0.2912 -0.8025  0.1240
  208MOL     H433538   0.915   2.655   0.233 -3.6251 -2.1881  0.5883
  208MOL     H533539   1.047   2.555   0.161 -0.7624 -1.5662 -1.0919
  208MOL     H633540   0.907   2.441   0.023 -1.7452 -1.7448  0.9915
  208MOL     H733541   0.690   2.390   0.063 -0.8199 -1.3158  0.7699
  208MOL     H833542   0.752   2.363   0.205  1.3153 -1.4405 -0.9461
  208MOL     H933543   0.937   2.488   0.278  0.2416  2.5491  2.6448
  208MOL    C1033544   0.815   2.629   7.266  0.3217  0.5582 -0.3434
  208MOL    C1133545   0.938   2.711   7.221  0.2388  0.5851 -0.3692
  208MOL    N1233546   0.995   2.638   7.112  0.2166  0.7520  0.9023
  208MOL    H1333547   0.761   2.583   7.183  1.3872 -1.1607 -0.1204
  208MOL    H1433548   0.746   2.697   0.039  0.0406 -0.4331  0.6561
  208MOL    H1533549   1.009   2.727   0.026 -0.2575  2.6597 -0.3091
  208MOL    H1633550   1.077   2.674   7.065  0.4539  2.5962  2.6644
  208MOL    H1733551   0.923   2.639   7.041 -0.0422 -2.2387  1.0478
  208MOL    C1833552   0.902   2.858   7.173 -0.7041  0.3138  0.2084
  208MOL    C1933553   0.860   2.958   0.005 -0.1238 -0.2519  0.3041
  208MOL    N2033554   0.975   2.974   0.100  0.3110 -0.5495  0.0502
  208MOL    H2133555   0.982   2.905   7.115 -0.2597  2.1002  2.2070
  208MOL    H2233556   0.831   2.848   7.091  0.7822 -1.5053 -0.9153
  208MOL    H2333557   0.777   2.926   0.067  1.5516 -2.1879  1.6260
  208MOL    H2433558   1.046   3.032   0.057  0.2961 -1.1477 -0.7955
  208MOL    H2533559   1.022   2.886   0.112 -0.0879 -0.7733  0.0063
  208MOL    C2633560   0.833   3.096   7.213  0.8334  0.3420  0.3422
  208MOL    C2733561   0.706   3.101   7.130 -0.2105  0.6868 -0.4826
  208MOL    N2833562   0.603   3.178   7.202 -0.6939  0.8168  0.5435
  208MOL    H2933563   0.843   3.168   0.018  0.6507  0.6265  0.1092
  208MOL    H3033564   0.906   3.115   7.134 -0.3620  0.3457 -0.7864
  208MOL    H3133565   0.674   2.997   7.132 -0.6833  0.8250 -0.8054
  208MOL    H3233566   0.597   3.271   7.163 -1.5914  0.0744 -1.1767
  208MOL    H3333567   0.628   3.183   0.024  2.5475 -0.6436 -0.1448
  208MOL    C3433568   0.720   3.160   6.985  0.1733  0.2731 -0.3434
  208MOL    C3533569   0.758   3.053   6.875 -0.0900 -0.7595 -0.2788
  208MOL    N3633570   0.641   2.978   6.840  0.6029 -0.1062  0.6514
  208MOL    H3733571   0.629   3.210   6.953 -0.0081  0.7379  0.8850
  208MOL    H3833572   0.795   3.239   6.996  1.5912 -1.3722  2.1160
  208MOL    H3933573   0.837   2.986   6.909 -0.7047 -0.8125  1.0706
  208MOL    H4033574   0.663   2.898   6.783  0.4097 -0.7234  1.4429
  208MOL    H4133575   0.598   2.939   6.922 -2.9690  2.9493  0.3925
  208MOL    C4233576   0.820   3.126   6.755  0.8529  0.2643 -0.9644
  208MOL    C4333577   0.964   3.094   6.728  0.1462  0.3044  0.6440
  208MOL    N4433578   0.996   3.145   6.590  0.3795 -0.6775 -0.0887
  208MOL    H4533579   0.758   3.095   6.672 -1.2645 -1.0874  1.0563
  208MOL    H4633580   0.807   3.234   6.768  1.1110  0.4388 -2.1639
  208MOL    H4733581   0.963   2.986   6.712 -0.9253  0.2426  1.1301
  208MOL    H4833582   1.067   3.078   6.563  1.5052  0.5301 -0.1852
  208MOL    H4933583   0.917   3.119   6.532  1.0894  0.3387 -1.5286
  208MOL    C5033584   1.066   3.138   6.831 -0.1811 -0.1805  0.2195
  208MOL    C5133585   1.211   3.079   6.820 -0.7317 -0.0522  0.2414
  208MOL    N5233586   1.294   3.156   6.914 -0.1984 -0.1421 -0.1525
  208MOL    H5333587   1.057   3.246   6.821 -0.6151 -0.0562  1.8525
  208MOL    H5433588   1.030   3.107   6.929  1.3126 -2.6145  0.0505
  208MOL    H5533589   1.242   3.082   6.716  0.9503 -1.7365  0.6512
  208MOL    H5633590   1.290   3.257   6.904 -1.1649 -0.2765 -1.3128
  208MOL    H5733591   1.390   3.137   6.888  0.2697  0.3069  1.1894
  208MOL    C5833592   1.229   2.930   6.867  0.0623 -0.5810  0.5498
  208MOL    C5933593   1.350   2.853   6.809  0.3689  0.1516 -0.3654
  208MOL    N6033594   1.371   2.755   6.908 -0.5261 -0.2262  0.1239
  208MOL    H6133595   1.225   2.934   6.976 -0.4190  0.1918  0.5082
  208MOL    H6233596   1.143   2.878   6.827  0.1715 -1.3543  1.3038
  208MOL    H6333597   1.425   2.932   6.808  0.7605 -0.1747  1.3880
  208MOL    H6433598   1.440   2.686   6.879 -0.6770 -1.3229  2.2205
  208MOL    H6533599   1.419   2.804   6.982  0.6219  1.3502 -1.6048
  208MOL    C6633600   1.332   2.802   6.663  0.0858 -0.4317 -0.2662
  208MOL    C6733601   1.455   2.837   6.575  0.3548 -0.5305 -0.8109
  208MOL    N6833602   1.557   2.735   6.596 -0.3396 -0.1270  0.2144
  208MOL    H6933603   1.300   2.698   6.663 -0.1757 -0.3654 -1.4064
  208MOL    H7033604   1.249   2.862   6.625  1.0829  0.3086 -1.3372
  208MOL    H7133605   1.506   2.923   6.620  1.1053 -0.2663 -2.1355
  208MOL    H7233606   1.533   2.697   6.687 -1.9875  0.8642  0.2054
  208MOL    H7333607   1.529   2.659   6.536 -0.1900 -0.3351  0.4059
  208MOL    C7433608   1.433   2.864   6.421  0.5280 -0.1633 -0.3508
  208MOL    C7533609   1.368   3.011   6.394  0.0287  0.2648 -0.1957
  208MOL    N7633610   1.231   3.032   6.447 -0.0175  0.8171 -0.3535
  208MOL    H7733611   1.531   2.877   6.376  1.0912  1.2963  1.2642
  208MOL    H7833612   1.377   2.791   6.362  2.1158 -0.8827 -0.9797
  208MOL    H7933613   1.352   3.009   6.287  2.6505  1.7523 -0.6505
  208MOL    H8033614   1.165   3.034   6.371 -0.7259 -0.6167  0.2021
  208MOL    H8133615   1.229   3.117   6.501 -2.5473  0.9351 -0.5636
  208MOL    C8233616   1.458   3.132   6.435  0.2507 -0.7353 -0.6439
  208MOL    C8333617   1.445   3.252   6.342  0.1488  0.1444  0.2404
  208MOL    N8433618   1.447   3.380   6.401  1.0462 -0.1522  0.0790
  208MOL    H8533619   1.452   3.152   6.542 -2.0949 -1.3779 -0.6280
  208MOL    H8633620   1.559   3.093   6.427 -0.1727 -2.0619  0.3217
  208MOL    H8733621   1.341   3.253   6.308 -0.3233 -0.2085  1.6497
  208MOL    H8833622   1.372   3.391   6.468  3.1675 -2.9018  3.0262
  208MOL    H8933623   1.531   3.385   6.456  0.1940  0.9584  1.3302
  208MOL    C9033624   1.542   3.254   6.222  0.0975  0.5741 -0.5670
  208MOL    C9133625   1.499   3.166   6.103 -0.0546 -0.2712  0.0648
  208MOL    N9233626   1.366   3.197   6.062 -0.1705 -0.4759 -0.3423
  208MOL    H9333627   1.572   3.351   6.184  1.9017 -0.2907 -1.4612
  208MOL    H9433628   1.640   3.221   6.257 -0.9537  0.3121  2.2567
  208MOL    H9533629   1.505   3.062   6.134  0.3938  0.3947  2.3146
  208MOL    H9633630   1.354   3.296   6.076  1.7045 -0.4332  1.1896
  208MOL    H9733631   1.301   3.155   6.127  1.4915 -1.6745  0.6206
  208MOL    C9833632   1.592   3.192   5.979  1.2066  0.2540  0.2037
  208MOL    C9933633   1.743   3.166   6.002  0.4860  0.1758 -0.2176
  208MOL   N10033634   1.764   3.025   6.021  0.2175 -0.0823  0.1647
  208MOL   H10133635   1.575   3.126   5.894 -0.3129 -0.0028  0.7023
  208MOL   H10233636   1.584   3.290   5.932  0.5637  0.3302  0.4668
  208MOL   H10333637   1.768   3.211   6.098 -2.7416 -1.3411  1.4373
  208MOL   H10433638   1.813   2.991   5.940 -2.1186 -0.2181 -1.2321
  208MOL   H10533639   1.838   3.028   6.090 -0.2858  0.7266  0.6761
  208MOL   C10633640   1.832   3.214   5.886  0.2613 -0.6661 -0.2484
  208MOL   C10733641   1.892   3.352   5.884  0.2299 -0.0219  0.0367
  208MOL   N10833642   1.984   3.357   5.772  0.2194 -0.6392  0.2520
  208MOL   H10933643   1.917   3.148   5.867  1.2855  0.8017 -0.8619
  208MOL   H11033644   1.792   3.190   5.787 -2.0473  2.6190 -0.1662
  208MOL   H11133645   1.949   3.359   5.976 -1.2409 -0.7879  1.0343
  208MOL   H11233646   2.054   3.429   5.780 -0.3041 -0.1099  0.0379
  208MOL   H11333647   2.044   3.275   5.772  2.0438  0.6579  0.2018
  208MOL   C11433648   1.794   3.476   5.883 -0.0101 -0.0635  0.1211
  208MOL   C11533649   1.854   3.609   5.931  0.3270 -0.0944  0.2469
  208MOL   N11633650   1.763   3.712   5.899  0.0284  0.4377  0.8612
  208MOL   H11733651   1.758   3.489   5.781 -0.4954  1.5488  0.4718
  208MOL   H11833652   1.705   3.467   5.945 -0.2568 -0.2585 -0.2564
  208MOL   H11933653   1.950   3.622   5.880  0.5320 -1.7659  0.1635
  208MOL   H12033654   1.815   3.796   5.879 -0.5005  0.0760 -2.2498
  208MOL   H12133655   1.728   3.679   5.810  0.1236  2.5107  0.0324
  208MOL   C12233656   1.887   3.606   6.080  0.2822 -0.3131 -0.6693
  208MOL   C12333657   1.990   3.705   6.141  0.5688  0.2278 -0.2745
  208MOL   N12433658   1.948   3.739   6.274  0.4914 -0.4651  0.6468
  208MOL   H12533659   1.790   3.624   6.128  0.1797  0.1799 -1.0514
  208MOL   H12633660   1.903   3.503   6.111  2.1326  0.3801  0.7539
  208MOL   H12733661   1.984   3.798   6.085 -1.7549 -0.0853 -0.6067
  208MOL   H12833662   2.031   3.777   6.318 -0.3082  1.3084  0.6674
  208MOL   H12933663   1.883   3.816   6.267  0.8374 -0.1994  0.3173
  208MOL   C13033664   2.138   3.654   6.141 -0.3115  0.7906  0.1534
  208MOL   C13133665   2.215   3.703   6.015 -0.6324 -0.1540 -0.1000
  208MOL   N13233666   2.262   3.841   6.031  0.1476  0.3517 -0.4789
  208MOL   H13333667   2.193   3.678   6.232  0.1204 -1.6257  0.5506
  208MOL   H13433668   2.138   3.545   6.134 -0.6913  0.8103 -0.1592
  208MOL   H13533669   2.147   3.703   5.930 -0.4778  3.3138 -0.3175
  208MOL   H13633670   2.306   3.855   6.120  0.6973  2.2640 -1.0219
  208MOL   H13733671   2.179   3.898   6.031  0.0183  0.3528  4.7370
  208MOL   C13833672   2.336   3.612   5.987 -0.1872 -0.1402 -1.0861
  208MOL   C13933673   2.298   3.474   5.919  0.0351 -0.1112  0.3750
  208MOL   N14033674   2.258   3.519   5.787  0.3149  0.2831  0.3177
  208MOL   H14133675   2.409   3.665   5.927 -0.4091  1.7308  0.2479
  208MOL   H14233676   2.391   3.598   6.080 -0.0932  1.0517 -0.9531
  208MOL   H14333677   2.211   3.420   5.958 -0.8113 -0.1366 -1.5053
  208MOL   H14433678   2.256   3.448   5.715 -0.4930  1.6510 -1.0380
  208MOL   H14533679   2.311   3.598   5.751  0.5448 -0.1513 -0.2999
  208MOL   C14633680   2.415   3.388   5.887 -0.6182 -0.2029  0.1770
  208MOL   C14733681   2.410   3.260   5.803 -0.2229 -0.6502  0.9187
  208MOL   N14833682   2.543   3.198   5.791 -0.0382 -0.3357  0.3284
  208MOL   H14933683   2.483   3.454   5.832 -2.4872  0.7288 -1.0371
  208MOL   H15033684   2.469   3.357   5.977  4.7948  0.1250 -2.6938
  208MOL   H15133685   2.376   3.290   5.704 -0.3348 -2.0989  0.5030
  208MOL   H15233686   2.563   3.145   5.875  0.8895  2.2283  1.7802
  208MOL   H15333687   2.544   3.128   5.719 -0.1492 -3.4112  3.2027
  208MOL   C15433688   2.316   3.152   5.860  0.9316 -0.4872 -0.2655
  208MOL   C15533689   2.274   3.059   5.749 -0.3997  0.2975 -0.0102
  208MOL   N15633690   2.170   2.970   5.805 -0.0070  0.5760 -0.2168
  208MOL   H15733691   2.363   3.099   5.943 -0.0351 -1.3219 -0.2471
  208MOL   H15833692   2.232   3.210   5.900  0.4893  0.7873 -2.9496
  208MOL   H15933693   2.367   3.013   5.716 -0.8121 -1.3997  1.1365
  208MOL   H16033694   2.150   2.904   5.731  1.0182  0.7814 -0.6950
  208MOL   H16133695   2.217   2.924   5.882 -0.1038  3.5126  1.6946
  208MOL   H16233696   2.229   3.104   5.661  0.2335 -0.9819 -0.9961
  209MOL     C133697   4.605   6.014   5.444 -0.5574 -0.8756 -0.7219
  209MOL     C233698   4.619   6.123   5.331 -0.3217 -0.4822  0.4250
  209MOL     N333699   4.687   6.056   5.222  0.0116  0.4800  0.2410
  209MOL     H433700   4.564   6.061   5.534  1.5922  1.4897 -0.8959
  209MOL     H533701   4.698   5.966   5.475  0.3775  1.9384  1.1349
  209MOL     H633702   4.678   6.208   5.365  0.2258 -0.6304 -0.1368
  209MOL     H733703   4.774   6.026   5.263  1.2059  0.5249 -2.1406
  209MOL     H833704   4.713   6.115   5.144 -0.2764 -0.1675 -0.3525
  209MOL     H933705   4.537   5.936   5.411  0.6484 -2.1559 -0.2406
  209MOL    C1033706   4.481   6.171   5.285  0.1021  0.9731  0.3061
  209MOL    C1133707   4.418   6.266   5.390 -0.4591  0.5404 -0.4885
  209MOL    N1233708   4.491   6.384   5.428  0.0260 -0.1617 -0.1620
  209MOL    H1333709   4.493   6.221   5.189 -0.0462  0.1548 -0.1453
  209MOL    H1433710   4.420   6.084   5.259  1.4703  0.2421 -0.5485
  209MOL    H1533711   4.406   6.215   5.486 -1.2499 -0.9405 -1.3520
  209MOL    H1633712   4.473   6.456   5.360  0.5972 -0.1405 -0.2957
  209MOL    H1733713   4.448   6.426   5.510  0.0776 -0.9268  0.2627
  209MOL    C1833714   4.276   6.306   5.347  0.0774 -0.2966 -0.4714
  209MOL    C1933715   4.161   6.210   5.343 -0.6138 -0.4478 -0.1008
  209MOL    N2033716   4.041   6.260   5.415 -0.4665  0.0459  0.5928
  209MOL    H2133717   4.238   6.381   5.416  0.0908  1.0158 -1.8661
  209MOL    H2233718   4.280   6.360   5.253  0.1236 -1.5938 -1.2256
  209MOL    H2333719   4.205   6.122   5.389 -1.7277 -0.7783  0.3326
  209MOL    H2433720   3.951   6.216   5.400 -0.0330 -0.0600 -1.9925
  209MOL    H2533721   4.060   6.251   5.514  0.0009 -1.2751  0.3973
  209MOL    C2633722   4.125   6.177   5.201  0.5811 -0.1270  0.4240
  209MOL    C2733723   4.034   6.049   5.194  0.0992 -0.1870 -0.2055
  209MOL    N2833724   3.961   6.057   5.071  0.0423 -0.6037 -0.3851
  209MOL    H2933725   4.078   6.263   5.154 -1.7504 -0.7374  1.5686
  209MOL    H3033726   4.215   6.160   5.143  1.9017  1.6753  1.8897
  209MOL    H3133727   3.955   6.055   5.268 -0.4304  0.2771 -0.7982
  209MOL    H3233728   3.942   6.154   5.049  0.7350 -0.3315  0.1975
  209MOL    H3333729   4.024   6.022   5.000  1.9374 -0.2461  1.0664
  209MOL    C3433730   4.126   5.920   5.194 -0.0327  0.1501  0.4511
  209MOL    C3533731   4.060   5.789   5.222 -0.1900 -0.3719 -0.1181
  209MOL    N3633732   4.155   5.682   5.199 -0.6012 -0.0053  0.4094
  209MOL    H3733733   4.189   5.912   5.105  3.9527  0.2223  3.1423
  209MOL    H3833734   4.195   5.935   5.277 -0.5376  0.2739  0.8524
  209MOL    H3933735   3.976   5.775   5.154  0.1506  1.0770 -0.8643
  209MOL    H4033736   4.240   5.706   5.249 -0.2032 -0.8052  0.1369
  209MOL    H4133737   4.186   5.677   5.103  0.9459  0.6502  0.8605
  209MOL    C4233738   4.015   5.777   5.369  0.0633  0.5968 -0.6990
  209MOL    C4333739   3.907   5.662   5.378  0.4473 -0.0722 -0.3210
  209MOL    N4433740   3.973   5.538   5.375 -1.0411 -0.0454 -0.4968
  209MOL    H4533741   4.095   5.787   5.442 -1.5208  0.4675  1.1026
  209MOL    H4633742   3.968   5.873   5.393  2.0736  1.6130 -0.7031
  209MOL    H4733743   3.834   5.673   5.297 -0.6725 -2.6903  0.2909
  209MOL    H4833744   3.910   5.472   5.332  0.2347 -3.0047  1.9735
  209MOL    H4933745   4.053   5.547   5.315  1.6406 -0.6896  2.8341
  209MOL    C5033746   3.823   5.671   5.506  0.0777 -0.2652  0.1766
  209MOL    C5133747   3.739   5.799   5.527 -0.9013  0.3253  0.6964
  209MOL    N5233748   3.634   5.810   5.422 -0.3750  0.1787  0.1019
  209MOL    H5333749   3.767   5.582   5.533 -0.4242  0.5448  1.8355
  209MOL    H5433750   3.885   5.665   5.595 -0.6769 -2.6126  0.5867
  209MOL    H5533751   3.796   5.892   5.527 -2.4911  1.3321  1.8182
  209MOL    H5633752   3.606   5.906   5.438 -1.0462  0.4726 -2.7229
  209MOL    H5733753   3.671   5.809   5.329 -2.5925 -0.9712 -0.7913
  209MOL    C5833754   3.679   5.795   5.670 -0.3340  0.0969  0.4048
  209MOL    C5933755   3.778   5.845   5.786 -0.0534 -0.3955  0.1941
  209MOL    N6033756   3.757   5.992   5.790  0.2785 -0.2519 -0.2616
  209MOL    H6133757   3.581   5.844   5.671 -0.3288  0.1747 -1.6316
  209MOL    H6233758   3.665   5.688   5.686  1.4656  0.0338  1.6405
  209MOL    H6333759   3.883   5.831   5.759  0.5688  3.6971  0.0825
  209MOL    H6433760   3.686   6.015   5.858  0.9700 -0.3543  0.5035
  209MOL    H6533761   3.716   6.029   5.706  0.1245  0.2948  0.0499
  209MOL    C6633762   3.748   5.770   5.921 -0.1853 -0.2019  0.1352
  209MOL    C6733763   3.786   5.613   5.919  0.3416  0.8888  0.7729
  209MOL    N6833764   3.927   5.582   5.955  0.3228  0.3544  0.5210
  209MOL    H6933765   3.790   5.815   6.010 -2.1561  0.7112  0.6266
  209MOL    H7033766   3.642   5.796   5.922 -0.6071 -1.8858  1.0855
  209MOL    H7133767   3.774   5.565   5.822  2.1003  0.4616  0.7504
  209MOL    H7233768   3.930   5.483   5.940 -0.6977  0.5314 -0.9341
  209MOL    H7333769   3.981   5.627   5.882  0.3092  0.6219  0.6727
  209MOL    C7433770   3.693   5.538   6.021 -0.4537 -0.2989 -0.6190
  209MOL    C7533771   3.564   5.471   5.971  0.0007 -0.7956 -0.0575
  209MOL    N7633772   3.507   5.371   6.064 -0.6702 -0.5947 -0.1664
  209MOL    H7733773   3.752   5.464   6.076  1.3742  1.7785  0.3322
  209MOL    H7833774   3.654   5.607   6.096 -0.3334  0.3913 -1.1895
  209MOL    H7933775   3.594   5.415   5.882  1.8133 -0.5615  0.3717
  209MOL    H8033776   3.566   5.289   6.073  2.1766  1.2992 -0.8706
  209MOL    H8133777   3.505   5.409   6.158 -0.1324  0.4953 -0.5881
  209MOL    C8233778   3.452   5.574   5.931  1.0818 -0.2615 -0.0957
  209MOL    C8333779   3.336   5.508   5.847 -0.2319 -0.4844  0.1520
  209MOL    N8433780   3.217   5.487   5.928 -0.3338  0.5272 -0.3506
  209MOL    H8533781   3.424   5.634   6.017 -0.6251  0.0663 -0.8592
  209MOL    H8633782   3.505   5.643   5.866 -0.0851  0.8687  0.1333
  209MOL    H8733783   3.368   5.413   5.806 -3.8282 -2.5287  1.8091
  209MOL    H8833784   3.137   5.451   5.879 -0.3331 -1.5835  1.1665
  209MOL    H8933785   3.236   5.443   6.017  2.0914  0.2684 -0.9387
  209MOL    C9033786   3.287   5.603   5.730 -0.1645  0.7269  0.1740
  209MOL    C9133787   3.382   5.603   5.604 -0.7360 -0.0778 -0.0766
  209MOL    N9233788   3.412   5.469   5.573 -0.1400  0.4998 -0.1450
  209MOL    H9333789   3.190   5.565   5.698  1.0291 -1.2333 -1.2382
  209MOL    H9433790   3.278   5.700   5.777 -0.4515  0.7253  0.1218
  209MOL    H9533791   3.469   5.659   5.639 -0.1623 -1.6310  1.0461
  209MOL    H9633792   3.466   5.474   5.487 -1.0517 -1.9213 -0.9115
  209MOL    H9733793   3.473   5.422   5.639  0.9691  2.3471  0.1750
  209MOL    C9833794   3.313   5.667   5.482  0.1344 -0.0438 -0.4372
  209MOL    C9933795   3.251   5.805   5.495 -0.0115 -0.9408 -0.7131
  209MOL   N10033796   3.353   5.901   5.538 -0.1568  0.4042  0.6438
  209MOL   H10133797   3.393   5.674   5.408  0.7755  1.6931  0.4032
  209MOL   H10233798   3.230   5.602   5.454  0.2071 -1.4728  2.5487
  209MOL   H10333799   3.172   5.815   5.569  0.4603  3.2136 -0.6433
  209MOL   H10433800   3.444   5.860   5.525 -0.1636  0.6442 -0.1971
  209MOL   H10533801   3.340   5.908   5.638  2.1590 -0.1643  1.0128
  209MOL   C10633802   3.184   5.869   5.369 -0.0661  0.5091  0.6780
  209MOL   C10733803   3.049   5.805   5.320  0.4435  0.3353 -0.0427
  209MOL   N10833804   2.941   5.808   5.414 -0.1510  0.2066 -0.3847
  209MOL   H10933805   3.154   5.973   5.386  1.1912  1.1324 -0.8134
  209MOL   H11033806   3.260   5.863   5.291  1.3273  0.6100  2.0142
  209MOL   H11133807   3.077   5.701   5.306 -1.9576 -0.3187 -0.1361
  209MOL   H11233808   2.906   5.902   5.423  2.1137  1.1436 -1.0418
  209MOL   H11333809   2.972   5.769   5.502 -0.9914  1.8604  0.6715
  209MOL   C11433810   2.989   5.855   5.184  0.6132  0.4199 -1.1437
  209MOL   C11533811   3.063   5.805   5.064 -0.0519  0.2368 -0.0066
  209MOL   N11633812   3.039   5.664   5.050 -1.1644 -0.2633 -0.3438
  209MOL   H11733813   2.884   5.825   5.188  0.8297 -0.4274 -1.6305
  209MOL   H11833814   2.993   5.964   5.182 -0.4042  0.5551  1.6157
  209MOL   H11933815   3.171   5.817   5.080 -0.1741 -0.5165  1.3775
  209MOL   H12033816   3.019   5.632   4.956 -2.6904 -0.5953  0.0800
  209MOL   H12133817   2.957   5.644   5.105 -0.7411  0.1044  0.4255
  209MOL   C12233818   3.041   5.885   4.929  0.3071  0.0343 -0.6270
  209MOL   C12333819   3.157   5.884   4.835 -0.4948  0.4130  0.3428
  209MOL   N12433820   3.201   5.752   4.792  0.0349 -0.3355  0.0099
  209MOL   H12533821   2.950   5.851   4.877  0.6035 -2.1876  0.2518
  209MOL   H12633822   3.030   5.990   4.955 -3.6970 -0.6911  0.9343
  209MOL   H12733823   3.242   5.939   4.877 -1.7515  0.4866  2.8948
  209MOL   H12833824   3.301   5.756   4.791  0.0360  1.7820  2.1434
  209MOL   H12933825   3.179   5.688   4.867  1.6951 -2.6262 -1.3969
  209MOL   C13033826   3.110   5.946   4.703 -0.5414 -0.2807 -0.0709
  209MOL   C13133827   3.046   6.089   4.711  0.0575 -0.1581  0.0185
  209MOL   N13233828   3.151   6.181   4.761  0.0662  0.5213 -0.4754
  209MOL   H13333829   3.198   5.935   4.640 -0.9453 -1.0832 -0.5120
  209MOL   H13433830   3.035   5.879   4.660  0.0320  0.1269 -1.7205
  209MOL   H13533831   2.967   6.101   4.785  1.2405  0.9671  1.1346
  209MOL   H13633832   3.106   6.270   4.773  3.1875  2.1645 -0.4966
  209MOL   H13733833   3.187   6.155   4.851  1.6270 -0.1168 -1.2582
  209MOL   C13833834   3.009   6.142   4.571 -0.2028 -0.1930  0.3611
  209MOL   C13933835   2.883   6.069   4.510 -0.3930  0.1290 -0.2771
  209MOL   N14033836   2.778   6.171   4.527  0.2620 -0.1599  0.5022
  209MOL   H14133837   3.005   6.250   4.554  0.6952 -0.4417 -1.4754
  209MOL   H14233838   3.089   6.114   4.504  0.2378 -1.3155  1.3459
  209MOL   H14333839   2.846   5.980   4.559 -0.3403  0.3702  0.2085
  209MOL   H14433840   2.815   6.255   4.567  0.2362  0.8284 -1.4880
  209MOL   H14533841   2.713   6.132   4.594 -0.3545  0.9790  0.5690
  209MOL   C14633842   2.888   6.040   4.356  0.2220  0.1682  0.3211
  209MOL   C14733843   2.938   5.898   4.325  0.2354  0.2059 -0.1263
  209MOL   N14833844   2.915   5.886   4.177  0.0993  0.1364 -0.8368
  209MOL   H14933845   2.789   6.055   4.313  0.0556  0.2692  0.7368
  209MOL   H15033846   2.948   6.124   4.319 -0.5507  0.9239  0.7642
  209MOL   H15133847   2.865   5.833   4.373 -2.1622  2.4137 -0.6425
  209MOL   H15233848   2.942   5.792   4.150 -0.7651 -1.3068  2.9642
  209MOL   H15333849   2.974   5.947   4.124  0.9638 -0.4890 -0.5982
  209MOL   C15433850   3.078   5.861   4.361  0.4143  0.8770  0.2748
  209MOL   C15533851   3.101   5.710   4.388  0.0086 -0.0948 -0.0653
  209MOL   N15633852   3.220   5.699   4.467  0.0885  0.0924  0.2418
  209MOL   H15733853   3.146   5.902   4.286  0.9221 -0.0882  0.2000
  209MOL   H15833854   3.094   5.921   4.450  1.6676  0.5758  0.2622
  209MOL   H15933855   3.102   5.665   4.289 -1.9992 -2.2096  0.8394
  209MOL   H16033856   3.181   5.734   4.553 -0.7724 -1.2965  0.4227
  209MOL   H16133857   3.237   5.601   4.487 -1.4844  0.1180  1.9136
  209MOL   H16233858   3.026   5.659   4.448  1.9351 -2.8904  0.0283
  210MOL     C133859   1.460   2.054   5.098  0.1837  0.0270  0.5241
  210MOL     C233860   1.466   2.047   4.947  0.0656 -0.8326 -0.5994
  210MOL     N333861   1.583   2.136   4.901 -0.0922  0.2466  0.4855
  210MOL     H433862   1.437   2.150   5.144  2.2663  0.3503  0.9364
  210MOL     H533863   1.553   2.009   5.133 -0.7855 -2.3845  0.0903
  210MOL     H633864   1.372   2.098   4.923  1.1047  0.5255 -1.8240
  210MOL     H733865   1.663   2.076   4.918 -0.3934  0.0720  1.2973
  210MOL     H833866   1.571   2.124   4.801  0.2331  1.6782  0.2699
  210MOL     H933867   1.383   1.985   5.131  0.1538 -0.0145  0.3653
  210MOL    C1033868   1.481   1.907   4.885 -0.4100  0.4412 -0.2009
  210MOL    C1133869   1.354   1.843   4.823  0.5071  0.3499 -0.2781
  210MOL    N1233870   1.379   1.717   4.761  0.1210  0.5034  0.9312
  210MOL    H1333871   1.561   1.907   4.811 -1.2373 -0.2459 -1.0939
  210MOL    H1433872   1.515   1.839   4.963 -1.7834  0.5238  0.4778
  210MOL    H1533873   1.331   1.905   4.736 -2.0211  1.7052  1.2823
  210MOL    H1633874   1.469   1.713   4.715 -1.3199 -1.6572 -1.8854
  210MOL    H1733875   1.306   1.702   4.693 -0.1176  0.5900  1.1688
  210MOL    C1833876   1.241   1.830   4.921 -0.3367 -0.5342  0.4410
  210MOL    C1933877   1.109   1.804   4.854  0.4506 -0.1399 -0.7668
  210MOL    N2033878   1.008   1.750   4.949 -0.4497 -0.4847 -0.0086
  210MOL    H2133879   1.262   1.759   5.001  1.4670 -0.3974  0.1075
  210MOL    H2233880   1.231   1.928   4.969 -3.1392 -1.4091  1.7836
  210MOL    H2333881   1.124   1.736   4.770 -0.1932  1.8709 -2.5450
  210MOL    H2433882   1.053   1.668   4.987 -2.4598 -0.6899  2.0764
  210MOL    H2533883   0.925   1.726   4.897 -0.5372 -2.2132  0.8910
  210MOL    C2633884   1.045   1.929   4.791 -0.0700  0.1597  0.3645
  210MOL    C2733885   0.954   1.907   4.662 -0.2918 -0.1617  0.2789
  210MOL    N2833886   0.878   2.024   4.652 -0.6414  0.6580 -0.5589
  210MOL    H2933887   0.998   1.996   4.863  2.1405  1.8505  0.2597
  210MOL    H3033888   1.132   1.985   4.756 -0.7131  0.4255 -0.8458
  210MOL    H3133889   0.881   1.828   4.681 -2.1651  1.2293 -0.8563
  210MOL    H3233890   0.826   2.039   4.737  0.8537  0.5210  0.4052
  210MOL    H3333891   0.804   2.007   4.586 -2.2602 -2.4486  1.9476
  210MOL    C3433892   1.023   1.889   4.525  0.1713 -0.7084 -0.2148
  210MOL    C3533893   0.943   1.839   4.399 -0.2604  0.6000 -0.3307
  210MOL    N3633894   1.028   1.855   4.285  0.0223  0.2498 -0.6776
  210MOL    H3733895   1.079   1.975   4.488  0.3931 -1.4418 -1.6094
  210MOL    H3833896   1.105   1.824   4.556  0.9163  1.0248  1.5365
  210MOL    H3933897   0.855   1.900   4.383  0.2742  0.7780 -2.8825
  210MOL    H4033898   0.979   1.821   4.203 -0.4757 -0.4299 -0.1000
  210MOL    H4133899   1.022   1.952   4.259 -0.8769  0.3617 -0.0327
  210MOL    C4233900   0.922   1.685   4.428 -0.5317 -0.8539 -0.0633
  210MOL    C4333901   0.830   1.618   4.324  0.2634 -0.1547  0.1893
  210MOL    N4433902   0.834   1.475   4.338 -0.4951 -0.3262 -0.3210
  210MOL    H4533903   1.018   1.634   4.432 -0.9798 -1.9592 -2.3519
  210MOL    H4633904   0.884   1.669   4.528  0.4282 -0.7247  0.3263
  210MOL    H4733905   0.870   1.631   4.224 -2.0097  0.3574 -0.7005
  210MOL    H4833906   0.925   1.433   4.347 -0.7765 -0.5351  1.9163
  210MOL    H4933907   0.786   1.440   4.257 -0.0742 -1.5559 -0.0465
  210MOL    C5033908   0.686   1.676   4.335 -0.3549 -0.0669 -0.3774
  210MOL    C5133909   0.585   1.612   4.235  1.2318  1.0124  0.0465
  210MOL    N5233910   0.531   1.489   4.302  0.0094 -0.5215  0.4649
  210MOL    H5333911   0.651   1.674   4.438  1.5226  2.3137  0.3678
  210MOL    H5433912   0.684   1.778   4.295 -0.6375 -0.1429 -0.5580
  210MOL    H5533913   0.639   1.586   4.144  1.0639  2.0366 -0.3431
  210MOL    H5633914   0.586   1.419   4.254  1.0345  1.3993 -1.2834
  210MOL    H5733915   0.566   1.487   4.396  1.7127 -0.6915 -0.1518
  210MOL    C5833916   0.463   1.708   4.198  0.1701  0.2427  0.1000
  210MOL    C5933917   0.342   1.647   4.121 -0.2938  0.5082 -0.4305
  210MOL    N6033918   0.277   1.569   4.223 -0.9260 -0.2053  0.1892
  210MOL    H6133919   0.427   1.750   4.292 -0.7599  0.3627 -0.3118
  210MOL    H6233920   0.498   1.795   4.144  1.8958  0.2412  1.1779
  210MOL    H6333921   0.372   1.573   4.047  2.3679  2.0109 -0.9663
  210MOL    H6433922   0.348   1.522   4.277 -1.3828 -1.8056 -0.5757
  210MOL    H6533923   0.245   1.632   4.296  0.0059 -2.9660  3.0831
  210MOL    C6633924   0.248   1.752   4.063  0.3075  0.0492  0.4312
  210MOL    C6733925   0.305   1.836   3.946  0.7032 -0.4184  0.4460
  210MOL    N6833926   0.317   1.750   3.827 -0.0662  0.0283  0.4892
  210MOL    H6933927   0.144   1.726   4.041  0.0564  1.2704  0.1293
  210MOL    H7033928   0.247   1.827   4.142  4.3256 -0.4793  1.0529
  210MOL    H7133929   0.398   1.885   3.975  0.5684 -0.2234  0.5582
  210MOL    H7233930   0.390   1.779   3.764  0.6572 -1.6406  0.5601
  210MOL    H7333931   0.234   1.763   3.771 -0.2484  1.9357  1.1724
  210MOL    C7433932   0.199   1.946   3.907 -0.4460 -1.0907 -0.1059
  210MOL    C7533933   0.174   2.064   4.003 -0.0934 -0.1761  0.3525
  210MOL    N7633934   0.134   2.173   3.919  0.1543 -0.4092  0.5615
  210MOL    H7733935   0.238   1.987   3.814 -0.4204  0.8422  0.7318
  210MOL    H7833936   0.101   1.911   3.873 -1.4020  3.2800 -2.1891
  210MOL    H7933937   0.271   2.086   4.048  0.1237  2.0937 -1.1536
  210MOL    H8033938   0.039   2.159   3.889 -0.6063 -0.0430  2.7015
  210MOL    H8133939   0.189   2.174   3.835 -0.6878  0.1909  0.0041
  210MOL    C8233940   0.061   2.047   4.114  0.0546  0.0740 -0.4055
  210MOL    C8333941   7.229   1.947   4.088  0.4349  0.4442  0.4849
  210MOL    N8433942   7.195   1.884   4.213 -0.1145  0.3134 -0.0522
  210MOL    H8533943   0.105   2.022   4.211  0.2036 -0.1575 -0.5326
  210MOL    H8633944   0.006   2.136   4.142 -1.1528 -0.2143 -1.8645
  210MOL    H8733945   7.251   1.865   4.021 -2.6208  0.6977 -0.9160
  210MOL    H8833946   7.180   1.786   4.194 -2.0417  0.6329 -0.2040
  210MOL    H8933947   7.108   1.919   4.248  0.2057  1.2495 -0.1885
  210MOL    C9033948   7.092   2.008   4.033  0.2657  0.6960 -0.2678
  210MOL    C9133949   6.984   1.914   3.970 -0.1879 -0.0013  0.1961
  210MOL    N9233950   6.874   2.002   3.922 -0.2865 -0.0214  0.2223
  210MOL    H9333951   7.035   2.071   4.102  0.3916  2.4661 -1.7457
  210MOL    H9433952   7.117   2.082   3.958  0.5705  0.6218 -0.2369
  210MOL    H9533953   6.963   1.843   4.050  1.1268  0.6607  1.1516
  210MOL    H9633954   6.808   1.962   3.856 -3.3373  3.1465  1.2439
  210MOL    H9733955   6.809   2.015   3.998 -1.7024  1.4286 -1.1995
  210MOL    C9833956   7.042   1.845   3.848  0.1622  0.6644 -0.2178
  210MOL    C9933957   6.953   1.749   3.771 -0.3505 -0.4558  0.7277
  210MOL   N10033958   7.031   1.716   3.652 -0.1856 -0.0547  0.5137
  210MOL   H10133959   7.086   1.920   3.783  0.2776 -0.4430 -1.4138
  210MOL   H10233960   7.124   1.783   3.883 -1.6604 -1.4843  0.3429
  210MOL   H10333961   6.869   1.803   3.728  0.3814  0.0876 -0.0197
  210MOL   H10433962   7.119   1.679   3.684  0.2013  1.4785  1.2098
  210MOL   H10533963   6.985   1.636   3.610  2.0069  0.3483 -2.8531
  210MOL   C10633964   6.908   1.618   3.834  0.0172 -0.2665  0.9317
  210MOL   C10733965   6.791   1.599   3.940  0.5453  0.3794  0.4347
  210MOL   N10833966   6.661   1.560   3.878  0.5162 -0.3455 -0.1359
  210MOL   H10933967   6.882   1.551   3.752 -1.5524  0.2170  1.0176
  210MOL   H11033968   7.000   1.578   3.877  0.7374 -0.5946 -0.8502
  210MOL   H11133969   6.786   1.691   3.999 -1.5337  1.0212 -0.7068
  210MOL   H11233970   6.586   1.543   3.943  0.6292  1.2593  0.4468
  210MOL   H11333971   6.631   1.648   3.839 -3.0414 -0.9244  1.0454
  210MOL   C11433972   6.818   1.488   4.050  0.4616  0.5828 -0.6647
  210MOL   C11533973   6.903   1.552   4.165 -0.3984  0.1913  0.3348
  210MOL   N11633974   6.812   1.609   4.264  0.2468 -0.2687 -0.1566
  210MOL   H11733975   6.727   1.450   4.097  0.5075  2.1042  0.7139
  210MOL   H11833976   6.875   1.401   4.016  1.4636  0.0655  2.1388
  210MOL   H11933977   6.966   1.634   4.132  2.1786 -1.4638  0.9599
  210MOL   H12033978   6.774   1.534   4.320  0.3241 -0.7111 -0.6949
  210MOL   H12133979   6.862   1.662   4.333 -0.2079  0.1965 -0.1818
  210MOL   C12233980   7.005   1.462   4.239  0.2779  0.1786  0.1721
  210MOL   C12333981   7.142   1.429   4.167 -0.9296  0.5596  0.3369
  210MOL   N12433982   7.200   1.560   4.131  0.1013 -0.0742 -0.4204
  210MOL   H12533983   7.027   1.498   4.340  1.3314  1.9507 -0.6799
  210MOL   H12633984   6.952   1.367   4.250  1.4044 -0.4891  0.0037
  210MOL   H12733985   7.120   1.385   4.070 -0.1639 -1.0312  0.8771
  210MOL   H12833986   7.260   1.569   4.051 -0.9677  0.4870 -1.1681
  210MOL   H12933987   7.260   1.588   4.207  0.2160 -0.0372 -0.5234
  210MOL   C13033988   7.234   1.339   4.245  0.1528 -0.3921  0.1289
  210MOL   C13133989   0.031   1.232   4.160 -0.3823 -0.4588  0.1151
  210MOL   N13233990   0.173   1.261   4.166  0.2970  0.5441  0.0739
  210MOL   H13333991   0.033   1.407   4.286  1.1398  0.6453 -3.1960
  210MOL   H13433992   7.172   1.303   4.327  1.5739  0.0205  1.4010
  210MOL   H13533993   7.274   1.236   4.056  2.3399  0.7620 -0.7518
  210MOL   H13633994   0.186   1.229   4.261  1.9076  1.3964  0.1662
  210MOL   H13733995   0.163   1.362   4.166 -0.3168  0.5015  2.1532
  210MOL   C13833996   0.011   1.082   4.202  0.0337 -0.4507  0.0785
  210MOL   C13933997   7.142   1.033   4.207  0.7085  0.5389 -0.0416
  210MOL   N14033998   7.079   1.035   4.079  0.2540  0.0819 -0.6875
  210MOL   H14133999   0.072   1.017   4.138  0.7898 -1.1570  1.4981
  210MOL   H14234000   0.046   1.067   4.304 -0.8347 -1.4091  0.2409
  210MOL   H14334001   7.079   1.111   4.250  1.1662  1.3133 -0.7772
  210MOL   H14434002   7.091   1.128   4.041  0.4903 -0.1132 -1.0951
  210MOL   H14534003   7.133   0.973   4.020 -0.8249 -1.5022 -0.0592
  210MOL   C14634004   7.117   0.906   4.291  0.0552  0.7228  0.5239
  210MOL   C14734005   7.237   0.802   4.294 -0.0287  0.1154 -0.2115
  210MOL   N14834006   7.174   0.694   4.366  0.4199 -0.3886  0.3450
  210MOL   H14934007   7.090   0.932   4.393 -1.9281 -2.4345  0.8649
  210MOL   H15034008   7.021   0.870   4.256  0.3764  0.6097 -0.2510
  210MOL   H15134009   0.052   0.831   4.347 -0.1058 -0.3785  0.2012
  210MOL   H15234010   7.095   0.663   4.311  1.9423 -0.4233 -1.8754
  210MOL   H15334011   7.133   0.731   4.451  0.3428  1.5895 -0.5271
  210MOL   C15434012   7.275   0.741   4.158 -0.5769 -0.9090 -0.0066
  210MOL   C15534013   0.156   0.737   4.143 -0.1280  1.0600  0.2592
  210MOL   N15634014   0.189   0.667   4.015 -0.7104 -0.7934  0.4798
  210MOL   H15734015   7.229   0.642   4.150 -0.5058 -1.2736  3.2204
  210MOL   H15834016   7.224   0.800   4.082  2.4508  4.7565  2.1139
  210MOL   H15934017   0.207   0.669   4.211  0.3290  1.2909  0.1469
  210MOL   H16034018   0.288   0.680   4.002 -0.6374 -2.2113 -0.4574
  210MOL   H16134019   0.184   0.568   4.032 -2.7218 -1.0764 -1.4671
  210MOL   H16234020   0.205   0.834   4.145  1.6022  0.2959 -2.2721
  211MOL     C134021   3.153   5.835   3.868 -0.5684 -0.0442  0.0331
  211MOL     C234022   3.073   5.783   3.755  0.3079 -0.4059  0.1216
  211MOL     N334023   3.120   5.843   3.636 -0.0355  0.1519 -0.4273
  211MOL     H434024   3.255   5.851   3.834 -0.6351  2.0351  0.7195
  211MOL     H534025   3.137   5.767   3.952  1.0535  0.1713  0.5357
  211MOL     H634026   2.977   5.829   3.781  0.2768  0.2795 -1.1623
  211MOL     H734027   3.063   5.809   3.560 -0.5244 -0.6575  0.3091
  211MOL     H834028   3.212   5.815   3.605  0.6802  1.3795  0.5237
  211MOL     H934029   3.123   5.937   3.891 -3.7600 -1.2919  1.7117
  211MOL    C1034030   3.062   5.628   3.740 -0.4279 -0.3018 -0.0425
  211MOL    C1134031   2.952   5.577   3.644  0.0354  0.7950  0.6414
  211MOL    N1234032   2.999   5.591   3.508 -0.1380  0.6806 -0.1357
  211MOL    H1334033   3.148   5.577   3.698 -0.9856  0.8069 -2.5876
  211MOL    H1434034   3.045   5.594   3.843  2.1752 -0.7666  0.2717
  211MOL    H1534035   2.861   5.633   3.665  0.2746  1.2376  0.5086
  211MOL    H1634036   3.084   5.540   3.529 -0.2392  1.5832  2.5972
  211MOL    H1734037   2.942   5.529   3.453  0.0113 -0.1724  0.6570
  211MOL    C1834038   2.932   5.426   3.672 -0.2092 -0.6014  0.0226
  211MOL    C1934039   2.804   5.363   3.602  0.2513 -0.2227  0.1997
  211MOL    N2034040   2.809   5.213   3.626  0.4628  0.1194  0.2066
  211MOL    H2134041   3.029   5.380   3.652  0.3140  0.9877 -1.1749
  211MOL    H2234042   2.928   5.416   3.781 -0.3068 -0.4662  0.0319
  211MOL    H2334043   2.808   5.387   3.496  0.7461 -0.6715  0.1209
  211MOL    H2434044   2.788   5.188   3.722 -2.5654 -0.0774 -0.4301
  211MOL    H2534045   2.899   5.170   3.615 -0.1321 -1.1553  0.2106
  211MOL    C2634046   2.672   5.413   3.660  0.6142 -0.3335  0.3917
  211MOL    C2734047   2.651   5.408   3.810 -0.1209 -0.3616 -0.4155
  211MOL    N2834048   2.714   5.523   3.875 -0.0879 -0.5720 -0.8589
  211MOL    H2934049   2.645   5.510   3.618  2.0618 -0.3265 -0.5534
  211MOL    H3034050   2.591   5.351   3.622  1.1176  0.5907 -2.3047
  211MOL    H3134051   2.708   5.326   3.854 -0.5797 -0.1756  0.5569
  211MOL    H3234052   2.685   5.522   3.972  1.7009 -2.1917 -0.3053
  211MOL    H3334053   2.667   5.605   3.840  2.4059  1.6332  0.8136
  211MOL    C3434054   2.506   5.395   3.868 -0.1094  0.2397 -0.7808
  211MOL    C3534055   2.459   5.251   3.866  0.1360  0.0477 -0.0997
  211MOL    N3634056   2.533   5.159   3.947 -0.3384  0.3091  0.2343
  211MOL    H3734057   2.499   5.425   3.972 -1.6888 -1.2276 -0.4369
  211MOL    H3834058   2.444   5.459   3.806  0.3120  1.7183  0.3085
  211MOL    H3934059   2.487   5.210   3.768  1.7979 -0.1989  0.4510
  211MOL    H4034060   2.598   5.099   3.898  1.1643  2.3786 -0.3855
  211MOL    H4134061   2.459   5.096   3.970  1.7771 -1.5944  2.0987
  211MOL    C4234062   2.309   5.234   3.894  0.7257 -0.0963 -0.2633
  211MOL    C4334063   2.250   5.090   3.874  0.4445 -0.0428 -0.2460
  211MOL    N4434064   2.284   5.018   3.994 -0.3501 -0.2127  0.0265
  211MOL    H4534065   2.286   5.272   3.993  3.2787 -0.7351  0.6264
  211MOL    H4634066   2.259   5.290   3.815  0.5371  1.3954  0.8870
  211MOL    H4734067   2.301   5.037   3.793 -0.3132 -0.0901 -0.7054
  211MOL    H4834068   2.240   5.059   4.075 -0.6811 -0.9837  0.2358
  211MOL    H4934069   2.243   4.928   3.975  0.2508 -1.1494  2.8339
  211MOL    C5034070   2.095   5.092   3.847 -0.5719  0.1739  0.5610
  211MOL    C5134071   2.041   4.967   3.773  0.3716  0.3344  1.0325
  211MOL    N5234072   2.107   4.838   3.811  0.2119 -0.1886 -0.1256
  211MOL    H5334073   2.041   5.104   3.941  1.2976  1.9562  1.4387
  211MOL    H5434074   2.069   5.182   3.792 -2.1210 -0.3997  0.3408
  211MOL    H5534075   2.045   4.978   3.664 -2.2480 -2.0998  0.6073
  211MOL    H5634076   2.201   4.850   3.777 -0.2018  1.0426 -0.8669
  211MOL    H5734077   2.071   4.761   3.756 -3.2405 -0.1851  1.9457
  211MOL    C5834078   1.890   4.950   3.800  0.0114 -0.3195  0.9451
  211MOL    C5934079   1.799   5.021   3.692 -0.1064 -0.2326  0.6324
  211MOL    N6034080   1.749   4.928   3.595  0.0702 -0.1589 -0.0030
  211MOL    H6134081   1.864   4.844   3.801 -0.0561 -0.3930 -2.1452
  211MOL    H6234082   1.870   4.985   3.901  1.7550 -0.8978  1.5064
  211MOL    H6334083   1.856   5.088   3.628 -0.2570 -1.1218 -0.4276
  211MOL    H6434084   1.682   4.981   3.541  1.1997 -0.6479 -1.9572
  211MOL    H6534085   1.818   4.906   3.524  0.8637 -1.5005  1.1456
  211MOL    C6634086   1.685   5.110   3.760  0.1801 -0.3960 -0.3968
  211MOL    C6734087   1.742   5.246   3.813 -0.2387 -0.0751 -0.3379
  211MOL    N6834088   1.746   5.343   3.703 -0.1907 -0.3948 -0.3992
  211MOL    H6934089   1.617   5.144   3.682 -1.0716  0.8943  1.2195
  211MOL    H7034090   1.620   5.055   3.829 -1.8372  1.3495 -0.8639
  211MOL    H7134091   1.850   5.248   3.823 -0.3314 -1.0230  0.9615
  211MOL    H7234092   1.696   5.308   3.622 -3.3860  0.8287  0.9428
  211MOL    H7334093   1.842   5.347   3.673 -0.6041 -1.6232 -1.9918
  211MOL    C7434094   1.673   5.302   3.938 -0.3625 -0.5133 -0.7268
  211MOL    C7534095   1.696   5.225   4.069  0.0605  0.5324  0.2097
  211MOL    N7634096   1.839   5.208   4.093 -0.2326 -0.2726 -1.0337
  211MOL    H7734097   1.712   5.404   3.949  1.6326 -1.3570  0.3860
  211MOL    H7834098   1.568   5.312   3.913 -1.3050 -0.5229  2.9902
  211MOL    H7934099   1.658   5.123   4.060 -1.0679  0.4617  4.5670
  211MOL    H8034100   1.879   5.155   4.017 -0.2493 -2.0899  0.2026
  211MOL    H8134101   1.862   5.141   4.165  1.2732  1.7485  0.4226
  211MOL    C8234102   1.655   5.297   4.204 -0.3768  0.5696 -0.4401
  211MOL    C8334103   1.503   5.304   4.226  0.2801 -0.4028 -0.0502
  211MOL    N8434104   1.475   5.214   4.330 -0.4986 -1.0783  0.7120
  211MOL    H8534105   1.699   5.253   4.293  1.6215  0.2659 -1.5535
  211MOL    H8634106   1.691   5.400   4.207 -1.2102  0.8113  2.0778
  211MOL    H8734107   1.456   5.273   4.134  2.0243 -0.1393 -1.0504
  211MOL    H8834108   1.375   5.194   4.327 -0.3579 -1.7344 -0.0227
  211MOL    H8934109   1.494   5.270   4.411  2.4632  0.3564 -0.9149
  211MOL    C9034110   1.446   5.442   4.275 -0.1379  1.0030 -0.4727
  211MOL    C9134111   1.432   5.548   4.156  0.2959  0.1674  0.4631
  211MOL    N9234112   1.303   5.541   4.094  1.1548  0.2399  0.3873
  211MOL    H9334113   1.354   5.431   4.332  1.0675  0.3264  1.4208
  211MOL    H9434114   1.506   5.483   4.356 -0.5322 -2.2995  1.6195
  211MOL    H9534115   1.502   5.535   4.073  2.1497  0.6664  1.8984
  211MOL    H9634116   1.300   5.558   3.995 -0.3982 -0.4309  0.3036
  211MOL    H9734117   1.275   5.444   4.100 -0.6921  0.6496 -1.1700
  211MOL    C9834118   1.455   5.696   4.204  0.1338  0.3591  0.3085
  211MOL    C9934119   1.599   5.717   4.254  0.2346  0.8494  0.1133
  211MOL   N10034120   1.679   5.783   4.149 -0.3630 -0.1372 -0.0145
  211MOL   H10134121   1.431   5.758   4.118  0.4435  0.6374  0.4213
  211MOL   H10234122   1.376   5.727   4.273  1.3156  1.4343  1.1896
  211MOL   H10334123   1.640   5.616   4.257 -0.6077  0.5169  0.5518
  211MOL   H10434124   1.774   5.789   4.184 -0.5394  1.8737  0.2294
  211MOL   H10534125   1.678   5.732   4.062  2.2072  1.8428 -1.2798
  211MOL   C10634126   1.604   5.801   4.385 -0.6995 -0.1997 -0.0683
  211MOL   C10734127   1.523   5.747   4.500  0.4319  0.0223  0.5819
  211MOL   N10834128   1.620   5.664   4.574  0.4816 -0.0184 -0.3244
  211MOL   H10934129   1.706   5.808   4.422 -0.8706  1.0880  0.1685
  211MOL   H11034130   1.566   5.901   4.365 -0.0695  0.0577 -0.0120
  211MOL   H11134131   1.439   5.684   4.471  0.2628  1.2178 -1.6789
  211MOL   H11234132   1.558   5.607   4.628 -0.2966 -1.1775 -2.3928
  211MOL   H11334133   1.668   5.603   4.508  0.9417  0.9108 -0.8630
  211MOL   C11434134   1.472   5.862   4.590  0.0195 -0.0928  0.0935
  211MOL   C11534135   1.374   5.980   4.538 -0.5495 -0.0190  0.6557
  211MOL   N11634136   1.269   5.929   4.448 -0.6462  0.0327 -0.6030
  211MOL   H11734137   1.407   5.817   4.665 -3.4121  2.0818 -1.4685
  211MOL   H11834138   1.557   5.914   4.636  0.2879  0.9792 -1.5777
  211MOL   H11934139   1.440   6.049   4.486  0.3402 -0.5965  0.9905
  211MOL   H12034140   1.318   5.879   4.374 -2.8541 -1.9905 -0.7373
  211MOL   H12134141   1.226   6.016   4.418  1.0340  0.7522 -0.9898
  211MOL   C12234142   1.306   6.054   4.653 -0.7057  0.1407 -0.7425
  211MOL   C12334143   1.396   6.115   4.761 -0.5865 -0.7604  0.4527
  211MOL   N12434144   1.473   6.226   4.701  0.8861  0.7032 -0.2316
  211MOL   H12534145   1.236   6.128   4.615  0.5685  1.4824 -0.5014
  211MOL   H12634146   1.244   5.978   4.700 -1.7792  0.1419 -2.1269
  211MOL   H12734147   1.476   6.044   4.785 -0.5482 -0.2551  1.8604
  211MOL   H12834148   1.400   6.284   4.663 -0.5564 -0.0944  1.2465
  211MOL   H12934149   1.499   6.282   4.781  0.7412  0.9466 -0.3558
  211MOL   C13034150   1.320   6.163   4.887 -0.0292 -0.4882 -0.8628
  211MOL   C13134151   1.410   6.221   4.997 -0.3000  0.0019 -0.5609
  211MOL   N13234152   1.324   6.257   5.108  0.5414 -0.0053 -0.0370
  211MOL   H13334153   1.252   6.244   4.860 -1.3415 -1.6557 -1.1151
  211MOL   H13434154   1.260   6.081   4.925  1.9176 -1.2390  0.6421
  211MOL   H13534155   1.465   6.314   4.981 -0.9632  0.7223  1.1474
  211MOL   H13634156   1.363   6.303   5.188  0.9216 -0.3468 -0.0256
  211MOL   H13734157   1.275   6.181   5.153  0.4160 -0.3260 -0.7077
  211MOL   C13834158   1.498   6.110   5.058 -0.1074  0.2795 -0.1952
  211MOL   C13934159   1.609   6.131   5.157 -0.1144 -0.3456  0.4230
  211MOL   N14034160   1.661   5.998   5.172 -0.4336  0.5080  0.2441
  211MOL   H14134161   1.437   6.026   5.093  0.8526  0.0487  0.9497
  211MOL   H14234162   1.549   6.077   4.968 -1.1349  1.9765 -1.4203
  211MOL   H14334163   1.582   6.149   5.261  1.7666  1.7440  0.5995
  211MOL   H14434164   1.732   5.989   5.101 -0.7115 -4.0259  0.3973
  211MOL   H14534165   1.714   5.995   5.258  1.0025  1.6424 -0.5818
  211MOL   C14634166   1.723   6.225   5.111  0.0107  0.2645  0.2453
  211MOL   C14734167   1.709   6.377   5.117 -0.4083 -0.8471  0.0608
  211MOL   N14834168   1.694   6.411   5.258  0.0206 -0.2229  0.1306
  211MOL   H14934169   1.820   6.203   5.157  0.4474  0.9406 -0.3353
  211MOL   H15034170   1.726   6.206   5.004  1.9156  2.8196 -0.1989
  211MOL   H15134171   1.623   6.406   5.055  0.3985  1.4481 -0.0321
  211MOL   H15234172   1.666   6.508   5.266 -0.4640 -0.3830  0.4187
  211MOL   H15334173   1.613   6.360   5.290  1.5896 -2.0403  1.3397
  211MOL   C15434174   1.827   6.457   5.066  0.5743 -0.4778  0.8112
  211MOL   C15534175   1.863   6.432   4.919  0.4297 -0.6090 -0.7106
  211MOL   N15634176   1.983   6.511   4.887 -0.4176 -0.7941 -0.4624
  211MOL   H15734177   1.812   6.564   5.080  0.2289 -0.3733 -0.2848
  211MOL   H15834178   1.912   6.433   5.130 -1.0402 -0.8962  2.8304
  211MOL   H15934179   1.782   6.461   4.851 -0.3305  1.0329  0.8547
  211MOL   H16034180   1.971   6.592   4.828 -0.1976  0.6539  1.4439
  211MOL   H16134181   2.030   6.552   4.966 -1.2458 -0.8314  0.0606
  211MOL   H16234182   1.876   6.324   4.909 -1.8601 -1.3848  3.5429
  212MOL     C134183   4.496   0.662   5.104 -0.2682  0.1806  0.2583
  212MOL     C234184   4.564   0.782   5.171  0.5667  0.0554 -0.0176
  212MOL     N334185   4.487   0.807   5.288 -0.3569 -0.5488 -0.4072
  212MOL     H434186   4.531   0.634   5.005 -0.8430  1.0109 -0.1729
  212MOL     H534187   4.389   0.676   5.093 -0.5199 -0.7842  1.2617
  212MOL     H634188   4.553   0.860   5.096 -0.9507 -2.5480 -2.6080
  212MOL     H734189   4.444   0.716   5.293 -0.3153 -0.5303  0.4390
  212MOL     H834190   4.554   0.817   5.364 -0.8426 -2.6492  0.3433
  212MOL     H934191   4.515   0.565   5.152  1.9219  0.4233 -0.0634
  212MOL    C1034192   4.715   0.774   5.202 -0.5383  0.1649 -0.0891
  212MOL    C1134193   4.817   0.759   5.084  0.0187  0.1830  0.5041
  212MOL    N1234194   4.943   0.810   5.127 -0.1692 -0.5805 -0.3066
  212MOL    H1334195   4.747   0.869   5.244  0.8517 -0.5324  0.4463
  212MOL    H1434196   4.740   0.699   5.277 -0.3455 -2.3215 -2.5865
  212MOL    H1534197   4.787   0.827   5.004 -1.3113 -0.7488  0.2012
  212MOL    H1634198   4.917   0.907   5.138 -1.1007 -0.7479 -0.8961
  212MOL    H1734199   5.020   0.796   5.063  0.0934  2.3834 -0.7156
  212MOL    C1834200   4.837   0.615   5.031 -0.0240 -0.1902  0.3909
  212MOL    C1934201   4.872   0.604   4.883 -0.1570 -0.7492 -0.4137
  212MOL    N2034202   4.935   0.474   4.864  0.4121  0.4972 -0.8679
  212MOL    H2134203   4.917   0.563   5.084 -0.7253 -3.5741 -1.7235
  212MOL    H2234204   4.746   0.556   5.043 -0.7493  0.6837 -0.7499
  212MOL    H2334205   4.957   0.671   4.867 -2.1549  1.2785 -3.0711
  212MOL    H2434206   4.959   0.472   4.766  0.0794  2.9408 -1.0491
  212MOL    H2534207   5.027   0.469   4.904  0.0571  1.4972  0.1204
  212MOL    C2634208   4.757   0.642   4.787 -0.3157  0.1520  0.3893
  212MOL    C2734209   4.786   0.660   4.634 -0.4833 -0.4117 -0.2195
  212MOL    N2834210   4.666   0.620   4.558 -0.1457 -0.7599 -0.0287
  212MOL    H2934211   4.678   0.568   4.800 -0.4685  0.6752  2.5736
  212MOL    H3034212   4.718   0.737   4.824  1.1433  0.1799  1.9497
  212MOL    H3134213   4.861   0.587   4.606 -1.0137 -0.9455 -0.2721
  212MOL    H3234214   4.652   0.520   4.556 -0.3046 -0.7287 -0.5349
  212MOL    H3334215   4.647   0.653   4.464  2.5767  0.9950 -0.0098
  212MOL    C3434216   4.829   0.797   4.592 -0.0023  0.3294  0.1205
  212MOL    C3534217   4.957   0.865   4.655  0.5706  0.5907 -0.4511
  212MOL    N3634218   5.078   0.804   4.592  0.0244 -0.0966 -1.0575
  212MOL    H3734219   4.830   0.795   4.483  4.7683 -3.1815  0.0543
  212MOL    H3834220   4.742   0.859   4.610 -0.3439 -0.2324  0.4239
  212MOL    H3934221   4.959   0.855   4.763 -1.3695 -0.6846 -0.5006
  212MOL    H4034222   5.147   0.829   4.660  0.7575  0.9344 -2.1600
  212MOL    H4134223   5.097   0.843   4.501 -0.1505  1.1899 -0.5536
  212MOL    C4234224   4.939   1.017   4.627 -0.1434  0.0305 -0.9799
  212MOL    C4334225   4.893   1.099   4.743  0.2572 -0.1990 -0.1290
  212MOL    N4434226   4.931   1.238   4.723 -0.1691 -0.3928 -1.0025
  212MOL    H4534227   5.037   1.064   4.616  0.3428 -0.1777  1.9843
  212MOL    H4634228   4.894   1.049   4.533 -1.4141 -1.4028 -0.8816
  212MOL    H4734229   4.960   1.067   4.823 -0.7073 -0.5108  0.5658
  212MOL    H4834230   5.020   1.241   4.676 -0.4568  1.3318 -1.4657
  212MOL    H4934231   4.869   1.266   4.649 -1.9610  0.2231  0.6595
  212MOL    C5034232   4.740   1.086   4.775 -0.1958  0.4393  0.0842
  212MOL    C5134233   4.690   1.174   4.898  0.3448 -0.0087  0.1340
  212MOL    N5234234   4.541   1.166   4.907  0.0676 -0.7902  0.1724
  212MOL    H5334235   4.678   1.098   4.686 -0.7272 -1.0537  0.2472
  212MOL    H5434236   4.716   0.981   4.788  3.5686 -0.3484  1.2886
  212MOL    H5534237   4.721   1.277   4.879  0.3067  0.1803  1.0913
  212MOL    H5634238   4.507   1.072   4.921 -1.2569 -0.2333  0.7752
  212MOL    H5734239   4.513   1.204   4.997 -0.5981 -3.5504  1.1921
  212MOL    C5834240   4.752   1.131   5.028 -0.0101 -0.6373 -0.1782
  212MOL    C5934241   4.711   1.221   5.145 -0.0903 -0.0821  0.0163
  212MOL    N6034242   4.578   1.186   5.183  0.4951  0.9266 -0.4627
  212MOL    H6134243   4.728   1.025   5.037  0.5603 -0.6830  0.8950
  212MOL    H6234244   4.860   1.139   5.015 -0.3285  1.8179 -1.7370
  212MOL    H6334245   4.731   1.328   5.131  0.9143  0.1006  2.6064
  212MOL    H6434246   4.554   1.090   5.165  0.8289  0.6069  0.7685
  212MOL    H6534247   4.557   1.202   5.281  2.4717  2.3703 -0.2524
  212MOL    C6634248   4.803   1.188   5.271 -0.7203  0.6857  0.0813
  212MOL    C6734249   4.952   1.241   5.260  0.4182  0.3647 -0.3148
  212MOL    N6834250   4.983   1.327   5.373  0.3974  0.1537  0.2797
  212MOL    H6934251   4.744   1.233   5.351  3.3314  1.1609  2.9313
  212MOL    H7034252   4.804   1.081   5.289  0.5559  0.5775 -0.5897
  212MOL    H7134253   4.956   1.308   5.174  2.9933 -0.0890 -0.5945
  212MOL    H7234254   5.067   1.379   5.353 -0.3902  0.5618 -2.0733
  212MOL    H7334255   4.916   1.395   5.405  2.3386  0.9618  2.7701
  212MOL    C7434256   5.060   1.132   5.248 -0.3025  0.1045  0.5773
  212MOL    C7534257   5.194   1.177   5.193  0.5401 -0.1740  0.4239
  212MOL    N7634258   5.269   1.056   5.178 -0.2699 -0.2309 -0.3261
  212MOL    H7734259   5.069   1.076   5.341 -3.2428  1.3055  1.6589
  212MOL    H7834260   5.030   1.054   5.178 -0.9440  0.6557  0.2346
  212MOL    H7934261   5.240   1.243   5.266  0.9538 -0.2487  0.2321
  212MOL    H8034262   5.361   1.097   5.189 -0.1455 -0.7495  0.6236
  212MOL    H8134263   5.269   1.005   5.265  0.0537  0.2566 -0.0347
  212MOL    C8234264   5.173   1.252   5.055  0.0730 -0.2542 -0.7371
  212MOL    C8334265   5.290   1.272   4.960  0.2066 -0.4892  0.0189
  212MOL    N8434266   5.242   1.314   4.835 -0.2186 -0.4709 -0.2805
  212MOL    H8534267   5.091   1.207   4.999 -1.4621  0.7327  0.7129
  212MOL    H8634268   5.131   1.348   5.084  0.2073 -0.7801  1.3015
  212MOL    H8734269   5.348   1.181   4.944  0.7492 -0.4257  1.5104
  212MOL    H8834270   5.207   1.408   4.843 -0.3007 -0.6405  1.5921
  212MOL    H8934271   5.155   1.270   4.811 -1.3364  1.1639  0.6907
  212MOL    C9034272   5.386   1.384   5.008  0.2445  0.0907 -0.7807
  212MOL    C9134273   5.528   1.398   4.943  0.5889  0.0861  0.0215
  212MOL    N9234274   5.586   1.518   5.001 -0.2175 -0.6897  0.0238
  212MOL    H9334275   5.332   1.479   5.007  0.1335  0.0354 -0.3694
  212MOL    H9434276   5.401   1.350   5.111 -2.7147 -1.0655 -0.6782
  212MOL    H9534277   5.520   1.416   4.835 -2.2791  0.7930  0.3300
  212MOL    H9634278   5.523   1.594   4.977 -0.6166 -1.3216 -1.0010
  212MOL    H9734279   5.679   1.545   4.972 -0.8587  0.3662 -1.1246
  212MOL    C9834280   5.611   1.267   4.965 -0.9001 -0.0548  0.2132
  212MOL    C9934281   5.764   1.280   4.980 -0.5996 -0.3307  0.0415
  212MOL   N10034282   5.791   1.325   5.118 -0.5140 -0.0985  0.3118
  212MOL   H10134283   5.577   1.210   5.052 -0.7244 -0.0869  0.2599
  212MOL   H10234284   5.599   1.202   4.879 -0.4845 -0.5979  0.5656
  212MOL   H10334285   5.803   1.355   4.912  0.0513 -2.8802 -2.4677
  212MOL   H10434286   5.719   1.392   5.141  0.2648  1.1541 -0.8371
  212MOL   H10534287   5.877   1.378   5.123  0.4581 -1.6727  0.6532
  212MOL   C10634288   5.852   1.144   4.974 -0.8414 -0.1505  1.2454
  212MOL   C10734289   5.871   1.067   4.841  0.1177 -0.5552 -0.4792
  212MOL   N10834290   5.999   1.100   4.776  0.1939 -0.3633 -0.1704
  212MOL   H10934291   5.955   1.168   5.003 -0.9319 -0.0976  1.5225
  212MOL   H11034292   5.813   1.088   5.059 -0.1250  0.6783  2.1472
  212MOL   H11134293   5.790   1.097   4.774 -1.5497  3.1110  2.9932
  212MOL   H11234294   6.061   1.035   4.822 -1.9852 -0.9181  2.0778
  212MOL   H11334295   6.003   1.059   4.684 -1.1347  0.0574 -0.4278
  212MOL   C11434296   5.873   0.915   4.858  0.5078  0.0659 -0.5574
  212MOL   C11534297   5.731   0.841   4.873 -0.4649  0.0750  0.5861
  212MOL   N11634298   5.749   0.700   4.842  0.0395 -0.0061 -0.0304
  212MOL   H11734299   5.905   0.881   4.759  0.1810 -1.4939 -0.1468
  212MOL   H11834300   5.943   0.881   4.935  0.5257 -1.0269 -1.0381
  212MOL   H11934301   5.680   0.882   4.786  1.8580  0.8835 -0.4371
  212MOL   H12034302   5.658   0.661   4.822 -0.1752 -0.1211  1.1003
  212MOL   H12134303   5.793   0.690   4.752  1.3321  1.3087  0.4372
  212MOL   C12234304   5.667   0.860   5.011 -0.4077 -0.1414  0.6267
  212MOL   C12334305   5.533   0.794   5.040  0.6309  0.4590  0.2102
  212MOL   N12434306   5.488   0.836   5.175 -0.0468 -0.2258 -0.4569
  212MOL   H12534307   5.731   0.822   5.091  1.5675 -0.0693 -0.8961
  212MOL   H12634308   5.650   0.966   5.030  0.8752  0.0541  0.6984
  212MOL   H12734309   5.545   0.686   5.032 -0.5676  0.4024 -1.0807
  212MOL   H12834310   5.480   0.756   5.237 -1.9774  0.4337  0.1664
  212MOL   H12934311   5.393   0.869   5.171  0.3522  1.0943  0.6620
  212MOL   C13034312   5.422   0.852   4.947 -0.8675 -0.2806 -0.2382
  212MOL   C13134313   5.284   0.791   4.948 -0.1283 -0.4047  0.0709
  212MOL   N13234314   5.199   0.893   4.886 -0.2428  0.1226  0.0526
  212MOL   H13334315   5.413   0.955   4.980  0.8970 -0.3708  0.6107
  212MOL   H13434316   5.459   0.861   4.845  0.5802 -0.4184  0.2509
  212MOL   H13534317   5.236   0.770   5.044 -0.2397 -1.1410 -0.1446
  212MOL   H13634318   5.231   0.913   4.792  1.1886  1.7043  0.8732
  212MOL   H13734319   5.184   0.979   4.937 -1.7982  0.6445 -1.2358
  212MOL   C13834320   5.272   0.659   4.869  0.6633 -0.0407  0.1416
  212MOL   C13934321   5.303   0.524   4.944 -0.0870 -0.5891  0.4223
  212MOL   N14034322   5.192   0.504   5.028 -0.3367  0.1162  0.1218
  212MOL   H14134323   5.178   0.653   4.815  0.9906 -1.7551 -0.2753
  212MOL   H14234324   5.356   0.649   4.800  0.3556 -4.4079  0.2585
  212MOL   H14334325   5.392   0.535   5.007 -0.6618  1.6317  0.8614
  212MOL   H14434326   5.149   0.592   5.051 -0.4052 -0.2270  1.3556
  212MOL   H14534327   5.222   0.468   5.118 -0.9127 -1.0193 -0.1256
  212MOL   C14634328   5.321   0.404   4.854  0.5422  0.0530  0.3330
  212MOL   C14734329   5.464   0.392   4.785 -0.2990  0.1028  0.4458
  212MOL   N14834330   5.530   0.280   4.848  0.2124 -0.5010 -0.8833
  212MOL   H14934331   5.298   0.320   4.919  0.2626 -0.5840 -0.5751
  212MOL   H15034332   5.242   0.387   4.780  0.1692 -0.6063  0.8831
  212MOL   H15134333   5.522   0.482   4.804  1.3980 -1.0652  0.8477
  212MOL   H15234334   5.629   0.289   4.827  0.4829  1.0059  0.9181
  212MOL   H15334335   5.502   0.191   4.808  2.1071 -2.6685  2.4070
  212MOL   C15434336   5.449   0.381   4.630  0.1036 -0.1752 -0.3674
  212MOL   C15534337   5.418   0.518   4.560 -0.6482  0.0476  0.2052
  212MOL   N15634338   5.379   0.489   4.425 -0.0780 -0.4009  0.6782
  212MOL   H15734339   5.540   0.341   4.585 -0.2829  0.2436 -1.5245
  212MOL   H15834340   5.372   0.306   4.613 -1.3265  0.3827  3.0922
  212MOL   H15934341   5.501   0.587   4.572  0.1295 -0.6357 -1.2149
  212MOL   H16034342   5.293   0.437   4.415  0.1087 -0.4489 -0.8039
  212MOL   H16134343   5.359   0.575   4.376 -0.8186 -1.0794 -0.2091
  212MOL   H16234344   5.331   0.564   4.607 -0.3711 -0.4325  1.1990
  213MOL     C134345   4.499   1.914   1.608 -0.5876  0.4622 -0.0009
  213MOL     C234346   4.439   1.951   1.472  0.5104  0.5720 -0.3654
  213MOL     N334347   4.403   2.103   1.478 -0.0533 -0.5982 -0.4034
  213MOL     H434348   4.518   1.806   1.615  2.1147  0.7821 -1.6615
  213MOL     H534349   4.425   1.941   1.683 -0.5225 -0.5763  0.4484
  213MOL     H634350   4.344   1.902   1.451 -0.2244  1.1479  1.5117
  213MOL     H734351   4.368   2.122   1.385 -1.0317 -2.0591 -0.3363
  213MOL     H834352   4.325   2.125   1.537 -0.4834 -1.2353 -0.7336
  213MOL     H934353   4.596   1.959   1.627 -1.3277  1.1589  2.2445
  213MOL    C1034354   4.530   1.922   1.349  0.5136  0.2007 -0.6658
  213MOL    C1134355   4.516   1.781   1.279  0.4423 -0.1730 -0.4211
  213MOL    N1234356   4.561   1.791   1.139  0.5290  0.1284 -0.9916
  213MOL    H1334357   4.487   1.983   1.270 -2.2502  0.0914  0.6994
  213MOL    H1434358   4.633   1.956   1.359  0.8623 -1.2921  1.2820
  213MOL    H1534359   4.408   1.763   1.273  0.6478 -1.6544  0.2950
  213MOL    H1634360   4.492   1.841   1.084 -0.4640 -1.6746 -1.4300
  213MOL    H1734361   4.547   1.695   1.109  1.4636  0.1607 -1.5328
  213MOL    C1834362   4.577   1.657   1.358  1.1042  0.1524 -0.6474
  213MOL    C1934363   4.501   1.531   1.373  0.5624 -0.6689 -0.4661
  213MOL    N2034364   4.594   1.431   1.429  0.2167 -0.4403 -0.0277
  213MOL    H2134365   4.667   1.622   1.306 -0.5843 -2.2398 -2.0478
  213MOL    H2234366   4.623   1.694   1.450 -1.7526  0.9675  0.5007
  213MOL    H2334367   4.471   1.526   1.269 -1.8141 -0.7888  0.2086
  213MOL    H2434368   4.649   1.470   1.504  2.5217  1.9912 -2.8974
  213MOL    H2534369   4.554   1.348   1.472 -1.8996  0.2228 -0.6578
  213MOL    C2634370   4.375   1.550   1.463  0.0643  0.3447  0.4343
  213MOL    C2734371   4.288   1.416   1.474  0.7579 -0.2149 -0.5776
  213MOL    N2834372   4.238   1.410   1.609  0.0626  0.5085  0.4741
  213MOL    H2934373   4.413   1.576   1.562 -0.5635  2.2374  0.1851
  213MOL    H3034374   4.319   1.643   1.454  0.9408  1.3122  4.2034
  213MOL    H3134375   4.348   1.325   1.476 -1.1169 -1.4846 -0.7080
  213MOL    H3234376   4.162   1.477   1.608 -0.6377 -0.2982 -0.8249
  213MOL    H3334377   4.305   1.434   1.681  0.4799 -0.7081  0.4981
  213MOL    C3434378   4.183   1.402   1.360  0.7699  0.3670  0.0571
  213MOL    C3534379   4.098   1.276   1.356 -0.1182  0.6306 -0.1647
  213MOL    N3634380   3.980   1.285   1.261  0.1021  0.5057  0.2338
  213MOL    H3734381   4.126   1.495   1.363 -0.6044 -0.4874  0.8720
  213MOL    H3834382   4.240   1.415   1.268  2.6713  2.0303  1.4123
  213MOL    H3934383   4.055   1.265   1.456 -3.3439  1.7283 -1.3512
  213MOL    H4034384   3.900   1.301   1.321  1.1665  2.4881  1.1834
  213MOL    H4134385   3.960   1.190   1.232 -1.3989  1.2599 -1.3140
  213MOL    C4234386   4.189   1.156   1.302  0.9714 -0.1093  0.2893
  213MOL    C4334387   4.124   1.013   1.305 -1.0331  0.3793  0.0469
  213MOL    N4434388   4.223   0.933   1.241  0.0946 -0.3949 -0.3079
  213MOL    H4534389   4.214   1.180   1.199  0.3391 -1.1763 -0.1165
  213MOL    H4634390   4.290   1.158   1.344  1.7260  1.5515 -1.5294
  213MOL    H4734391   4.046   1.015   1.229  1.1415  2.0932 -2.2320
  213MOL    H4834392   4.246   0.966   1.148  0.9080 -0.9540 -0.3117
  213MOL    H4934393   4.184   0.841   1.223 -1.4973  0.4148 -1.1133
  213MOL    C5034394   4.086   0.951   1.443  0.1270 -0.1053  0.2914
  213MOL    C5134395   4.001   0.821   1.436 -0.0332 -0.1330 -0.5457
  213MOL    N5234396   4.047   0.742   1.550  0.7880  0.3739 -0.4759
  213MOL    H5334397   4.186   0.923   1.476 -0.8408 -2.4956  1.3299
  213MOL    H5434398   4.044   1.026   1.510  0.5755  0.0150  0.4398
  213MOL    H5534399   4.038   0.764   1.351  2.2594  0.2531  0.1742
  213MOL    H5634400   4.148   0.744   1.556  0.8355 -0.0506 -1.0769
  213MOL    H5734401   4.026   0.646   1.528 -1.6144 -0.0910  3.2488
  213MOL    C5834402   3.847   0.843   1.458 -0.7568 -0.6328  0.5149
  213MOL    C5934403   3.802   0.940   1.349 -0.2713 -0.7276 -0.1917
  213MOL    N6034404   3.835   0.876   1.221  0.0172  0.3895 -0.3330
  213MOL    H6134405   3.791   0.750   1.456 -3.6151  1.0190  0.2021
  213MOL    H6234406   3.844   0.884   1.559 -0.4543  2.5275 -0.6946
  213MOL    H6334407   3.864   1.030   1.358 -0.5288 -0.8606  3.9262
  213MOL    H6434408   3.779   0.795   1.204 -0.1690 -0.0154  2.0509
  213MOL    H6534409   3.806   0.948   1.156 -0.0553 -0.3704 -1.1445
  213MOL    C6634410   3.655   0.981   1.348  0.7278  0.1958 -0.6079
  213MOL    C6734411   3.580   1.031   1.479  0.1634  0.3976 -0.1522
  213MOL    N6834412   3.574   1.178   1.471 -0.5639 -0.3973  0.3017
  213MOL    H6934413   3.645   1.062   1.276  2.1528  1.5842  0.7149
  213MOL    H7034414   3.594   0.906   1.296  0.2933 -0.4473  0.7874
  213MOL    H7134415   3.639   1.009   1.568 -1.0804 -0.6598  0.4262
  213MOL    H7234416   3.667   1.207   1.499 -0.6422 -1.1820  1.4243
  213MOL    H7334417   3.544   1.211   1.381 -1.2314 -1.7642  0.0197
  213MOL    C7434418   3.428   0.980   1.488 -0.1456 -0.0861  0.3848
  213MOL    C7534419   3.416   0.853   1.571 -0.0135  0.0295  0.2913
  213MOL    N7634420   3.272   0.835   1.597 -0.3911  0.4579  0.2808
  213MOL    H7734421   3.376   1.061   1.539 -2.0583 -1.0292 -0.0486
  213MOL    H7834422   3.373   0.975   1.395 -0.7178 -0.4226  0.7353
  213MOL    H7934423   3.457   0.874   1.670 -1.3094 -2.3179  1.3829
  213MOL    H8034424   3.251   0.899   1.672  1.2180  1.1616  0.1652
  213MOL    H8134425   3.256   0.746   1.642 -0.2944 -0.0021 -0.5810
  213MOL    C8234426   3.475   0.728   1.507 -0.2281 -0.7787  0.4272
  213MOL    C8334427   3.481   0.612   1.606 -0.1161 -0.1501  0.0055
  213MOL    N8434428   3.536   0.506   1.521  0.1869 -0.1871 -0.3577
  213MOL    H8534429   3.403   0.683   1.439  0.1370 -1.5874  0.5735
  213MOL    H8634430   3.570   0.755   1.460 -1.7859  0.0163 -2.3739
  213MOL    H8734431   3.381   0.584   1.636  0.3652 -0.5740  1.2306
  213MOL    H8834432   3.620   0.537   1.474 -0.2012 -1.4564 -1.9269
  213MOL    H8934433   3.476   0.513   1.440  0.4991 -3.1519 -0.8939
  213MOL    C9034434   3.579   0.630   1.729  0.1868  0.7078  0.0703
  213MOL    C9134435   3.520   0.684   1.856 -0.2750 -0.3871 -0.4347
  213MOL    N9234436   3.465   0.571   1.941  0.4255 -0.2483  0.3058
  213MOL    H9334437   3.609   0.528   1.755  1.4438  1.2254  0.7266
  213MOL    H9434438   3.666   0.689   1.698  0.7460 -0.4521 -0.6244
  213MOL    H9534439   3.436   0.744   1.821  0.0753  1.1239  1.2187
  213MOL    H9634440   3.399   0.613   2.005 -0.0528 -0.7207  0.1250
  213MOL    H9734441   3.422   0.504   1.879  1.0386 -0.3471 -0.0183
  213MOL    C9834442   3.607   0.778   1.944 -0.5583  0.1532  0.1228
  213MOL    C9934443   3.650   0.910   1.880 -0.8812  0.0209 -0.6933
  213MOL   N10034444   3.533   1.001   1.900 -0.1185  0.1486  0.2690
  213MOL   H10134445   3.556   0.786   2.040 -2.2940  3.7096 -1.0093
  213MOL   H10234446   3.697   0.717   1.954 -0.3066  0.6737  1.1370
  213MOL   H10334447   3.655   0.896   1.772 -0.6998 -0.3564 -0.6348
  213MOL   H10434448   3.510   1.009   1.998  0.1738  1.3029  0.2548
  213MOL   H10534449   3.534   1.090   1.853  0.6661  0.1426  0.2621
  213MOL   C10634450   3.769   0.976   1.951 -0.0484  0.1368  0.5541
  213MOL   C10734451   3.913   0.917   1.925 -0.3621 -0.3385  0.8091
  213MOL   N10834452   3.959   0.976   1.800  0.2782 -0.0736 -0.0185
  213MOL   H10934453   3.766   1.080   1.921 -1.1212 -0.6852 -2.3681
  213MOL   H11034454   3.759   0.970   2.059 -3.1382  2.5775  0.4528
  213MOL   H11134455   3.899   0.813   1.896 -0.0195 -0.5804  1.5015
  213MOL   H11234456   3.956   0.905   1.728  2.3608 -1.6172  1.3642
  213MOL   H11334457   4.057   0.990   1.821 -0.0823 -1.6472  2.9150
  213MOL   C11434458   4.004   0.947   2.044 -0.2631  0.1306  0.2798
  213MOL   C11534459   4.003   0.831   2.145  0.7941  0.6940  0.2913
  213MOL   N11634460   4.135   0.813   2.195  0.4535  0.4333  0.4718
  213MOL   H11734461   4.106   0.958   2.008  0.2754 -0.6600  1.5332
  213MOL   H11834462   3.977   1.044   2.086 -1.8854  0.3204 -1.1236
  213MOL   H11934463   3.971   0.736   2.102 -2.8703  1.1642  1.8165
  213MOL   H12034464   4.169   0.908   2.208  0.1877  0.5572  0.2506
  213MOL   H12134465   4.133   0.782   2.291  0.7919 -1.3112 -0.0704
  213MOL   C12234466   3.912   0.838   2.274 -0.4094  0.5706  0.9615
  213MOL   C12334467   3.908   0.707   2.353  0.5939 -0.2081 -0.5271
  213MOL   N12434468   3.859   0.743   2.483  0.2592 -0.1482 -0.1449
  213MOL   H12534469   3.929   0.935   2.323  4.0589  1.2409 -1.6172
  213MOL   H12634470   3.811   0.838   2.233 -0.9121  4.1671  1.9588
  213MOL   H12734471   4.005   0.673   2.390 -0.5279 -1.6017  1.1489
  213MOL   H12834472   3.854   0.655   2.533  3.1936 -1.4241 -1.9166
  213MOL   H12934473   3.938   0.788   2.528 -0.8294  2.8018 -1.0948
  213MOL   C13034474   3.838   0.580   2.303  0.4066 -0.4660 -0.7406
  213MOL   C13134475   3.688   0.585   2.273  0.3860  0.2307 -0.3065
  213MOL   N13234476   3.651   0.482   2.179 -0.5266 -0.8011  0.1550
  213MOL   H13334477   3.885   0.526   2.222  0.3377  0.5550 -1.4759
  213MOL   H13434478   3.848   0.502   2.378 -0.2727 -1.2746 -1.4798
  213MOL   H13534479   3.679   0.687   2.236 -0.7152  0.3043  0.1586
  213MOL   H13634480   3.719   0.478   2.105 -0.0699 -1.2514  0.5908
  213MOL   H13734481   3.567   0.519   2.138 -0.7954 -2.0690 -0.4717
  213MOL   C13834482   3.604   0.574   2.406  0.0733  0.7611 -0.1939
  213MOL   C13934483   3.454   0.592   2.392 -1.4360 -0.2824 -0.4604
  213MOL   N14034484   3.382   0.566   2.513 -0.5982 -0.5405 -0.1323
  213MOL   H14134485   3.620   0.478   2.455  1.5718  0.2290 -1.6877
  213MOL   H14234486   3.632   0.662   2.464  0.4415  0.2906  0.3360
  213MOL   H14334487   3.431   0.512   2.322  1.3183 -0.1921 -1.5451
  213MOL   H14434488   3.372   0.657   2.555 -1.5768  0.5220 -2.6027
  213MOL   H14534489   3.287   0.545   2.489 -1.0891 -0.0632  1.3514
  213MOL   C14634490   3.402   0.723   2.335  0.7309  0.0247 -0.4649
  213MOL   C14734491   3.247   0.746   2.333  0.3150 -0.4157  0.5464
  213MOL   N14834492   3.234   0.877   2.266 -0.3818  1.0430 -0.5324
  213MOL   H14934493   3.435   0.808   2.396 -1.0337  1.0948 -0.9800
  213MOL   H15034494   3.438   0.736   2.233  3.3027 -0.6607  0.3149
  213MOL   H15134495   3.194   0.744   2.428  0.6979 -1.9085  0.7410
  213MOL   H15234496   3.233   0.851   2.169  0.1336  0.4732 -0.3906
  213MOL   H15334497   3.143   0.918   2.282 -1.0960 -1.2287  1.5897
  213MOL   C15434498   3.182   0.643   2.241 -0.2654 -0.2984 -0.0159
  213MOL   C15534499   3.117   0.521   2.306  0.3036 -0.2227 -0.1404
  213MOL   N15634500   3.041   0.444   2.218 -0.1862 -0.9113 -0.7150
  213MOL   H15734501   3.090   0.688   2.204 -1.4459 -3.1145 -0.6973
  213MOL   H15834502   3.253   0.620   2.162  1.1734  2.7118  0.3226
  213MOL   H15934503   3.053   0.555   2.387  0.0338  1.1987 -0.9431
  213MOL   H16034504   3.103   0.420   2.141 -0.9800 -1.3222 -1.2267
  213MOL   H16134505   3.026   0.357   2.267  1.3257 -2.8927 -3.5883
  213MOL   H16234506   3.202   0.471   2.352  0.5109  0.2686  0.0098
  214MOL     C134507   2.977   5.917   5.735  0.3783 -0.5638 -0.6185
  214MOL     C234508   3.057   5.866   5.858 -0.0140  0.8640 -0.4009
  214MOL     N334509   3.178   5.941   5.866 -0.3707 -0.2695 -0.2893
  214MOL     H434510   3.046   5.944   5.655 -0.0708 -2.8045 -1.7967
  214MOL     H534511   2.909   6.000   5.754  1.0264 -0.3767  0.8859
  214MOL     H634512   3.080   5.761   5.838  0.8644  1.0431 -0.3690
  214MOL     H734513   3.165   6.025   5.922  2.4799 -1.2582  1.9879
  214MOL     H834514   3.237   5.892   5.932 -2.6308 -1.0473  1.2325
  214MOL     H934515   2.910   5.837   5.704  0.2935 -1.0294  0.7630
  214MOL    C1034516   2.998   5.870   6.003 -0.0032 -0.4642 -0.6253
  214MOL    C1134517   2.863   5.787   6.023 -0.3051 -0.2905  0.1871
  214MOL    N1234518   2.889   5.650   6.011 -0.2925 -0.1524  0.3530
  214MOL    H1334519   3.070   5.837   6.078  0.9310 -2.5309 -2.3653
  214MOL    H1434520   2.974   5.972   6.032 -0.8162 -1.4710  2.3772
  214MOL    H1534521   2.787   5.818   5.951  1.0858  0.5001 -0.9788
  214MOL    H1634522   2.942   5.648   5.925 -0.1600 -0.5592  0.4405
  214MOL    H1734523   2.962   5.635   6.080  1.3025  1.1083 -1.0162
  214MOL    C1834524   2.805   5.798   6.166 -0.1535  0.4516  0.2118
  214MOL    C1934525   2.741   5.935   6.207 -0.2238  0.9383  0.3049
  214MOL    N2034526   2.627   5.952   6.111 -0.1923  0.0469  0.3273
  214MOL    H2134527   2.724   5.726   6.169  0.4047 -0.2293 -0.8469
  214MOL    H2234528   2.882   5.767   6.237 -1.8305 -0.5221  1.6274
  214MOL    H2334529   2.802   6.020   6.178 -0.4728  0.3984 -1.9055
  214MOL    H2434530   2.557   5.879   6.117  0.6521 -0.6738  1.5068
  214MOL    H2534531   2.562   6.020   6.149 -0.4630 -0.4854  0.8267
  214MOL    C2634532   2.699   5.940   6.355 -0.0364 -0.2329  0.1417
  214MOL    C2734533   2.658   6.071   6.424 -0.1112 -0.2065 -0.7191
  214MOL    N2834534   2.552   6.035   6.520  0.2103  0.2515  1.0201
  214MOL    H2934535   2.625   5.863   6.379  2.1100 -2.1819  0.7264
  214MOL    H3034536   2.789   5.904   6.405 -1.0474 -3.1508 -0.0360
  214MOL    H3134537   2.614   6.141   6.354 -0.2858 -0.7329 -1.1430
  214MOL    H3234538   2.576   5.954   6.576  1.2806  0.5584  1.0087
  214MOL    H3334539   2.465   6.011   6.475  0.3651  0.7451  0.4580
  214MOL    C3434540   2.765   6.150   6.505 -0.1996  0.2488 -0.2679
  214MOL    C3534541   2.854   6.238   6.416 -0.1621  0.4274  0.1091
  214MOL    N3634542   2.892   6.344   6.513  0.5952  0.2469  0.6550
  214MOL    H3734543   2.710   6.218   6.570 -1.3337 -0.4936 -0.4341
  214MOL    H3834544   2.819   6.077   6.566  0.8692  1.2871  0.0333
  214MOL    H3934545   2.801   6.282   6.332 -0.8877 -0.3538  0.1486
  214MOL    H4034546   2.832   6.423   6.495 -0.4121 -0.9685 -1.5163
  214MOL    H4134547   2.985   6.363   6.479  0.9842 -0.6868  1.1762
  214MOL    C4234548   2.984   6.166   6.373  1.2526  0.1220 -0.8011
  214MOL    C4334549   3.063   6.247   6.259 -0.5261  0.2643 -0.9002
  214MOL    N4434550   3.190   6.172   6.252 -0.2103  0.1801  0.2138
  214MOL    H4534551   3.046   6.158   6.462  1.2941  1.5633 -0.6953
  214MOL    H4634552   2.967   6.063   6.341  1.6644  1.0191 -4.0606
  214MOL    H4734553   3.106   6.334   6.308  0.5071 -0.3904 -0.6265
  214MOL    H4834554   3.213   6.120   6.335 -0.0704 -0.6546 -0.3360
  214MOL    H4934555   3.269   6.232   6.232 -0.2725  0.3276  0.4068
  214MOL    C5034556   3.011   6.254   6.121  0.0484 -0.4802  0.4454
  214MOL    C5134557   2.949   6.394   6.091 -0.4372 -0.1416  0.1859
  214MOL    N5234558   3.049   6.501   6.067  0.0847 -0.3449  0.7839
  214MOL    H5334559   3.080   6.221   6.042  2.7125  1.3867  1.8947
  214MOL    H5434560   2.929   6.182   6.119 -0.4917  0.1595 -2.6339
  214MOL    H5534561   2.895   6.421   6.181  1.2719  2.7344  0.4158
  214MOL    H5634562   3.106   6.498   6.150  2.6486 -2.7587 -0.9403
  214MOL    H5734563   2.989   6.582   6.067  1.7741  0.9395 -0.8573
  214MOL    C5834564   2.856   6.381   5.971  0.4515  0.6169 -0.1310
  214MOL    C5934565   2.714   6.327   6.015 -0.6613 -0.1170  0.1571
  214MOL    N6034566   2.654   6.415   6.109  0.2577 -0.6250 -0.8422
  214MOL    H6134567   2.832   6.476   5.923 -0.1980 -0.9972 -3.1708
  214MOL    H6234568   2.913   6.324   5.897  1.4040  0.3679  0.7836
  214MOL    H6334569   2.713   6.229   6.063 -0.0914  0.7168  1.9126
  214MOL    H6434570   2.600   6.485   6.059 -1.6684 -1.9020 -0.6030
  214MOL    H6534571   2.594   6.362   6.169  0.5920  1.0731  1.0442
  214MOL    C6634572   2.627   6.318   5.886 -0.5201 -0.4199  0.7965
  214MOL    C6734573   2.661   6.200   5.788 -0.9917 -0.8609  0.1617
  214MOL    N6834574   2.605   6.080   5.845  0.3096  0.4577  0.4811
  214MOL    H6934575   2.526   6.297   5.921 -1.2626 -1.4614 -1.7908
  214MOL    H7034576   2.619   6.414   5.834  0.2469 -0.1615  1.1610
  214MOL    H7134577   2.769   6.183   5.791 -0.7225  0.6923 -0.4054
  214MOL    H7234578   2.650   6.073   5.936  0.5516  1.1311  0.4209
  214MOL    H7334579   2.635   6.001   5.790 -0.7316  1.4622 -1.5913
  214MOL    C7434580   2.611   6.228   5.644  0.5510 -0.0947  0.9240
  214MOL    C7534581   2.701   6.162   5.545 -0.1332  0.5188 -0.6961
  214MOL    N7634582   2.615   6.129   5.430 -0.1466 -1.0048 -0.2971
  214MOL    H7734583   2.503   6.219   5.655  0.3253  3.2836  2.2579
  214MOL    H7834584   2.621   6.334   5.621 -1.7136 -0.6150 -2.8739
  214MOL    H7934585   2.725   6.062   5.582 -0.9028  1.1318  1.5066
  214MOL    H8034586   2.686   6.103   5.362  0.6070 -0.1643  0.1526
  214MOL    H8134587   2.570   6.043   5.459  0.1489 -1.2843 -0.6573
  214MOL    C8234588   2.830   6.241   5.504  0.1630 -0.0618 -0.0842
  214MOL    C8334589   2.940   6.176   5.415  0.1872  0.0793  0.5409
  214MOL    N8434590   2.881   6.156   5.278  0.4168 -0.6867 -0.6785
  214MOL    H8534591   2.804   6.339   5.464  0.2009 -0.7540 -1.8480
  214MOL    H8634592   2.870   6.264   5.603  1.6365 -1.0162 -0.4331
  214MOL    H8734593   2.972   6.079   5.452 -0.2825  0.2079  1.2798
  214MOL    H8834594   2.942   6.188   5.204  2.5396  1.7520  1.9797
  214MOL    H8934595   2.817   6.234   5.273  1.0345 -0.2530 -1.8953
  214MOL    C9034596   3.068   6.261   5.390 -0.0962 -0.1016  0.0326
  214MOL    C9134597   3.173   6.255   5.503 -0.1595 -0.3001 -0.5530
  214MOL    N9234598   3.292   6.189   5.460  0.3775  0.6138 -0.2392
  214MOL    H9334599   3.111   6.250   5.291 -2.7170 -0.7011 -1.0903
  214MOL    H9434600   3.032   6.364   5.387  0.4283  0.0492 -1.7358
  214MOL    H9534601   3.135   6.184   5.576 -0.4798 -0.5957 -1.0068
  214MOL    H9634602   3.276   6.089   5.459 -0.1530  0.6660  1.3984
  214MOL    H9734603   3.359   6.200   5.535 -2.0158 -1.1424  2.2572
  214MOL    C9834604   3.209   6.396   5.560  0.5798 -0.1003 -0.1911
  214MOL    C9934605   3.320   6.408   5.670  0.1143  0.7769  0.0488
  214MOL   N10034606   3.384   6.537   5.673  0.0051 -0.0205  0.4108
  214MOL   H10134607   3.233   6.452   5.469 -3.8234 -0.6429 -1.8062
  214MOL   H10234608   3.121   6.450   5.595 -0.6756 -0.9924 -1.8864
  214MOL   H10334609   3.399   6.341   5.634  1.2663  0.1007  3.6506
  214MOL   H10434610   3.393   6.566   5.577 -2.4251 -0.6305 -0.0266
  214MOL   H10534611   3.474   6.517   5.714  0.2340  0.4066  0.1144
  214MOL   C10634612   3.261   6.363   5.809 -0.0056 -0.0624 -0.3701
  214MOL   C10734613   3.373   6.342   5.916  0.0294  1.0244  0.1905
  214MOL   N10834614   3.316   6.374   6.046 -0.0314  0.1200 -0.0149
  214MOL   H10934615   3.188   6.439   5.836 -1.8089 -2.8285  2.8331
  214MOL   H11034616   3.210   6.268   5.792 -1.0252  0.4728 -0.2877
  214MOL   H11134617   3.445   6.423   5.907  1.5904 -0.4382 -0.5968
  214MOL   H11234618   3.257   6.295   6.068  2.6886 -2.4024 -1.3876
  214MOL   H11334619   3.250   6.444   6.014 -1.7133 -1.2829  0.2380
  214MOL   C11434620   3.431   6.199   5.925  0.3271  0.1695 -0.2662
  214MOL   C11534621   3.532   6.171   6.026 -0.2924  0.6081 -1.3298
  214MOL   N11634622   3.560   6.028   6.016 -0.6386  0.0448  0.1062
  214MOL   H11734623   3.343   6.137   5.942  2.0720 -2.3983 -0.2829
  214MOL   H11834624   3.462   6.170   5.824 -1.7180  0.6696 -1.0668
  214MOL   H11934625   3.484   6.191   6.122 -3.3947 -1.0528 -2.4604
  214MOL   H12034626   3.636   6.007   6.080 -0.2526  0.2992 -0.2705
  214MOL   H12134627   3.483   5.977   6.057 -0.4292 -0.5520 -0.2344
  214MOL   C12234628   3.669   6.242   6.001 -0.3817 -0.3622 -1.4200
  214MOL   C12334629   3.694   6.389   6.057  0.2171 -0.1000 -0.1432
  214MOL   N12434630   3.730   6.389   6.199 -0.5057  0.1142  1.1972
  214MOL   H12534631   3.745   6.182   6.050 -1.5961 -0.5577  0.2799
  214MOL   H12634632   3.695   6.232   5.895 -0.1944 -1.4183 -1.2799
  214MOL   H12734633   3.597   6.440   6.054  0.0853 -0.2065  1.7645
  214MOL   H12834634   3.761   6.481   6.225  1.6751 -0.2596 -0.0064
  214MOL   H12934635   3.819   6.344   6.213  0.6929  1.8484 -0.6707
  214MOL   C13034636   3.793   6.467   5.974  0.0094 -0.1502 -0.1141
  214MOL   C13134637   3.755   6.513   5.836  0.1954  0.1502 -0.3231
  214MOL   N13234638   3.639   6.599   5.841 -0.9445 -0.4500 -0.2998
  214MOL   H13334639   3.820   6.559   6.027  0.3080  0.4328 -1.2703
  214MOL   H13434640   3.892   6.421   5.971  0.1573  0.1591 -0.0068
  214MOL   H13534641   3.726   6.429   5.773 -2.8155  0.6332  0.3391
  214MOL   H13634642   3.660   6.695   5.864  2.2891 -1.3379  0.6849
  214MOL   H13734643   3.582   6.562   5.915 -0.7144 -1.0699 -0.4261
  214MOL   C13834644   3.873   6.595   5.774  0.2781  0.5607  0.7251
  214MOL   C13934645   3.850   6.632   5.620  0.3158  0.4142  0.3104
  214MOL   N14034646   3.962   6.706   5.567 -0.4736 -0.2014 -0.3620
  214MOL   H14134647   3.905   6.680   5.834  0.8340  1.2987 -0.6018
  214MOL   H14234648   3.965   6.538   5.787 -0.3410 -0.1214  2.2450
  214MOL   H14334649   3.765   6.698   5.606  0.1719 -0.3447 -2.6869
  214MOL   H14434650   4.023   6.640   5.521  1.8892  0.8055  1.2221
  214MOL   H14534651   3.941   6.784   5.506 -0.7558  0.9723  1.2038
  214MOL   C14634652   3.823   6.511   5.533  0.3209  0.0427  0.2657
  214MOL   C14734653   3.677   6.484   5.484  0.0691 -0.4597 -0.2711
  214MOL   N14834654   3.647   6.589   5.396  0.6879  0.6526 -0.3982
  214MOL   H14934655   3.885   6.521   5.444 -0.8329  2.1320 -0.3420
  214MOL   H15034656   3.865   6.424   5.584 -1.6341  0.3475  2.4563
  214MOL   H15134657   3.606   6.490   5.567 -0.8982 -0.4541 -1.0849
  214MOL   H15234658   3.711   6.581   5.318  2.5528 -0.3379  1.1851
  214MOL   H15334659   3.669   6.671   5.450 -0.2353  0.9328 -0.4288
  214MOL   C15434660   3.661   6.342   5.427 -0.1279  0.5253  0.4651
  214MOL   C15534661   3.665   6.233   5.538 -0.2887  0.5564  0.8113
  214MOL   N15634662   3.638   6.108   5.475  0.2128 -0.1500 -0.6914
  214MOL   H15734663   3.565   6.340   5.375 -0.9535  2.1690  1.8581
  214MOL   H15834664   3.734   6.323   5.349 -3.6132  0.0527 -2.8512
  214MOL   H15934665   3.592   6.243   5.619 -1.1871 -0.9616  0.2079
  214MOL   H16034666   3.548   6.121   5.430  0.0451 -0.2992 -0.4047
  214MOL   H16134667   3.710   6.107   5.405  0.3413 -1.4200 -0.5547
  214MOL   H16234668   3.767   6.231   5.578 -0.2143  1.3660  0.6793
  215MOL     C134669   5.795   2.264   3.539  0.1034  0.3615 -0.0124
  215MOL     C234670   5.934   2.317   3.576 -0.9167  0.0596 -0.6535
  215MOL     N334671   6.028   2.252   3.496  0.0516 -1.0372  0.0788
  215MOL     H434672   5.779   2.236   3.435 -0.0622  2.2769 -0.5405
  215MOL     H534673   5.717   2.340   3.532 -0.4984 -0.4237 -2.0606
  215MOL     H634674   5.940   2.306   3.685 -1.9990 -0.3946 -0.6316
  215MOL     H734675   6.123   2.287   3.496 -0.3117 -0.0161  0.0029
  215MOL     H834676   6.036   2.163   3.543  0.3384  0.4138  2.8893
  215MOL     H934677   5.759   2.182   3.601 -0.2468 -0.6902 -1.5845
  215MOL    C1034678   5.960   2.468   3.562 -0.1562 -0.5194 -0.3739
  215MOL    C1134679   5.858   2.564   3.631  0.3049  0.5140 -0.0061
  215MOL    N1234680   5.872   2.551   3.775  0.9285 -0.3215 -0.4839
  215MOL    H1334681   6.063   2.488   3.592  0.0235 -1.8675 -0.0537
  215MOL    H1434682   5.961   2.496   3.457  0.4001  0.3685 -0.1363
  215MOL    H1534683   5.755   2.551   3.597  0.2655  0.4288  0.1440
  215MOL    H1634684   5.959   2.584   3.815 -0.1418  0.4242  1.2685
  215MOL    H1734685   5.855   2.456   3.802  0.8397  0.2488  1.5793
  215MOL    C1834686   5.885   2.712   3.602  0.0294 -0.6579 -0.3487
  215MOL    C1934687   5.800   2.778   3.489 -0.2642 -0.3773 -0.1337
  215MOL    N2034688   5.844   2.915   3.503  0.3207  0.0305  0.7796
  215MOL    H2134689   5.876   2.759   3.700  2.6457 -1.3252  0.2324
  215MOL    H2234690   5.990   2.734   3.584 -0.1412 -1.0898 -1.9673
  215MOL    H2334691   5.695   2.780   3.518 -0.2962 -0.6925 -0.2260
  215MOL    H2434692   5.828   2.941   3.599  2.5169  2.1738  0.5986
  215MOL    H2534693   5.767   2.959   3.454  1.0140  0.1109 -0.2398
  215MOL    C2634694   5.818   2.730   3.342 -0.1342 -0.6129  0.1631
  215MOL    C2734695   5.730   2.611   3.298 -0.1187  0.1533  0.7634
  215MOL    N2834696   5.593   2.648   3.297  0.1686  0.3644 -0.2689
  215MOL    H2934697   5.814   2.815   3.273 -0.8537 -1.4257 -0.8074
  215MOL    H3034698   5.922   2.700   3.330  0.1174  0.8319 -1.3608
  215MOL    H3134699   5.744   2.528   3.368 -0.4272 -0.3796  0.1959
  215MOL    H3234700   5.591   2.747   3.276 -1.3255  0.5876  0.7745
  215MOL    H3334701   5.549   2.657   3.388 -0.0580  0.6911 -0.4083
  215MOL    C3434702   5.753   2.560   3.151 -0.1168 -0.1186  0.5961
  215MOL    C3534703   5.898   2.505   3.132 -0.0495 -0.1832 -0.1906
  215MOL    N3634704   5.882   2.408   3.020 -0.1303  0.5948  0.6709
  215MOL    H3734705   5.679   2.487   3.119 -0.7033  0.3498  0.8631
  215MOL    H3834706   5.750   2.641   3.078 -0.0844 -0.6201  0.0402
  215MOL    H3934707   5.940   2.447   3.213 -0.6605 -0.3288  0.0242
  215MOL    H4034708   5.819   2.446   2.951  1.2880 -0.9158 -1.4998
  215MOL    H4134709   5.825   2.330   3.052  1.7334 -1.3578 -0.6095
  215MOL    C4234710   5.997   2.612   3.088 -0.8333 -0.2602  0.7877
  215MOL    C4334711   6.145   2.582   3.114  0.2539  0.4038  0.2631
  215MOL    N4434712   6.219   2.700   3.066  0.3997 -0.1409 -1.0675
  215MOL    H4534713   5.983   2.623   2.980 -0.0277  2.2010  0.9017
  215MOL    H4634714   5.961   2.705   3.132 -0.8360 -0.1814  0.6200
  215MOL    H4734715   6.157   2.490   3.057  2.2035  0.1261  1.0956
  215MOL    H4834716   6.216   2.773   3.135  0.3582 -1.9944  0.9182
  215MOL    H4934717   6.180   2.739   2.981  1.3190 -0.7318 -1.7777
  215MOL    C5034718   6.195   2.556   3.263 -0.4339 -0.2371  0.0315
  215MOL    C5134719   6.336   2.509   3.259  0.1629 -0.4432 -0.4518
  215MOL    N5234720   6.387   2.519   3.392  0.8196  0.0254  0.2480
  215MOL    H5334721   6.178   2.649   3.318 -2.7593 -0.3513 -0.4361
  215MOL    H5434722   6.141   2.475   3.313  1.0363  0.2409  2.4742
  215MOL    H5534723   6.374   2.576   3.181 -0.0713  0.3946  0.1532
  215MOL    H5634724   6.365   2.606   3.437 -0.9161  0.1719 -0.8444
  215MOL    H5734725   6.488   2.514   3.380  0.6697 -0.2532 -1.0161
  215MOL    C5834726   6.358   2.366   3.205 -0.2397 -0.1535 -0.1096
  215MOL    C5934727   6.493   2.343   3.128 -0.1349 -0.1224 -0.3451
  215MOL    N6034728   6.514   2.204   3.100 -0.5957 -0.2112  0.4490
  215MOL    H6134729   6.338   2.294   3.285 -1.6338 -0.5912 -0.8262
  215MOL    H6234730   6.280   2.346   3.132  0.0975  1.8191 -1.0463
  215MOL    H6334731   6.579   2.368   3.192  1.0545 -0.5247 -1.7594
  215MOL    H6434732   6.446   2.161   3.038  0.1046 -1.1130  0.2850
  215MOL    H6534733   6.502   2.151   3.186 -2.6703  0.0688  0.3685
  215MOL    C6634734   6.511   2.423   2.996  0.1568  0.1376  0.0585
  215MOL    C6734735   6.658   2.482   2.973 -0.1321  0.3219 -1.0650
  215MOL    N6834736   6.649   2.523   2.836  0.1876 -0.0316  0.6628
  215MOL    H6934737   6.473   2.367   2.911  0.8616 -0.9198  0.4245
  215MOL    H7034738   6.438   2.503   2.998  0.0972  0.0781  0.3795
  215MOL    H7134739   6.736   2.408   2.994 -1.3064 -0.0236  2.4806
  215MOL    H7234740   6.720   2.591   2.812 -1.4137  2.4866  2.7464
  215MOL    H7334741   6.567   2.581   2.830  0.8273  0.7380 -0.8836
  215MOL    C7434742   6.679   2.612   3.059  0.2975  0.1833 -0.5534
  215MOL    C7534743   6.768   2.585   3.186 -0.0568 -0.0715 -0.2377
  215MOL    N7634744   6.899   2.632   3.149 -0.4817  0.7014 -0.4178
  215MOL    H7734745   6.725   2.695   3.007  0.4718  0.7287  0.4703
  215MOL    H7834746   6.584   2.658   3.089 -0.3915 -1.6542  0.2119
  215MOL    H7934747   6.777   2.477   3.202 -0.8617 -0.2218 -0.7368
  215MOL    H8034748   6.922   2.590   3.060  1.2685  1.5975 -0.4222
  215MOL    H8134749   6.954   2.574   3.210 -2.8216 -1.0542  0.0805
  215MOL    C8234750   6.719   2.625   3.321 -0.5903 -0.8235  0.0981
  215MOL    C8334751   6.638   2.760   3.346  0.4300  0.1444  0.0591
  215MOL    N8434752   6.612   2.771   3.490 -0.5707  0.6794  0.6673
  215MOL    H8534753   6.647   2.546   3.341  0.0488 -1.1634  1.0788
  215MOL    H8634754   6.789   2.612   3.404  0.0086  0.7516 -0.1365
  215MOL    H8734755   6.538   2.755   3.304 -0.0245  1.7259  0.8781
  215MOL    H8834756   6.566   2.858   3.513 -1.3626  0.6645 -0.8119
  215MOL    H8934757   6.538   2.709   3.518  0.1128 -0.2091  0.5302
  215MOL    C9034758   6.718   2.883   3.290 -0.4627 -1.3553 -0.2738
  215MOL    C9134759   6.640   3.019   3.293  1.4423 -0.0426 -0.1082
  215MOL    N9234760   6.730   3.122   3.245 -0.6209 -0.4848  0.2356
  215MOL    H9334761   6.808   2.889   3.352 -1.6371  0.8141  1.2823
  215MOL    H9434762   6.766   2.858   3.195  0.7210 -2.0016  0.4853
  215MOL    H9534763   6.622   3.043   3.397 -1.9081  0.4812 -0.7431
  215MOL    H9634764   6.796   3.070   3.190  0.9401  1.6916 -0.0215
  215MOL    H9734765   6.691   3.190   3.181  1.6015 -0.0735 -0.7195
  215MOL    C9834766   6.501   3.012   3.214 -0.2329  0.3364  0.1121
  215MOL    C9934767   6.388   3.085   3.306 -0.1061  0.1599  0.0115
  215MOL   N10034768   6.278   3.109   3.213  0.8427 -0.1223  0.5061
  215MOL   H10134769   6.510   3.052   3.113 -0.5653 -1.6758 -0.7412
  215MOL   H10234770   6.463   2.910   3.205 -0.1957  0.6154 -3.8369
  215MOL   H10334771   6.432   3.180   3.338  2.6424 -1.7278  2.0899
  215MOL   H10434772   6.201   3.044   3.212 -0.9826  1.9477 -2.4460
  215MOL   H10534773   6.327   3.105   3.125  1.6892  0.6454  0.9331
  215MOL   C10634774   6.341   3.007   3.430  0.6279  0.4144  0.0220
  215MOL   C10734775   6.226   3.068   3.507 -0.2830  0.5756 -0.4758
  215MOL   N10834776   6.179   2.962   3.599 -0.4362  0.0715 -0.0146
  215MOL   H10934777   6.311   2.910   3.390  0.4105  0.2287  0.6343
  215MOL   H11034778   6.428   2.979   3.489 -0.4126  1.5605  2.1519
  215MOL   H11134779   6.141   3.096   3.444 -0.8890  0.3601  0.2402
  215MOL   H11234780   6.097   3.007   3.636 -0.5522  0.5551 -0.8406
  215MOL   H11334781   6.133   2.903   3.531 -0.5764 -0.0775  0.2098
  215MOL   C11434782   6.269   3.182   3.599  0.1894  0.2269 -0.5344
  215MOL   C11534783   6.300   3.326   3.547  0.1695  0.2148 -0.0706
  215MOL   N11634784   6.206   3.422   3.592  0.2611  0.5595  0.0308
  215MOL   H11734785   6.208   3.186   3.688 -0.0384  1.1343 -0.7323
  215MOL   H11834786   6.366   3.148   3.635  0.7610 -0.0521 -2.2751
  215MOL   H11934787   6.284   3.322   3.439  0.5019 -0.7145 -0.0898
  215MOL   H12034788   6.242   3.514   3.569  0.5568  0.5221  0.3443
  215MOL   H12134789   6.176   3.430   3.688 -1.2812  2.2817 -0.5603
  215MOL   C12234790   6.439   3.379   3.584 -0.3707 -0.5836  0.7322
  215MOL   C12334791   6.564   3.295   3.540  0.6861 -0.2115  0.6872
  215MOL   N12434792   6.611   3.364   3.421  0.0968  0.1801 -0.3278
  215MOL   H12534793   6.439   3.483   3.553 -0.6793 -1.0105 -0.7502
  215MOL   H12634794   6.440   3.395   3.692 -1.7298  1.0122  0.5190
  215MOL   H12734795   6.533   3.192   3.520  1.3635 -0.5499  1.3390
  215MOL   H12834796   6.648   3.293   3.358  0.4244  2.5793 -2.9413
  215MOL   H12934797   6.527   3.398   3.377 -1.1835 -1.2347  1.0159
  215MOL   C13034798   6.682   3.289   3.639  0.3417 -0.1442  0.8208
  215MOL   C13134799   6.778   3.162   3.638 -0.2742 -1.0277  0.1424
  215MOL   N13234800   6.875   3.169   3.530 -0.4059 -0.1644 -0.0858
  215MOL   H13334801   6.742   3.380   3.633 -0.7426  0.6220  1.4698
  215MOL   H13434802   6.637   3.301   3.737  1.7219  5.4907  0.9383
  215MOL   H13534803   6.733   3.068   3.608  0.3819 -1.0286 -0.8442
  215MOL   H13634804   6.817   3.185   3.449 -0.5842  2.7502  0.5358
  215MOL   H13734805   6.933   3.252   3.533  1.8934 -1.7781  0.9414
  215MOL   C13834806   6.862   3.152   3.770  0.3344  0.4521 -0.1822
  215MOL   C13934807   6.777   3.094   3.882  0.3567 -0.2068 -0.4785
  215MOL   N14034808   6.766   2.956   3.847 -0.6427 -0.5159  0.0062
  215MOL   H14134809   6.947   3.087   3.751  1.4077  1.5039  0.9709
  215MOL   H14234810   6.917   3.242   3.798  1.2515 -0.1843  0.0533
  215MOL   H14334811   6.676   3.136   3.881  0.0445 -0.9353 -1.8029
  215MOL   H14434812   6.795   2.959   3.751  3.5101  1.9101  1.2429
  215MOL   H14534813   6.836   2.896   3.887  0.2926 -0.3171 -1.3118
  215MOL   C14634814   6.841   3.105   4.015  0.2055 -0.0963  0.3501
  215MOL   C14734815   6.766   3.175   4.133 -0.3258 -0.3346 -0.2912
  215MOL   N14834816   6.810   3.111   4.261  0.5449 -0.1100  0.4470
  215MOL   H14934817   6.864   3.004   4.050  0.2245  0.1960  1.2121
  215MOL   H15034818   6.941   3.145   3.999 -0.4275  2.0952  1.6946
  215MOL   H15134819   6.659   3.157   4.133 -0.4276  0.2485  0.7444
  215MOL   H15234820   6.762   3.153   4.339 -0.6888 -0.4815 -0.1033
  215MOL   H15334821   6.789   3.012   4.255 -3.9105  0.8217 -1.5905
  215MOL   C15434822   6.788   3.328   4.134  0.7615  0.2708 -0.1913
  215MOL   C15534823   6.723   3.402   4.015 -0.7559 -0.3452  0.3971
  215MOL   N15634824   6.727   3.544   4.039  0.0823 -0.0242 -0.3773
  215MOL   H15734825   6.759   3.372   4.229  1.0148 -0.5330  0.2610
  215MOL   H15834826   6.891   3.358   4.148  0.8551  0.2503 -0.8265
  215MOL   H15934827   6.616   3.384   4.022 -1.6273  3.7076 -1.3446
  215MOL   H16034828   6.665   3.604   3.986  0.7078  1.3862  0.4482
  215MOL   H16134829   6.820   3.579   4.020 -0.1232  0.0067 -1.3530
  215MOL   H16234830   6.750   3.381   3.911 -2.4967 -2.2132  0.2929
  216MOL     C134831   7.266   3.773   2.961  0.1776  0.5751 -0.6547
  216MOL     C234832   7.227   3.923   2.970  0.1559 -0.6189  0.1657
  216MOL     N334833   7.085   3.933   2.996  1.1161 -0.1514 -0.0480
  216MOL     H434834   7.240   3.707   3.044  0.7419  1.0653 -0.0816
  216MOL     H534835   0.099   3.776   2.950  0.1714  1.5425 -0.5698
  216MOL     H634836   7.257   3.979   2.882 -0.1345 -0.6901  0.0218
  216MOL     H734837   7.017   3.866   2.962 -0.3294  1.6511 -0.7759
  216MOL     H834838   7.074   3.915   3.095  0.0507  1.6198  0.1762
  216MOL     H934839   7.232   3.733   2.866 -0.3180 -1.9625  0.5689
  216MOL    C1034840   0.016   3.998   3.090 -0.0663 -0.6398 -0.0185
  216MOL    C1134841   7.243   4.144   3.114  0.0202 -0.0134  0.2672
  216MOL    N1234842   7.225   4.165   3.259  0.6377 -0.3666  0.2653
  216MOL    H1334843   7.253   3.942   3.176  0.1870  0.9187  1.1284
  216MOL    H1434844   0.123   3.988   3.107  0.1229  0.5747 -0.4448
  216MOL    H1534845   7.143   4.159   3.073 -0.6132 -0.4933  1.5871
  216MOL    H1634846   7.167   4.248   3.262  3.6711  1.9561 -1.5484
  216MOL    H1734847   7.159   4.093   3.285 -1.6505  0.6840 -2.4110
  216MOL    C1834848   0.071   4.247   3.062 -0.2261 -0.4293 -0.1365
  216MOL    C1934849   0.011   4.339   2.950 -0.1665 -0.1560 -0.2459
  216MOL    N2034850   0.101   4.451   2.925 -0.6278 -0.0305 -0.1630
  216MOL    H2134851   0.109   4.306   3.145  2.5209 -2.7688  0.3416
  216MOL    H2234852   0.164   4.203   3.026 -0.8634 -0.6931 -1.5133
  216MOL    H2334853   7.195   4.376   2.997  0.2050 -0.2151  0.5255
  216MOL    H2434854   0.097   4.472   2.826 -0.0847  0.0751 -0.1610
  216MOL    H2534855   0.185   4.398   2.939 -0.4957  0.5086  1.1145
  216MOL    C2634856   7.268   4.268   2.821 -0.7608  0.0510  0.2084
  216MOL    C2734857   7.206   4.346   2.710  0.1501  0.3039 -0.0895
  216MOL    N2834858   0.023   4.444   2.658  0.4944  0.3018  0.6657
  216MOL    H2934859   0.084   4.223   2.782 -1.5495 -1.4351  0.0583
  216MOL    H3034860   7.213   4.184   2.862  0.5557  0.4529  2.9357
  216MOL    H3134861   7.125   4.401   2.758 -0.0330  0.1883 -0.2641
  216MOL    H3234862   7.239   4.512   2.612 -1.7457 -0.7030  2.0262
  216MOL    H3334863   0.070   4.404   2.578  0.4755  0.4571  0.5763
  216MOL    C3434864   7.138   4.260   2.598 -0.5399  0.3527  0.9374
  216MOL    C3534865   7.022   4.175   2.652  0.4151 -1.1250 -0.4940
  216MOL    N3634866   6.894   4.238   2.635  0.2535 -0.1528 -0.0729
  216MOL    H3734867   7.115   4.317   2.508  2.8210  0.0061 -0.2124
  216MOL    H3834868   7.220   4.194   2.568  2.0198  3.4152  0.9231
  216MOL    H3934869   7.044   4.145   2.754 -0.3493 -1.2989 -0.3825
  216MOL    H4034870   6.906   4.317   2.696  1.0965 -0.5942  0.3321
  216MOL    H4134871   6.824   4.181   2.682  0.0176  1.0311  1.0458
  216MOL    C4234872   7.000   4.037   2.580  0.0045  0.6151 -0.4877
  216MOL    C4334873   7.122   3.951   2.608  0.2114 -0.0411 -0.4162
  216MOL    N4434874   7.076   3.853   2.699 -0.0538 -0.2340  0.3163
  216MOL    H4534875   6.904   3.993   2.608  0.2454  0.7655  0.5911
  216MOL    H4634876   6.983   4.064   2.476 -1.2770  1.6927 -0.0156
  216MOL    H4734877   7.203   4.004   2.658  0.9942 -0.6658 -1.0092
  216MOL    H4834878   7.122   3.871   2.787  1.3268 -1.5285 -0.1131
  216MOL    H4934879   7.115   3.769   2.657  1.6313  0.4250  0.5424
  216MOL    C5034880   7.176   3.873   2.479 -0.1479  0.7537  0.5902
  216MOL    C5134881   0.002   3.760   2.508  0.3279  0.5809 -0.6925
  216MOL    N5234882   7.209   3.640   2.553 -0.2738 -0.6227 -0.2221
  216MOL    H5334883   7.094   3.833   2.420  2.0260 -0.3074 -1.8214
  216MOL    H5434884   7.217   3.950   2.414 -1.9528  2.0306  0.9408
  216MOL    H5534885   0.052   3.796   2.598 -0.9355  2.0229 -0.5482
  216MOL    H5634886   7.208   3.572   2.480 -0.1990  0.1847 -0.9830
  216MOL    H5734887   7.267   3.607   2.629 -1.5413  0.5611  1.3171
  216MOL    C5834888   0.103   3.724   2.397  0.1054  0.2289 -0.6003
  216MOL    C5934889   0.216   3.831   2.391  0.0620  0.3500 -0.7135
  216MOL    N6034890   0.345   3.773   2.426  0.4827 -0.7492  0.5025
  216MOL    H6134891   0.156   3.630   2.412  0.2126  0.7636  2.7669
  216MOL    H6234892   0.042   3.710   2.308 -0.2940 -1.1919 -0.1108
  216MOL    H6334893   0.199   3.911   2.464 -2.7921 -1.5593  0.8233
  216MOL    H6434894   0.326   3.722   2.511  1.3622 -0.3357  0.9589
  216MOL    H6534895   0.409   3.847   2.450  1.5466 -1.8155  1.0582
  216MOL    C6634896   0.213   3.909   2.253  0.4345 -0.5503 -0.4300
  216MOL    C6734897   0.259   4.056   2.258  0.4355  0.2006  0.3971
  216MOL    N6834898   0.249   4.102   2.125 -0.3810 -1.0872  0.3379
  216MOL    H6934899   0.267   3.854   2.175 -0.2942 -2.3074  0.2682
  216MOL    H7034900   0.110   3.916   2.218  1.0607 -1.3182 -2.5250
  216MOL    H7134901   0.362   4.059   2.294  0.3874 -2.5190  0.9099
  216MOL    H7234902   0.314   4.179   2.114 -1.1650 -0.3516  0.7529
  216MOL    H7334903   0.283   4.028   2.066  1.8601 -0.7485  1.1660
  216MOL    C7434904   0.161   4.153   2.334 -0.3347 -0.4608  0.6397
  216MOL    C7534905   0.238   4.282   2.376 -0.8572 -0.7008  0.2507
  216MOL    N7634906   0.154   4.401   2.384  0.7703  0.2354  0.0631
  216MOL    H7734907   0.085   4.185   2.262  1.3115 -3.2686 -2.4861
  216MOL    H7834908   0.115   4.106   2.421  1.4761 -0.7356  1.4689
  216MOL    H7934909   0.318   4.300   2.305 -1.9492 -0.9298 -1.0706
  216MOL    H8034910   0.222   4.476   2.389  1.2189 -0.3100  2.3701
  216MOL    H8134911   0.120   4.422   2.291  0.0555  1.5949  0.6148
  216MOL    C8234912   0.292   4.260   2.517  0.2367 -0.3550  0.7664
  216MOL    C8334913   0.386   4.369   2.576  0.0830 -0.1295  0.2577
  216MOL    N8434914   0.363   4.362   2.720  0.1848 -0.0981 -0.5258
  216MOL    H8534915   0.200   4.262   2.576  0.5186  1.0257  1.1846
  216MOL    H8634916   0.335   4.161   2.526  2.4181  0.4835 -0.2680
  216MOL    H8734917   0.368   4.470   2.538 -1.0264 -0.2719  0.4030
  216MOL    H8834918   0.417   4.429   2.773  1.4021 -2.6872  1.5638
  216MOL    H8934919   0.265   4.385   2.723 -0.0271 -0.8406 -1.4280
  216MOL    C9034920   0.535   4.327   2.556 -0.4352 -0.3623 -0.0875
  216MOL    C9134921   0.624   4.451   2.557  0.2073  0.3491  0.2793
  216MOL    N9234922   0.758   4.406   2.569  0.2413  0.2133  0.0492
  216MOL    H9334923   0.568   4.263   2.637  4.1823 -0.5910 -1.9951
  216MOL    H9434924   0.550   4.284   2.456  2.1185 -0.3458  0.2523
  216MOL    H9534925   0.593   4.504   2.648 -0.4670  0.3279  0.0651
  216MOL    H9634926   0.812   4.490   2.552  0.8526 -0.1804  0.0447
  216MOL    H9734927   0.765   4.345   2.488 -1.0646 -0.0503  0.1228
  216MOL    C9834928   0.610   4.546   2.439  0.1465  0.8825  0.0103
  216MOL    C9934929   0.633   4.699   2.481  0.0431  0.4196  0.2394
  216MOL   N10034930   0.637   4.774   2.357  0.5497 -0.1061  0.3240
  216MOL   H10134931   0.678   4.512   2.360 -2.1235 -2.4336 -0.6244
  216MOL   H10234932   0.509   4.550   2.400  0.3751  3.4872 -0.4206
  216MOL   H10334933   0.735   4.716   2.515  0.4767 -1.5579 -0.0389
  216MOL   H10434934   0.689   4.718   2.291  0.1122  1.2393 -1.1785
  216MOL   H10534935   0.544   4.760   2.321  1.2334  1.4800 -2.1842
  216MOL   C10634936   0.541   4.760   2.592 -0.1277 -0.2995  0.2946
  216MOL   C10734937   0.602   4.764   2.734  0.4448 -0.8193 -0.4357
  216MOL   N10834938   0.713   4.858   2.735 -0.0401  0.3827 -0.0015
  216MOL   H10934939   0.509   4.864   2.581 -0.0795 -0.0222  2.5801
  216MOL   H11034940   0.447   4.706   2.587  0.0112 -0.5735  0.6336
  216MOL   H11134941   0.644   4.667   2.762 -0.2199 -1.0600 -0.2758
  216MOL   H11234942   0.761   4.836   2.821 -0.7564 -2.1746 -0.1954
  216MOL   H11334943   0.782   4.834   2.665 -0.3867 -0.5169 -0.0400
  216MOL   C11434944   0.511   4.810   2.851 -0.0778  0.6798  0.3812
  216MOL   C11534945   0.423   4.692   2.906 -0.6117 -0.2632  0.0209
  216MOL   N11634946   0.494   4.606   2.996 -0.3061  0.6077  0.0223
  216MOL   H11734947   0.567   4.868   2.924  3.3242 -1.9820  0.0284
  216MOL   H11834948   0.446   4.889   2.815 -1.4677 -0.9785 -0.8600
  216MOL   H11934949   0.383   4.635   2.822 -0.1621  2.4663 -2.1289
  216MOL   H12034950   0.494   4.652   3.086  0.0359 -0.8698  0.7963
  216MOL   H12134951   0.590   4.588   2.972 -0.6969 -1.0565 -0.3760
  216MOL   C12234952   0.300   4.740   2.987  0.1381 -0.1752  0.2006
  216MOL   C12334953   0.183   4.807   2.909 -0.3077  0.6808  0.2854
  216MOL   N12434954   0.053   4.752   2.953 -0.0898 -0.9146 -1.1079
  216MOL   H12534955   0.255   4.654   3.037 -0.5397 -0.0498 -0.1803
  216MOL   H12634956   0.340   4.808   3.062 -0.4129 -0.0397  0.3767
  216MOL   H12734957   0.189   4.772   2.806  2.2260  0.3987  0.5154
  216MOL   H12834958   0.073   4.653   2.957  1.6585 -0.5916 -1.2192
  216MOL   H12934959   7.268   4.761   2.872 -1.3058  0.1674 -0.0859
  216MOL   C13034960   0.177   4.960   2.918 -0.0342 -0.6006  0.2425
  216MOL   C13134961   0.088   5.012   2.794 -0.1063 -0.8837  0.4773
  216MOL   N13234962   0.058   5.148   2.833  0.2585 -0.0822 -0.4199
  216MOL   H13334963   0.150   4.997   3.017 -2.6831 -1.6770 -0.0379
  216MOL   H13434964   0.270   5.014   2.901 -0.0958 -0.5546  0.0425
  216MOL   H13534965   0.000   4.947   2.783 -0.4727 -0.5328  1.3341
  216MOL   H13634966   7.257   5.166   2.896 -0.0776 -0.1567 -0.8023
  216MOL   H13734967   0.023   5.195   2.751 -0.1171 -1.6466 -1.1745
  216MOL   C13834968   0.175   5.019   2.672  0.0198  0.2811  0.3362
  216MOL   C13934969   0.085   4.995   2.544  0.4688  0.3479  0.2609
  216MOL   N14034970   0.148   5.046   2.421 -0.4065 -0.0467 -0.5936
  216MOL   H14134971   0.225   5.116   2.672 -0.8623  0.7393  0.0252
  216MOL   H14234972   0.253   4.944   2.669 -1.3801 -1.1691 -0.5702
  216MOL   H14334973   7.259   5.031   2.564  0.1959 -1.6721  2.8239
  216MOL   H14434974   0.242   5.013   2.407  0.3440  1.0912  1.5012
  216MOL   H14534975   0.156   5.147   2.420 -3.8714  0.2888 -2.3164
  216MOL   C14634976   0.061   4.846   2.519 -0.1520  0.1878 -0.8061
  216MOL   C14734977   7.227   4.810   2.412 -0.6752 -0.4688  0.3285
  216MOL   N14834978   7.250   4.672   2.397 -0.1781  0.9862 -0.0981
  216MOL   H14934979   0.156   4.805   2.486  0.4690  1.7349 -0.9832
  216MOL   H15034980   0.040   4.787   2.608  2.6290 -0.3466 -0.4704
  216MOL   H15134981   7.260   4.855   2.318  0.6551 -0.6797  0.6804
  216MOL   H15234982   0.073   4.654   2.389 -0.4175 -0.7059  0.4724
  216MOL   H15334983   7.213   4.635   2.310  1.3461 -1.1974  0.1521
  216MOL   C15434984   7.083   4.846   2.448  0.8113 -0.4179  0.1680
  216MOL   C15534985   6.979   4.857   2.335  0.8138 -0.3593  0.1922
  216MOL   N15634986   6.847   4.895   2.389  0.2919 -0.5378 -0.0116
  216MOL   H15734987   7.052   4.778   2.527 -2.0759 -0.5668 -1.0093
  216MOL   H15834988   7.096   4.942   2.498 -2.8898  0.1716  0.1739
  216MOL   H15934989   6.976   4.763   2.279  2.3178 -0.7377  0.7179
  216MOL   H16034990   6.836   4.991   2.419  0.0318 -0.4848 -0.2760
  216MOL   H16134991   6.778   4.890   2.316 -2.4889  0.0008  2.4886
  216MOL   H16234992   7.022   4.928   2.264  0.0627 -0.6407 -0.5510
  217MOL     C134993   6.769   7.193   4.384  0.4934 -0.1833 -0.4377
  217MOL     C234994   6.742   7.054   4.443 -0.5214  0.1140 -0.2244
  217MOL     N334995   6.869   7.002   4.491  0.5834 -0.4575  0.1976
  217MOL     H434996   6.704   7.218   4.300 -1.1772 -0.2223  0.8342
  217MOL     H534997   6.868   7.194   4.339  0.6607  0.7324 -0.0594
  217MOL     H634998   6.705   6.980   4.372 -1.5043 -0.2886  0.6889
  217MOL     H734999   6.844   6.910   4.525 -0.6715  0.7900  2.7952
  217MOL     H835000   6.900   7.051   4.574 -1.1742 -1.0627  1.2492
  217MOL     H935001   6.778   7.265   4.465  0.6799  0.2646 -0.8521
  217MOL    C1035002   6.643   7.082   4.561 -0.1307  0.5884 -0.5903
  217MOL    C1135003   6.498   7.122   4.514 -0.0019  0.4284 -0.8556
  217MOL    N1235004   6.437   7.001   4.458  0.3393  0.4420  0.4572
  217MOL    H1335005   6.642   6.996   4.627 -0.0574 -0.4335 -1.9049
  217MOL    H1435006   6.688   7.158   4.625 -0.0374  1.2974 -1.4790
  217MOL    H1535007   6.507   7.205   4.444 -1.2955  0.8954 -0.4876
  217MOL    H1635008   6.361   7.042   4.405  0.5342  0.9586  0.5791
  217MOL    H1735009   6.489   6.955   4.385  1.3592  3.6941 -0.9677
  217MOL    C1835010   6.385   7.163   4.610 -0.7465 -0.0015  0.0714
  217MOL    C1935011   6.386   0.035   4.671 -0.6478 -0.3971  0.3074
  217MOL    N2035012   6.305   0.029   4.788 -0.0833 -0.0677  0.1615
  217MOL    H2135013   6.291   7.151   4.556 -0.6124 -1.0077  0.0417
  217MOL    H2235014   6.374   7.086   4.687  1.6031 -0.7505 -0.2969
  217MOL    H2335015   6.342   0.101   4.596  2.4439  3.2128  1.4980
  217MOL    H2435016   6.350   7.263   4.869  1.4272 -2.2381 -1.7367
  217MOL    H2535017   6.219   7.258   4.767  1.5560 -2.5716 -1.2727
  217MOL    C2635018   6.526   0.094   4.723  0.0998  0.1865 -0.4642
  217MOL    C2735019   6.520   0.248   4.726 -0.1491  0.0336 -0.3894
  217MOL    N2835020   6.633   0.291   4.807  0.6463  0.7205  0.5737
  217MOL    H2935021   6.548   0.044   4.817  2.9826  1.7700 -0.2453
  217MOL    H3035022   6.598   0.059   4.649  0.0319 -2.4136  0.6440
  217MOL    H3135023   6.427   0.289   4.765  0.0674  0.4238 -0.2833
  217MOL    H3235024   6.609   0.266   4.902  1.4971  0.0598  0.6200
  217MOL    H3335025   6.718   0.241   4.786 -0.9897 -0.2233 -4.5527
  217MOL    C3435026   6.552   0.310   4.579 -0.2136  0.1319 -0.7163
  217MOL    C3535027   6.549   0.463   4.569  0.1742 -0.2110 -0.2312
  217MOL    N3635028   6.580   0.482   4.428  0.0014  0.3367 -0.0940
  217MOL    H3735029   6.641   0.265   4.536 -1.1340  1.2289 -3.9324
  217MOL    H3835030   6.481   0.267   4.508 -0.7845  2.4300 -1.5888
  217MOL    H3935031   6.625   0.520   4.623 -0.0734 -2.1749  2.2808
  217MOL    H4035032   6.670   0.445   4.398  1.5198  2.2760  1.8944
  217MOL    H4135033   6.503   0.431   4.388 -0.2943  0.4693  0.2963
  217MOL    C4235034   6.409   0.530   4.605  0.6951 -0.3911  0.5705
  217MOL    C4335035   6.404   0.689   4.604 -0.1676  0.7950 -0.6649
  217MOL    N4435036   6.444   0.738   4.476  0.2870  0.2972 -0.0578
  217MOL    H4535037   6.325   0.488   4.550  2.5930  0.0738 -2.7950
  217MOL    H4635038   6.387   0.509   4.710 -0.4821  1.3614  0.7007
  217MOL    H4735039   6.485   0.728   4.666 -0.7684  1.9822 -0.6193
  217MOL    H4835040   6.521   0.682   4.443  0.5121 -0.0138  0.9647
  217MOL    H4935041   6.369   0.697   4.423  1.4747 -0.4099 -1.2213
  217MOL    C5035042   6.267   0.748   4.640  0.3807 -0.5632  0.1764
  217MOL    C5135043   6.223   0.724   4.789 -0.7662 -0.7040 -0.4158
  217MOL    N5235044   6.197   0.857   4.841 -0.1296 -0.3053  0.3894
  217MOL    H5335045   6.271   0.857   4.640  1.9132 -0.5910 -2.2311
  217MOL    H5435046   6.192   0.721   4.566  0.1611  0.9877 -0.1788
  217MOL    H5535047   6.312   0.687   4.839  1.0549  1.5413 -1.8635
  217MOL    H5635048   6.173   0.835   4.937  0.9989 -1.0718  0.5038
  217MOL    H5735049   6.281   0.910   4.856  1.3220 -2.0305 -1.3945
  217MOL    C5835050   6.109   0.622   4.804  0.5187 -0.1926 -0.8803
  217MOL    C5935051   6.100   0.564   4.942  0.6047  0.2279  0.1032
  217MOL    N6035052   5.962   0.513   4.963 -0.3274 -0.0875  0.0225
  217MOL    H6135053   6.019   0.681   4.790 -0.2643 -0.9860  0.6363
  217MOL    H6235054   6.126   0.549   4.725 -0.7224 -0.7996 -0.6152
  217MOL    H6335055   6.117   0.650   5.007  3.1714 -0.3393  0.2641
  217MOL    H6435056   5.949   0.512   5.063 -0.9009  1.2610 -0.0236
  217MOL    H6535057   5.895   0.585   4.942  0.1222  0.1210 -0.7286
  217MOL    C6635058   6.203   0.448   4.971 -0.4254  0.1706  0.3137
  217MOL    C6735059   6.252   0.409   5.113  0.0043 -0.0777  0.2412
  217MOL    N6835060   6.342   0.513   5.172  0.5222  0.1435  0.3149
  217MOL    H6935061   6.149   0.362   4.931 -0.4080  0.6343 -0.7214
  217MOL    H7035062   6.282   0.466   4.898 -1.0738  1.9477  0.0286
  217MOL    H7135063   6.318   0.326   5.087  1.2206  0.7992  0.5504
  217MOL    H7235064   6.294   0.598   5.148  1.3250  0.7017  0.6607
  217MOL    H7335065   6.420   0.517   5.107  0.2592 -2.6458 -0.2614
  217MOL    C7435066   6.143   0.361   5.217 -0.5040  0.4548 -0.4517
  217MOL    C7535067   6.107   0.210   5.228  0.0059  0.1698  0.5164
  217MOL    N7635068   6.063   0.176   5.358 -0.3301 -0.4872  0.0103
  217MOL    H7735069   6.177   0.388   5.317  0.1137  0.3853 -0.6404
  217MOL    H7835070   6.048   0.414   5.215 -0.9222 -0.2326  0.6954
  217MOL    H7935071   6.195   0.149   5.206  1.2618  1.7154  1.1472
  217MOL    H8035072   6.144   0.183   5.417 -1.1273  1.4702  0.9065
  217MOL    H8135073   6.018   0.259   5.395 -0.6045 -1.2601  1.4789
  217MOL    C8235074   6.011   0.161   5.127 -0.0826 -0.5379 -0.7262
  217MOL    C8335075   5.992   0.004   5.126  0.4460  0.4017  0.9859
  217MOL    N8435076   5.897   7.268   5.017 -0.2703  0.4213 -0.1758
  217MOL    H8535077   5.913   0.206   5.142  0.0446 -0.2028 -0.8878
  217MOL    H8635078   6.047   0.195   5.030 -0.6393 -2.6210 -1.6889
  217MOL    H8735079   5.945   7.267   5.223  0.0690  0.9411  0.8794
  217MOL    H8835080   5.829   0.068   5.013  0.6415  1.2993  0.8222
  217MOL    H8935081   5.840   7.193   5.054 -2.5502  2.7778  1.2848
  217MOL    C9035082   6.109   7.195   5.091 -0.2698  0.3078  0.6677
  217MOL    C9135083   6.088   7.038   5.081 -0.5052 -0.0796 -0.1657
  217MOL    N9235084   6.165   6.982   4.968  0.0399 -0.1961 -0.1750
  217MOL    H9335085   6.140   7.226   4.991  2.2335 -0.6058  1.1131
  217MOL    H9435086   6.192   7.225   5.154  2.1909  0.3185 -2.4040
  217MOL    H9535087   5.982   7.029   5.057 -0.3270  0.7791 -1.3389
  217MOL    H9635088   6.161   6.885   4.938 -0.6352  0.2566 -1.5878
  217MOL    H9735089   6.262   7.005   4.984 -0.0423  0.8178 -1.0776
  217MOL    C9835090   6.134   6.962   5.212  0.0304  0.0970  0.1371
  217MOL    C9935091   6.057   7.008   5.338  0.0064  0.4085 -0.9220
  217MOL   N10035092   5.944   6.921   5.348  0.5889 -0.3757 -0.4456
  217MOL   H10135093   6.122   6.856   5.190  0.7742  0.3182 -1.3315
  217MOL   H10235094   6.241   6.979   5.220  0.3470 -1.3786 -0.7575
  217MOL   H10335095   6.016   7.108   5.326 -3.7738 -0.9181  0.1091
  217MOL   H10435096   5.878   6.934   5.273 -0.4021  2.7862  0.8532
  217MOL   H10535097   5.891   6.952   5.429  0.8526  0.7683 -0.6995
  217MOL   C10635098   6.140   6.993   5.472  0.7028 -0.2342 -0.2359
  217MOL   C10735099   6.251   7.100   5.492  0.2033  0.7787 -0.1282
  217MOL   N10835100   6.194   7.231   5.521  0.1352  0.1346  0.0499
  217MOL   H10935101   6.075   7.005   5.559  3.6769  1.1505  1.9211
  217MOL   H11035102   6.178   6.891   5.485 -0.2066 -0.6024 -0.4769
  217MOL   H11135103   6.312   7.109   5.403  0.5642 -0.0245  0.0279
  217MOL   H11235104   6.268   0.021   5.503  1.0574 -0.6895  0.8055
  217MOL   H11335105   6.128   7.263   5.452  0.1438  0.9086  0.3980
  217MOL   C11435106   6.354   7.062   5.606  0.3980 -0.2562  0.1755
  217MOL   C11535107   6.457   6.960   5.566 -0.3785 -0.3461  0.5465
  217MOL   N11635108   6.571   7.029   5.508 -0.1108 -0.1147 -0.0083
  217MOL   H11735109   6.410   7.151   5.635 -0.1286  0.5296 -1.1657
  217MOL   H11835110   6.301   7.024   5.694  0.7149  1.2875  1.0572
  217MOL   H11935111   6.428   6.897   5.482  0.2380  0.1587 -0.0496
  217MOL   H12035112   6.534   7.083   5.431  2.5545  0.5872 -0.8313
  217MOL   H12135113   6.626   6.960   5.459 -3.6847 -2.5152 -0.8903
  217MOL   C12235114   6.496   6.858   5.671 -0.4694 -0.4770 -0.2166
  217MOL   C12335115   6.532   6.717   5.619  0.7958 -0.3832 -0.3790
  217MOL   N12435116   6.616   6.657   5.713 -0.4080  0.2904 -0.4701
  217MOL   H12535117   6.578   6.906   5.724  0.7669 -1.8155 -0.8616
  217MOL   H12635118   6.417   6.866   5.745 -0.4108  0.4292 -0.2454
  217MOL   H12735119   6.589   6.721   5.526  1.9812  0.4133  0.3600
  217MOL   H12835120   6.681   6.725   5.749  0.8035 -0.6932 -0.7549
  217MOL   H12935121   6.679   6.592   5.667 -0.9724  0.1523 -1.0541
  217MOL   C13035122   6.402   6.627   5.589 -0.1176  0.2730 -0.5022
  217MOL   C13135123   6.346   6.624   5.442 -0.5389 -0.3597 -0.2122
  217MOL   N13235124   6.451   6.589   5.344  0.6942  0.7621 -0.1564
  217MOL   H13335125   6.436   6.525   5.610 -0.7222  0.0824 -0.4436
  217MOL   H13435126   6.326   6.652   5.663 -0.6718  0.0407 -0.9907
  217MOL   H13535127   6.328   6.730   5.423 -0.2863 -0.0701  1.1149
  217MOL   H13635128   6.464   6.491   5.328 -0.7117  0.2970  1.3701
  217MOL   H13735129   6.416   6.620   5.254  2.5699  1.1861 -0.7547
  217MOL   C13835130   6.220   6.534   5.420 -0.3386 -0.3854 -0.4779
  217MOL   C13935131   6.087   6.584   5.484  0.4735 -0.4440 -0.2722
  217MOL   N14035132   5.994   6.631   5.384  0.1508  0.3547 -0.3125
  217MOL   H14135133   6.207   6.537   5.312  1.0868  2.0205 -0.6290
  217MOL   H14235134   6.242   6.429   5.434 -0.2657 -0.2368  0.5846
  217MOL   H14335135   6.098   6.652   5.569  2.4104 -0.0907 -0.7839
  217MOL   H14435136   6.021   6.726   5.366 -0.6956  0.1865 -2.5773
  217MOL   H14535137   5.899   6.631   5.418 -1.0113 -1.0238 -3.3804
  217MOL   C14635138   6.007   6.469   5.547 -0.6375 -0.2541 -0.3891
  217MOL   C14735139   6.067   6.414   5.678 -0.1161 -0.0330  0.1075
  217MOL   N14835140   6.036   6.512   5.775  0.7074  0.3406 -0.5088
  217MOL   H14935141   5.906   6.505   5.570  0.8061  3.2024  0.7429
  217MOL   H15035142   5.991   6.394   5.469 -0.6336 -1.2402  0.5595
  217MOL   H15135143   6.173   6.397   5.656 -0.0854 -2.3706  1.8677
  217MOL   H15235144   5.935   6.522   5.783  0.5892 -0.3340 -1.0549
  217MOL   H15335145   6.073   6.603   5.752  2.8432  0.3570  2.7516
  217MOL   C15435146   6.008   6.280   5.709  0.4754 -0.4419  0.0933
  217MOL   C15535147   6.060   6.172   5.612  0.4554 -0.2701  0.7440
  217MOL   N15635148   6.002   6.047   5.652  0.0240 -0.5647  0.8077
  217MOL   H15735149   6.034   6.249   5.810  1.3951  0.1004  0.0219
  217MOL   H15835150   5.899   6.277   5.703  0.4775 -0.1393 -0.1436
  217MOL   H15935151   6.168   6.184   5.617  0.3648  0.9076  0.1027
  217MOL   H16035152   5.956   6.012   5.569  0.4708 -0.6779  0.6003
  217MOL   H16135153   6.076   5.977   5.647  0.4398 -0.1465  1.0685
  217MOL   H16235154   6.043   6.198   5.507  0.3401  1.3978  1.1624
  218MOL     C135155   4.686   1.804   3.948  0.3511 -0.7949  0.6493
  218MOL     C235156   4.747   1.948   3.937  0.4390 -0.3427  0.1355
  218MOL     N335157   4.634   2.043   3.954  0.2783 -0.4663  0.5339
  218MOL     H435158   4.625   1.788   4.037  0.2111  1.4307  0.9839
  218MOL     H535159   4.762   1.725   3.950  1.0795 -0.1033  0.3653
  218MOL     H635160   4.787   1.972   3.838 -0.4745  2.3449  0.3676
  218MOL     H735161   4.675   2.135   3.948  1.8268 -1.1875 -0.4466
  218MOL     H835162   4.553   2.042   3.894  1.9798  0.9841 -1.8763
  218MOL     H935163   4.623   1.792   3.860  1.0089 -1.8176  0.3095
  218MOL    C1035164   4.853   1.970   4.049  0.3601 -0.0087 -0.8482
  218MOL    C1135165   4.992   1.914   4.021  0.5711  0.5103  0.0889
  218MOL    N1235166   5.053   1.993   3.921 -0.2341  0.1983 -0.1035
  218MOL    H1335167   4.873   2.076   4.066  0.2188  0.1409 -1.5817
  218MOL    H1435168   4.814   1.929   4.142 -0.3486  1.3806 -0.5325
  218MOL    H1535169   4.975   1.817   3.973  1.6394 -0.8633  2.3906
  218MOL    H1635170   5.083   1.927   3.851  1.0364 -0.3610  0.9268
  218MOL    H1735171   5.145   2.020   3.953  0.0980 -0.0706 -0.8196
  218MOL    C1835172   5.084   1.884   4.146  0.3976 -0.4320  0.7792
  218MOL    C1935173   5.107   1.999   4.247  0.3135  0.2861 -0.3050
  218MOL    N2035174   5.137   1.933   4.370 -0.4707  0.3874  0.0459
  218MOL    H2135175   5.034   1.804   4.201  0.6873 -0.6687  0.7023
  218MOL    H2235176   5.173   1.834   4.109 -0.3038 -0.9233 -0.2920
  218MOL    H2335177   5.017   2.056   4.266  1.1880  1.5436  0.0818
  218MOL    H2435178   5.050   1.885   4.389 -0.0528 -0.1412  0.6614
  218MOL    H2535179   5.201   1.859   4.345 -0.0829  0.9982 -0.7782
  218MOL    C2635180   5.222   2.090   4.196 -0.4641 -0.2994 -0.3083
  218MOL    C2735181   5.231   2.219   4.272 -0.1236 -0.4423 -0.9813
  218MOL    N2835182   5.275   2.187   4.408 -0.2229 -0.0877  0.4332
  218MOL    H2935183   5.314   2.032   4.188 -1.5373 -2.2753  1.2070
  218MOL    H3035184   5.210   2.119   4.091 -0.1296  0.4437 -0.1447
  218MOL    H3135185   5.133   2.266   4.282 -0.4979 -1.6831  1.5302
  218MOL    H3235186   5.271   2.087   4.420 -2.5776  0.2543  2.9803
  218MOL    H3335187   5.376   2.178   4.410 -0.1937 -0.3926 -1.6714
  218MOL    C3435188   5.326   2.323   4.206 -0.5093  0.3838  0.3181
  218MOL    C3535189   5.350   2.460   4.287  0.4400 -0.2998  0.0937
  218MOL    N3635190   5.474   2.521   4.243 -0.3930 -0.1031 -0.5320
  218MOL    H3735191   5.423   2.273   4.200 -0.8435 -0.4017  1.1507
  218MOL    H3835192   5.295   2.344   4.104 -0.6317 -0.3056  0.2083
  218MOL    H3935193   5.342   2.436   4.393  2.2200 -0.8411  0.1278
  218MOL    H4035194   5.468   2.555   4.148  1.5625  4.2575  0.7185
  218MOL    H4135195   5.480   2.603   4.302 -2.0590 -0.2123 -0.1940
  218MOL    C4235196   5.232   2.561   4.260  0.4734 -0.4827  0.0706
  218MOL    C4335197   5.090   2.518   4.304 -0.5848 -0.6731 -0.7244
  218MOL    N4435198   5.101   2.471   4.443  0.3018  0.6206  0.2372
  218MOL    H4535199   5.259   2.661   4.295  0.0061  0.5792 -2.5095
  218MOL    H4635200   5.230   2.577   4.152  0.3781  1.4611  0.3442
  218MOL    H4735201   5.050   2.442   4.237 -0.8046  0.4842 -1.9250
  218MOL    H4835202   5.005   2.454   4.470  0.4043  2.8568  2.0716
  218MOL    H4935203   5.147   2.381   4.446 -1.9910 -0.6516 -0.6019
  218MOL    C5035204   4.978   2.622   4.293 -0.1714  0.1242  0.2602
  218MOL    C5135205   4.958   2.682   4.150 -0.2337 -0.6687 -0.1085
  218MOL    N5235206   4.835   2.633   4.093 -0.5037 -0.5318  0.6296
  218MOL    H5335207   4.887   2.576   4.332 -1.5972  2.3583 -0.3433
  218MOL    H5435208   4.999   2.702   4.363 -2.1112  0.3301  0.6387
  218MOL    H5535209   5.047   2.660   4.091  0.1474  0.7413 -0.0879
  218MOL    H5635210   4.849   2.540   4.058  0.6144  0.0756 -0.6155
  218MOL    H5735211   4.804   2.686   4.012  1.2070 -0.2084  0.1692
  218MOL    C5835212   4.936   2.840   4.163  0.7097  0.5867  0.5421
  218MOL    C5935213   5.064   2.916   4.203  0.3891  0.4203  0.2045
  218MOL    N6035214   5.147   2.923   4.081  0.5282  1.1061 -0.4119
  218MOL    H6135215   4.891   2.881   4.072 -1.5794 -3.8626 -0.4763
  218MOL    H6235216   4.862   2.855   4.241  1.4806 -1.2752  1.6534
  218MOL    H6335217   5.110   2.862   4.287 -0.3714 -0.9524 -0.2451
  218MOL    H6435218   5.100   2.979   4.012 -1.3460 -0.4098 -0.4002
  218MOL    H6535219   5.245   2.949   4.082  0.6258  0.7248  0.2660
  218MOL    C6635220   5.036   3.059   4.255 -0.3870 -0.4138 -1.0269
  218MOL    C6735221   5.024   3.067   4.413  0.3026  0.6052  0.5076
  218MOL    N6835222   5.054   3.200   4.455  0.3927  0.0312 -0.3741
  218MOL    H6935223   5.117   3.126   4.231 -0.6402  1.2607  2.5337
  218MOL    H7035224   4.946   3.108   4.217  0.5193  1.1149 -1.1897
  218MOL    H7135225   5.096   2.998   4.457  1.3810  1.0848 -0.4654
  218MOL    H7235226   5.026   3.213   4.551 -0.5476 -0.6141 -0.5648
  218MOL    H7335227   5.155   3.210   4.459  0.5011 -1.7116  2.2085
  218MOL    C7435228   4.884   3.043   4.467  0.4766  0.7140  0.1387
  218MOL    C7535229   4.869   2.912   4.555  0.0430 -0.7596  0.9859
  218MOL    N7635230   4.964   2.911   4.665 -0.1314  0.0273 -0.4475
  218MOL    H7735231   4.835   3.126   4.517 -2.8532 -0.6667 -0.6282
  218MOL    H7835232   4.814   3.034   4.384 -0.3632  0.5143  0.8636
  218MOL    H7935233   4.892   2.833   4.484 -0.4758  1.6387 -2.0039
  218MOL    H8035234   5.062   2.895   4.648  0.1457  1.6119 -0.4276
  218MOL    H8135235   4.929   2.847   4.734 -0.0415  0.0004 -0.4267
  218MOL    C8235236   4.721   2.891   4.608  0.9885 -0.1619 -0.1918
  218MOL    C8335237   4.610   2.856   4.505  0.2426  0.4425  0.0424
  218MOL    N8435238   4.637   2.737   4.425  0.0618 -0.0488 -0.0091
  218MOL    H8535239   4.715   2.804   4.674  0.9581 -1.0841 -1.4012
  218MOL    H8635240   4.693   2.982   4.661  0.1156 -0.0581 -0.8276
  218MOL    H8735241   4.607   2.942   4.438  1.6657  0.0130 -0.5900
  218MOL    H8835242   4.578   2.734   4.343 -1.5588 -0.1575  1.1366
  218MOL    H8935243   4.734   2.734   4.398  0.4576 -2.2290  1.5057
  218MOL    C9035244   4.475   2.849   4.578  0.1513 -0.0435 -0.0319
  218MOL    C9135245   4.401   2.988   4.570 -0.4343  0.5716  0.5556
  218MOL    N9235246   4.339   3.003   4.437  0.0422 -0.3158  0.2649
  218MOL    H9335247   4.413   2.774   4.530 -2.2811  0.8603  1.6063
  218MOL    H9435248   4.489   2.812   4.680  1.0423  0.1560 -0.0734
  218MOL    H9535249   4.467   3.075   4.570 -1.0001  1.0019  1.2741
  218MOL    H9635250   4.311   3.097   4.412 -0.3393 -0.7912 -1.1837
  218MOL    H9735251   4.380   2.968   4.352  0.5221  0.2969  0.2429
  218MOL    C9835252   4.293   3.005   4.687  0.0508  0.0271 -0.1068
  218MOL    C9935253   4.360   3.020   4.822  0.3747 -0.1608 -1.3088
  218MOL   N10035254   4.406   3.157   4.822  0.0664  0.3124 -0.3129
  218MOL   H10135255   4.227   3.089   4.667 -0.8713 -0.6558  0.0499
  218MOL   H10235256   4.223   2.923   4.676  0.6507 -0.4445 -0.4697
  218MOL   H10335257   4.449   2.957   4.833 -0.1663 -0.6263  0.5325
  218MOL   H10435258   4.406   3.173   4.922  0.6375 -1.0903 -0.0748
  218MOL   H10535259   4.327   3.212   4.793 -1.3548 -1.1430  0.7556
  218MOL   C10635260   4.251   3.001   4.943  0.5318 -0.3137  0.4611
  218MOL   C10735261   4.312   3.000   5.084 -0.0036 -0.0545  0.3880
  218MOL   N10835262   4.382   3.124   5.105 -0.4262  0.3853  0.2576
  218MOL   H10935263   4.182   3.085   4.934 -0.7106 -1.2819  0.9642
  218MOL   H11035264   4.189   2.912   4.946 -1.2486  0.8482 -1.3029
  218MOL   H11135265   4.379   2.915   5.096  3.1397  2.1993 -0.3657
  218MOL   H11235266   4.441   3.115   5.187 -0.9313 -2.5823  0.3364
  218MOL   H11335267   4.310   3.189   5.130 -0.8164  0.2239 -0.4278
  218MOL   C11435268   4.216   2.971   5.206 -0.2389  0.0272 -0.3935
  218MOL   C11535269   4.174   2.813   5.217 -0.1909  0.1991 -0.1366
  218MOL   N11635270   4.277   2.737   5.285  0.4492  0.2838  0.8913
  218MOL   H11735271   4.267   2.994   5.299 -4.2861 -0.3243  1.9981
  218MOL   H11835272   4.129   3.035   5.197  0.4506  0.7445 -2.4904
  218MOL   H11935273   4.172   2.776   5.114  0.0171  0.1505 -0.1226
  218MOL   H12035274   4.359   2.788   5.313  2.4310 -3.0603  1.4155
  218MOL   H12135275   4.318   2.674   5.216 -0.0453 -0.4653  1.2687
  218MOL   C12235276   4.046   2.783   5.294  1.0990 -0.0165 -0.0028
  218MOL   C12335277   3.918   2.778   5.206 -0.8694 -0.2412 -0.3668
  218MOL   N12435278   3.904   2.642   5.155 -0.2530 -0.0404 -0.4423
  218MOL   H12535279   4.064   2.690   5.349  0.3382 -0.3513 -0.3021
  218MOL   H12635280   4.036   2.858   5.372 -1.0166  1.6562 -1.8366
  218MOL   H12735281   3.935   2.842   5.120 -0.5177  0.0699 -0.0650
  218MOL   H12835282   3.892   2.581   5.234  0.4039 -0.4394 -0.6521
  218MOL   H12935283   3.995   2.614   5.122 -0.8117 -1.2127 -1.0269
  218MOL   C13035284   3.792   2.827   5.280 -0.1346 -0.1749  0.2300
  218MOL   C13135285   3.782   2.975   5.304  0.4320 -0.0431  0.1788
  218MOL   N13235286   3.643   3.026   5.275  0.1247  0.6658 -0.2597
  218MOL   H13335287   3.702   2.786   5.235  0.6398  0.3584 -1.8648
  218MOL   H13435288   3.795   2.773   5.375  0.6272 -1.2576 -0.4032
  218MOL   H13535289   3.849   3.017   5.229 -1.7364  1.9471 -0.7152
  218MOL   H13635290   3.635   3.045   5.176  1.4372  1.6096 -0.2001
  218MOL   H13735291   3.629   3.116   5.318  0.9677  1.0238 -0.7030
  218MOL   C13835292   3.825   3.023   5.450 -0.6531  0.1994 -0.2816
  218MOL   C13935293   3.919   3.148   5.444  0.3659  0.0218  0.2882
  218MOL   N14035294   3.844   3.267   5.404  0.1230  1.0676  0.9071
  218MOL   H14135295   3.738   3.027   5.516 -2.9641  1.2571 -3.2026
  218MOL   H14235296   3.887   2.941   5.484  0.8321  0.8806 -1.2720
  218MOL   H14335297   3.996   3.125   5.371  1.3702  1.2497  0.9471
  218MOL   H14435298   3.794   3.242   5.321  0.9838  0.6145  0.5184
  218MOL   H14535299   3.766   3.275   5.469  1.0212  2.8173  1.8146
  218MOL   C14635300   3.986   3.187   5.579 -0.0995 -0.5751 -1.7169
  218MOL   C14735301   4.120   3.115   5.610  0.2793 -0.0283 -0.4385
  218MOL   N14835302   4.218   3.161   5.507 -0.0933 -0.3940 -0.3298
  218MOL   H14935303   4.002   3.294   5.590  2.0871 -0.7871 -2.4514
  218MOL   H15035304   3.919   3.166   5.662  2.4999  0.4682  0.7357
  218MOL   H15135305   4.103   3.009   5.592 -1.6228  0.5950 -2.5751
  218MOL   H15235306   4.303   3.108   5.519  0.6777  0.9665  0.3866
  218MOL   H15335307   4.248   3.257   5.502 -0.5223 -0.2649 -0.4316
  218MOL   C15435308   4.188   3.137   5.750 -0.0200  0.1831  0.6795
  218MOL   C15535309   4.096   3.102   5.864  0.3435 -0.0709 -0.4579
  218MOL   N15635310   4.158   3.106   5.992  0.0807 -0.6502  0.2691
  218MOL   H15735311   4.276   3.073   5.743 -0.1378  0.2880 -2.2655
  218MOL   H15835312   4.213   3.243   5.760  0.5363  0.1831 -0.6162
  218MOL   H15935313   4.042   3.007   5.863  0.7025 -0.2775 -0.3868
  218MOL   H16035314   4.180   3.202   6.012 -1.3812 -0.4152  0.7524
  218MOL   H16135315   4.081   3.101   6.057  0.1593  2.2111  0.6178
  218MOL   H16235316   4.019   3.178   5.852 -0.8388 -1.4089 -1.5214
  219MOL     C135317   4.272   2.298   2.572  0.3873  0.2196  0.3922
  219MOL     C235318   4.256   2.437   2.514  0.0589 -0.1417  0.1268
  219MOL     N335319   4.167   2.523   2.587  0.1540  0.3287  0.1091
  219MOL     H435320   4.194   2.264   2.640 -1.3994  1.0097 -1.1872
  219MOL     H535321   4.376   2.294   2.602  0.5187  0.1376 -0.0715
  219MOL     H635322   4.214   2.415   2.416 -0.2137 -1.6984  0.5784
  219MOL     H735323   4.180   2.513   2.687  1.8991  1.6712  0.0367
  219MOL     H835324   4.075   2.484   2.573  0.0594  1.3626 -2.2966
  219MOL     H935325   4.262   2.225   2.492 -0.7818 -0.2873  0.9958
  219MOL    C1035326   4.391   2.516   2.505  0.5531 -0.8970 -0.1724
  219MOL    C1135327   4.474   2.458   2.394 -0.0864  0.3076  0.3397
  219MOL    N1235328   4.455   2.532   2.272  0.5378 -0.0428  0.5943
  219MOL    H1335329   4.367   2.616   2.469  0.3538 -0.8619  0.0617
  219MOL    H1435330   4.447   2.517   2.598 -0.2891 -2.7987  0.3772
  219MOL    H1535331   4.445   2.354   2.376  2.4077 -0.0530 -1.9153
  219MOL    H1635332   4.448   2.631   2.288 -2.5173 -0.3720  1.4430
  219MOL    H1735333   4.527   2.523   2.202 -1.3192  1.0938 -1.5154
  219MOL    C1835334   4.623   2.463   2.426 -0.0425  0.1418  0.4947
  219MOL    C1935335   4.709   2.364   2.353 -0.0560  0.1621 -0.6759
  219MOL    N2035336   4.850   2.396   2.381  0.0540 -0.4814  0.8153
  219MOL    H2135337   4.647   2.567   2.401  0.4178 -0.1761 -0.4011
  219MOL    H2235338   4.637   2.467   2.534 -0.0715 -2.4622  0.6213
  219MOL    H2335339   4.706   2.365   2.244 -0.1025 -0.8506 -0.6947
  219MOL    H2435340   4.917   2.325   2.356 -1.5006 -1.9255  0.6363
  219MOL    H2535341   4.871   2.407   2.479 -1.4944  2.4154  0.8780
  219MOL    C2635342   4.684   2.224   2.416  0.1101 -0.0712  0.0462
  219MOL    C2735343   4.714   2.105   2.311 -0.4956 -0.3562 -0.4877
  219MOL    N2835344   4.686   1.982   2.385 -0.2213  0.3550 -0.1180
  219MOL    H2935345   4.744   2.203   2.505 -2.0283 -0.2221  1.4913
  219MOL    H3035346   4.579   2.210   2.441  0.1170 -0.9977 -0.3923
  219MOL    H3135347   4.823   2.106   2.304 -0.3016 -1.5934  1.7922
  219MOL    H3235348   4.611   1.991   2.452 -0.8990 -0.0555 -0.8070
  219MOL    H3335349   4.774   1.958   2.429  0.1148  0.9154 -0.4793
  219MOL    C3435350   4.626   2.104   2.184 -0.0544  0.5190  0.3413
  219MOL    C3535351   4.644   1.986   2.080  0.1213 -0.3032  0.0034
  219MOL    N3635352   4.552   2.004   1.968  0.2034  0.0942  0.4517
  219MOL    H3735353   4.525   2.090   2.224  0.6266 -1.8889  1.3660
  219MOL    H3835354   4.624   2.202   2.137 -0.0692  0.1065 -0.5388
  219MOL    H3935355   4.630   1.889   2.129 -0.1553 -0.9684 -1.3788
  219MOL    H4035356   4.557   2.099   1.936 -0.6549  0.1293  0.3902
  219MOL    H4135357   4.577   1.951   1.886 -2.1903  0.0852 -0.3108
  219MOL    C4235358   4.784   2.001   2.011 -0.6402  0.4849 -0.3396
  219MOL    C4335359   4.829   1.874   1.934 -0.4686 -1.0971 -0.0781
  219MOL    N4435360   4.824   1.907   1.793  0.2506 -0.0931 -0.0402
  219MOL    H4535361   4.796   2.099   1.967 -3.0643  0.1792 -1.7702
  219MOL    H4635362   4.855   2.016   2.093  1.6165 -1.0655 -1.9502
  219MOL    H4735363   4.757   1.793   1.945 -0.9559 -0.7728 -0.8896
  219MOL    H4835364   4.892   1.979   1.774  0.6727 -0.2824  0.7537
  219MOL    H4935365   4.869   1.833   1.741  1.5587  1.4889 -1.2166
  219MOL    C5035366   4.975   1.820   1.963 -0.2035 -0.0405  1.0238
  219MOL    C5135367   4.987   1.750   2.101 -0.1497  0.2092 -0.8774
  219MOL    N5235368   4.913   1.625   2.097  0.0658 -0.1816 -0.2878
  219MOL    H5335369   5.018   1.769   1.876 -1.0724  1.8160 -0.5351
  219MOL    H5435370   5.039   1.908   1.958  0.6396 -0.7589 -1.4169
  219MOL    H5535371   4.933   1.812   2.172 -0.6428 -0.0763 -1.0080
  219MOL    H5635372   4.981   1.561   2.059 -1.7553 -1.6898 -1.0473
  219MOL    H5735373   4.849   1.632   2.019  1.7805  3.2231 -1.4951
  219MOL    C5835374   5.129   1.707   2.144  0.5511  0.1259  0.1258
  219MOL    C5935375   5.133   1.685   2.301 -0.4053 -0.2217  0.3057
  219MOL    N6035376   5.226   1.579   2.337 -0.2904 -0.0186  0.6461
  219MOL    H6135377   5.159   1.613   2.099  0.5790  0.8984 -1.5087
  219MOL    H6235378   5.209   1.772   2.110  1.0760 -0.0116  1.0747
  219MOL    H6335379   5.032   1.655   2.329 -0.5200 -0.6316 -0.5448
  219MOL    H6435380   5.213   1.545   2.431 -1.2753 -2.2301 -0.2709
  219MOL    H6535381   5.220   1.497   2.278  0.7184  1.1739 -1.2001
  219MOL    C6635382   5.159   1.811   2.387  0.3257 -0.7607 -0.6673
  219MOL    C6735383   5.040   1.902   2.414 -0.5548  0.2433  0.1794
  219MOL    N6835384   4.949   1.828   2.501  0.3954  0.0885 -0.6587
  219MOL    H6935385   5.195   1.768   2.480 -1.1087 -1.5963 -0.5001
  219MOL    H7035386   5.235   1.879   2.348 -0.2271 -0.9531 -2.1259
  219MOL    H7135387   4.996   1.937   2.321 -1.3938  0.1516  0.5299
  219MOL    H7235388   4.914   1.747   2.453 -0.3011 -0.5478  0.8801
  219MOL    H7335389   5.004   1.782   2.573  0.6691  1.2283 -0.1330
  219MOL    C7435390   5.058   2.029   2.494  0.7865  0.2355 -0.9320
  219MOL    C7535391   5.147   2.137   2.428 -0.2041 -0.9203  0.4160
  219MOL    N7635392   5.072   2.204   2.324  0.3614 -0.5339 -0.5341
  219MOL    H7735393   4.966   2.081   2.519  2.4537  3.3447 -0.9149
  219MOL    H7835394   5.103   1.998   2.589 -1.2674  0.3256  0.0808
  219MOL    H7935395   5.233   2.093   2.378 -0.8702  0.5309 -2.0815
  219MOL    H8035396   5.042   2.132   2.260 -1.3931 -0.8489  0.5985
  219MOL    H8135397   5.152   2.256   2.290  0.5393  1.6589  2.8870
  219MOL    C8235398   5.199   2.242   2.536 -0.1855 -0.2145  0.2441
  219MOL    C8335399   5.346   2.224   2.577 -0.5918  0.2131  0.4271
  219MOL    N8435400   5.393   2.323   2.675  0.3580  0.3659 -0.0049
  219MOL    H8535401   5.192   2.344   2.499  1.2243  0.0479  0.6907
  219MOL    H8635402   5.139   2.228   2.626 -1.5686  1.9874 -0.2835
  219MOL    H8735403   5.410   2.249   2.492 -0.6502 -2.6162 -0.5005
  219MOL    H8835404   5.314   2.343   2.735 -1.4714 -1.4972 -1.6936
  219MOL    H8935405   5.408   2.409   2.624  2.0566 -1.2693 -2.3906
  219MOL    C9035406   5.380   2.085   2.644  0.0826  0.0363 -0.1115
  219MOL    C9135407   5.536   2.057   2.647  0.5592  0.2471  0.4855
  219MOL    N9235408   5.559   1.947   2.740  0.5428 -0.0899 -0.2153
  219MOL    H9335409   5.348   2.091   2.748  0.7390  0.0005  0.0944
  219MOL    H9435410   5.337   1.995   2.600 -0.4291  0.2822 -0.1143
  219MOL    H9535411   5.576   2.153   2.679 -0.0476  0.7274 -0.1794
  219MOL    H9635412   5.564   1.992   2.831 -2.4896  0.9157 -0.5146
  219MOL    H9735413   5.654   1.912   2.732 -0.0590 -2.0429  0.8668
  219MOL    C9835414   5.590   2.027   2.502  0.3143 -0.1972 -0.5297
  219MOL    C9935415   5.742   2.057   2.486 -0.1300 -0.0955 -1.0037
  219MOL   N10035416   5.793   2.010   2.360 -0.5001  0.2873  0.0883
  219MOL   H10135417   5.555   1.927   2.479  0.6788 -0.0123 -1.9574
  219MOL   H10235418   5.541   2.095   2.432 -1.8406 -0.6059  0.5383
  219MOL   H10335419   5.785   1.990   2.561  2.0774  0.7601 -1.4808
  219MOL   H10435420   5.763   2.072   2.286  0.4687  0.1066 -0.4682
  219MOL   H10535421   5.894   2.018   2.354 -0.5486 -0.6466 -3.0123
  219MOL   C10635422   5.785   2.206   2.511  0.1163  0.6744  0.0305
  219MOL   C10735423   5.827   2.252   2.649 -0.6039 -0.1549 -0.4098
  219MOL   N10835424   5.948   2.198   2.691  0.3269  0.1809 -0.5571
  219MOL   H10935425   5.877   2.225   2.455 -0.8797 -1.1290 -2.3187
  219MOL   H11035426   5.710   2.259   2.452  0.3201 -1.3737 -2.1431
  219MOL   H11135427   5.757   2.217   2.725 -1.6726 -0.2151 -1.4008
  219MOL   H11235428   6.005   2.169   2.613  0.3746 -0.3223 -0.3349
  219MOL   H11335429   6.004   2.261   2.746 -0.2683 -0.6102  0.9868
  219MOL   C11435430   5.840   2.408   2.656  0.1971 -0.1038 -0.0564
  219MOL   C11535431   5.702   2.480   2.674 -0.4500  0.5811 -0.4701
  219MOL   N11635432   5.653   2.487   2.808  0.2342  0.1262  0.6985
  219MOL   H11735433   5.902   2.440   2.740  2.4537 -2.5198 -0.7624
  219MOL   H11835434   5.885   2.436   2.561 -0.5690 -3.8503 -1.5853
  219MOL   H11935435   5.625   2.428   2.618  1.0780 -0.4902 -1.6302
  219MOL   H12035436   5.567   2.539   2.816  0.4704  0.5128  0.7518
  219MOL   H12135437   5.654   2.405   2.867  1.7259  0.2632  0.8920
  219MOL   C12235438   5.720   2.624   2.618  0.5528  0.8317 -0.2866
  219MOL   C12335439   5.626   2.638   2.496  0.0173 -0.0263 -0.4410
  219MOL   N12435440   5.601   2.778   2.474  0.0399 -0.5765  0.3131
  219MOL   H12535441   5.698   2.689   2.702  2.7832 -1.5825  2.2569
  219MOL   H12635442   5.820   2.658   2.592  1.4695 -0.8717  0.9199
  219MOL   H12735443   5.525   2.600   2.515 -0.3892  1.4219  0.3141
  219MOL   H12835444   5.591   2.834   2.558 -0.8827  1.2389 -0.9602
  219MOL   H12935445   5.516   2.804   2.426 -0.5489  1.4050  2.2970
  219MOL   C13035446   5.681   2.586   2.364 -0.2478  0.3613 -0.0495
  219MOL   C13135447   5.581   2.554   2.251  0.3442  0.2577  0.5862
  219MOL   N13235448   5.663   2.506   2.133 -0.1718  0.0275 -0.1753
  219MOL   H13335449   5.755   2.653   2.319  0.0318  0.2606  0.2561
  219MOL   H13435450   5.735   2.493   2.383 -1.5088 -0.1863  0.8700
  219MOL   H13535451   5.534   2.651   2.233 -1.9288 -0.7169  1.2196
  219MOL   H13635452   5.684   2.589   2.079 -0.2240 -0.2695 -0.6494
  219MOL   H13735453   5.596   2.458   2.075  2.6248 -2.2891 -1.6095
  219MOL   C13835454   5.477   2.433   2.274 -0.2622 -0.7448  0.4960
  219MOL   C13935455   5.352   2.437   2.182 -0.7147 -0.0176 -0.5881
  219MOL   N14035456   5.308   2.301   2.144  0.1349  0.0779  0.8247
  219MOL   H14135457   5.531   2.339   2.268 -0.2552 -0.6406 -1.4227
  219MOL   H14235458   5.435   2.437   2.374 -1.0434  0.1849  0.1381
  219MOL   H14335459   5.388   2.481   2.090 -0.7280 -0.1723 -0.6661
  219MOL   H14435460   5.384   2.236   2.160 -0.3074 -1.1431 -1.7924
  219MOL   H14535461   5.302   2.304   2.043  3.5874  0.7178  0.5593
  219MOL   C14635462   5.245   2.530   2.230 -0.6503 -0.2433 -0.0095
  219MOL   C14735463   5.127   2.542   2.135 -0.2443 -0.4364 -0.4554
  219MOL   N14835464   5.017   2.607   2.207  0.5747  0.4183  0.2539
  219MOL   H14935465   5.209   2.491   2.325  3.4946 -0.3708  1.6120
  219MOL   H15035466   5.285   2.630   2.249 -1.3612  0.0384 -0.0124
  219MOL   H15135467   5.098   2.441   2.107 -0.8558  0.2892 -2.5763
  219MOL   H15235468   4.951   2.538   2.240  0.3218  1.6573  2.4242
  219MOL   H15335469   5.038   2.672   2.281  0.5849 -0.7199  1.2622
  219MOL   C15435470   5.149   2.631   2.006 -0.1261  0.0809  0.0743
  219MOL   C15535471   5.205   2.563   1.883  0.0967 -0.3823  0.5780
  219MOL   N15635472   5.227   2.665   1.778  0.2213 -0.2128  0.1895
  219MOL   H15735473   5.050   2.660   1.972  0.7072  2.6675 -0.2568
  219MOL   H15835474   5.197   2.725   2.033 -1.9447  1.5530 -1.6884
  219MOL   H15935475   5.126   2.494   1.853  0.2557 -1.2649  2.1450
  219MOL   H16035476   5.157   2.737   1.790  0.4034  0.8390 -4.2872
  219MOL   H16135477   5.316   2.707   1.799  1.0924 -1.3187 -1.2453
  219MOL   H16235478   5.296   2.511   1.911 -1.1133 -1.5936  2.3939
  220MOL     C135479   5.804   4.181   6.387 -0.3885  0.2454 -0.0367
  220MOL     C235480   5.788   4.298   6.487 -0.3458  0.5801  0.1242
  220MOL     N335481   5.880   4.270   6.596  0.3100  0.1152 -0.2055
  220MOL     H435482   5.719   4.188   6.319 -1.0012  0.6901  0.7626
  220MOL     H535483   5.790   4.083   6.433  0.1995  0.4534  0.5971
  220MOL     H635484   5.691   4.299   6.536  0.4693 -0.4534  1.8182
  220MOL     H735485   5.899   4.354   6.650  1.2089 -0.3688  0.2420
  220MOL     H835486   5.819   4.211   6.651  0.0104 -0.3445 -1.0136
  220MOL     H935487   5.899   4.181   6.333  0.3627  1.5983  1.2493
  220MOL    C1035488   5.818   4.431   6.433  0.4874  0.0220  0.7653
  220MOL    C1135489   5.708   4.504   6.362  0.1858 -0.0570 -0.3872
  220MOL    N1235490   5.611   4.559   6.454 -0.3750 -0.3703 -0.2099
  220MOL    H1335491   5.844   4.498   6.515  0.8262  0.5244  0.2499
  220MOL    H1435492   5.896   4.420   6.358 -0.9299 -3.3514 -0.3130
  220MOL    H1535493   5.658   4.425   6.305  1.8132 -1.4659  0.0656
  220MOL    H1635494   5.532   4.509   6.493 -0.3129  1.3394  2.1801
  220MOL    H1735495   5.571   4.644   6.419  0.0158 -0.5934 -1.2225
  220MOL    C1835496   5.765   4.606   6.261 -0.3636  1.0742 -0.3122
  220MOL    C1935497   5.660   4.660   6.158  0.2959  0.4490  0.0636
  220MOL    N2035498   5.716   4.779   6.100 -0.5292  0.1963  0.3453
  220MOL    H2135499   5.801   4.681   6.331 -1.3312 -0.2937  1.6929
  220MOL    H2235500   5.857   4.575   6.212  1.7626  1.5477  3.2637
  220MOL    H2335501   5.565   4.691   6.201  0.4012  2.2610 -0.9396
  220MOL    H2435502   5.804   4.800   6.145 -0.3974  1.0562 -0.2943
  220MOL    H2535503   5.730   4.796   6.001  0.9012 -1.0405  0.3144
  220MOL    C2635504   5.622   4.563   6.042  0.9405  0.5090 -0.3903
  220MOL    C2735505   5.468   4.562   6.014  0.0761  0.4619 -0.1171
  220MOL    N2835506   5.450   4.478   5.892 -0.5368  0.0044  0.3504
  220MOL    H2935507   5.669   4.592   5.948  0.8822 -3.1562 -1.6166
  220MOL    H3035508   5.651   4.462   6.072  0.8478  0.3514 -0.8337
  220MOL    H3135509   5.445   4.666   5.989 -1.5717  0.0120 -0.5234
  220MOL    H3235510   5.351   4.463   5.877 -0.7307  0.2791  1.3261
  220MOL    H3335511   5.487   4.384   5.891 -0.8413 -0.1923  2.7245
  220MOL    C3435512   5.385   4.508   6.134 -0.4968 -0.4265  0.1018
  220MOL    C3535513   5.233   4.526   6.108  0.5954  0.5399 -0.0317
  220MOL    N3635514   5.158   4.419   6.173 -0.5623 -0.1970  0.0639
  220MOL    H3735515   5.401   4.401   6.149 -1.6931 -0.6437 -0.1326
  220MOL    H3835516   5.407   4.559   6.228 -2.2327  1.6406 -0.5719
  220MOL    H3935517   5.220   4.508   6.002  1.1657  0.1376 -0.0331
  220MOL    H4035518   5.159   4.441   6.272 -0.2840 -1.3393  0.3295
  220MOL    H4135519   5.058   4.429   6.162 -0.8833 -1.9109  1.1446
  220MOL    C4235520   5.180   4.661   6.136 -0.3314 -0.2408  0.3540
  220MOL    C4335521   5.169   4.755   6.016  0.4799 -0.0338 -0.1932
  220MOL    N4435522   5.062   4.720   5.923 -0.2419  0.3139 -0.7273
  220MOL    H4535523   5.077   4.657   6.171 -1.1830 -0.3065 -2.0976
  220MOL    H4635524   5.237   4.704   6.219 -0.0777 -1.5288  0.8502
  220MOL    H4735525   5.261   4.756   5.957  0.6591 -0.3756  0.0771
  220MOL    H4835526   5.084   4.629   5.887  1.3246 -0.0933  1.1526
  220MOL    H4935527   5.058   4.795   5.855 -3.1865  0.4913 -0.4069
  220MOL    C5035528   5.144   4.899   6.073 -0.2794  0.6592  0.5311
  220MOL    C5135529   5.283   4.964   6.103 -0.1319  0.1088  0.2038
  220MOL    N5235530   5.341   5.049   5.998 -0.7819 -0.0293  0.6567
  220MOL    H5335531   5.086   4.950   5.995  1.0749 -2.4754 -2.6758
  220MOL    H5435532   5.083   4.904   6.163 -0.6444 -0.6929  0.3724
  220MOL    H5535533   5.350   4.881   6.125  1.0121  0.9674 -0.0102
  220MOL    H5635534   5.352   4.997   5.912  1.9200  1.0578  0.3164
  220MOL    H5735535   5.439   5.070   6.011 -0.1463 -1.6550 -1.2303
  220MOL    C5835536   5.271   5.054   6.232  0.0023  0.1877  0.1651
  220MOL    C5935537   5.184   5.182   6.230 -0.5565  0.3945 -0.2747
  220MOL    N6035538   5.072   5.151   6.323  0.2912  0.0004  1.0958
  220MOL    H6135539   5.274   4.995   6.324  0.8123  0.7788  0.5351
  220MOL    H6235540   5.374   5.090   6.243  0.4636 -1.6372  2.1555
  220MOL    H6335541   5.152   5.208   6.128  1.6555 -0.8733 -1.3298
  220MOL    H6435542   4.996   5.089   6.297  1.3358  0.0199 -2.3322
  220MOL    H6535543   5.030   5.242   6.330 -1.3538 -0.3425 -2.9071
  220MOL    C6635544   5.246   5.306   6.291 -0.3277 -0.2254 -1.6227
  220MOL    C6735545   5.362   5.368   6.214  0.2672  0.7282  0.1434
  220MOL    N6835546   5.311   5.476   6.126 -0.0417  1.3765  0.7664
  220MOL    H6935547   5.177   5.391   6.297  0.1486  0.0195  0.6937
  220MOL    H7035548   5.276   5.284   6.393  1.6505  1.6289 -1.7802
  220MOL    H7135549   5.421   5.297   6.155 -1.0161  0.7541 -1.1920
  220MOL    H7235550   5.251   5.429   6.060 -1.0389  2.3096  1.0117
  220MOL    H7335551   5.382   5.503   6.059  1.4182 -0.5513  1.4852
  220MOL    C7435552   5.462   5.444   6.291  0.3095  0.0812  0.3583
  220MOL    C7535553   5.539   5.357   6.397 -0.6084 -0.2140  0.1314
  220MOL    N7635554   5.669   5.420   6.409 -0.1184  0.3820 -0.1589
  220MOL    H7735555   5.538   5.482   6.223 -0.5609 -0.0314 -0.6889
  220MOL    H7835556   5.421   5.534   6.336  1.3174  1.5636 -1.6013
  220MOL    H7935557   5.553   5.256   6.359  3.2801  0.2344  0.2442
  220MOL    H8035558   5.715   5.410   6.319 -0.2837 -2.0129 -0.0216
  220MOL    H8135559   5.723   5.358   6.469 -2.1705 -1.9978 -0.6718
  220MOL    C8235560   5.479   5.358   6.540 -0.0002 -0.3416 -0.4938
  220MOL    C8335561   5.510   5.228   6.614  0.3176 -0.5547 -0.2296
  220MOL    N8435562   5.496   5.256   6.759  0.3131 -0.5240 -0.1852
  220MOL    H8535563   5.515   5.445   6.594 -0.2393 -1.4252  1.4699
  220MOL    H8635564   5.371   5.371   6.537 -0.1537 -1.2994  0.6248
  220MOL    H8735565   5.611   5.205   6.580  0.6849  1.2596 -0.4301
  220MOL    H8835566   5.521   5.172   6.809  0.8612  1.0324  2.2367
  220MOL    H8935567   5.558   5.330   6.789  1.6453 -1.9365  0.6009
  220MOL    C9035568   5.424   5.103   6.576  0.1875  0.0140 -0.3263
  220MOL    C9135569   5.474   4.968   6.632  0.9470  0.5927 -0.2725
  220MOL    N9235570   5.379   4.868   6.590 -0.1172 -0.2093 -0.1703
  220MOL    H9335571   5.326   5.123   6.619  0.2940 -0.3645  0.0936
  220MOL    H9435572   5.409   5.104   6.468 -0.9163  0.4370 -0.1777
  220MOL    H9535573   5.470   4.967   6.741 -6.8172  0.7824 -0.2907
  220MOL    H9635574   5.289   4.913   6.590  1.2355  2.6065 -0.7325
  220MOL    H9735575   5.399   4.858   6.492  0.1394  0.1888 -0.1613
  220MOL    C9835576   5.613   4.935   6.574 -0.0905 -0.0539 -0.5652
  220MOL    C9935577   5.714   4.865   6.666  0.4415 -0.2631  0.2848
  220MOL   N10035578   5.822   4.797   6.592  0.0603 -0.4903  0.3282
  220MOL   H10135579   5.594   4.878   6.483  0.6400 -0.2800 -0.5773
  220MOL   H10235580   5.668   5.014   6.523 -0.9519 -0.3204 -1.9318
  220MOL   H10335581   5.674   4.778   6.719  1.2061 -0.2055  0.9665
  220MOL   H10435582   5.886   4.757   6.659  1.3330 -0.0820 -0.6240
  220MOL   H10535583   5.784   4.718   6.541 -0.9007  1.4276 -2.0346
  220MOL   C10635584   5.787   4.963   6.763  0.2306 -1.1341 -0.1039
  220MOL   C10735585   5.787   4.916   6.905 -0.4396 -0.1823  0.0477
  220MOL   N10835586   5.860   5.010   6.984 -0.4886 -0.2174  0.4526
  220MOL   H10935587   5.885   4.989   6.721  1.3889 -1.2356  2.4312
  220MOL   H11035588   5.732   5.057   6.769 -0.6153 -1.3467 -3.4092
  220MOL   H11135589   5.837   4.819   6.899 -0.1056 -0.1257  1.6535
  220MOL   H11235590   5.829   5.106   6.978 -0.2086 -0.1859 -0.6382
  220MOL   H11335591   5.957   5.009   6.955 -0.3151 -1.4037  1.0364
  220MOL   C11435592   5.642   4.907   6.967  0.1323 -0.0771  0.0376
  220MOL   C11535593   5.650   4.830   7.102  0.2087  0.0851 -0.2614
  220MOL   N11635594   5.535   4.863   7.192  0.5557  0.7122 -0.1197
  220MOL   H11735595   5.602   5.008   6.974  0.8219  0.1081  1.5873
  220MOL   H11835596   5.573   4.850   6.904 -2.1304 -1.4902  3.6085
  220MOL   H11935597   5.730   4.869   7.166 -0.5018 -0.9630  1.3053
  220MOL   H12035598   5.552   4.949   7.242  2.3860 -0.6366  1.7011
  220MOL   H12135599   5.453   4.890   7.139  0.1240  2.9291  1.6114
  220MOL   C12235600   5.660   4.679   7.086 -0.1316 -0.4139 -0.6849
  220MOL   C12335601   5.798   4.623   7.103 -0.7135  0.1518 -0.3004
  220MOL   N12435602   5.830   4.634   7.248  0.4529  0.0719 -0.2199
  220MOL   H12535603   5.605   4.625   7.162  0.4297 -0.9218 -0.6343
  220MOL   H12635604   5.620   4.645   6.991 -2.1727 -0.4564  0.1589
  220MOL   H12735605   5.860   4.694   7.048  1.5971 -0.5959  1.2497
  220MOL   H12835606   5.772   4.572   0.027  1.1337 -1.4563 -1.2242
  220MOL   H12935607   5.790   4.725   7.265  0.8544 -0.1074  1.8921
  220MOL   C13035608   5.822   4.482   7.047 -0.5303 -0.5651 -0.8206
  220MOL   C13135609   5.951   4.450   6.973  0.5287 -0.6814  0.0407
  220MOL   N13235610   5.965   4.305   6.954 -0.1241  0.3698  0.0978
  220MOL   H13335611   5.829   4.423   7.138  0.1358  2.0900  0.9276
  220MOL   H13435612   5.739   4.441   6.990 -2.6746  0.0498  1.7727
  220MOL   H13535613   6.027   4.487   7.042 -0.2299  0.9994  0.0098
  220MOL   H13635614   5.972   4.256   7.042  0.8097 -3.4983 -2.0251
  220MOL   H13735615   6.052   4.282   6.908 -1.5666 -0.1793 -2.4715
  220MOL   C13835616   5.954   4.518   6.839 -0.3172  0.5147  0.0622
  220MOL   C13935617   6.099   4.560   6.796  0.1816  0.5223  0.2233
  220MOL   N14035618   6.095   4.605   6.664 -0.0087 -0.4312  0.3613
  220MOL   H14135619   5.911   4.454   6.763 -0.9633 -0.8988  1.5869
  220MOL   H14235620   5.900   4.614   6.838 -0.7857  0.2647  0.7466
  220MOL   H14335621   6.162   4.472   6.794  0.7762  0.9498  0.0870
  220MOL   H14435622   6.190   4.635   6.648 -0.0217 -0.7588 -0.3735
  220MOL   H14535623   6.081   4.520   6.611  1.4347 -0.6511  0.3003
  220MOL   C14635624   6.161   4.678   6.880 -0.0974  0.6304  0.2745
  220MOL   C14735625   6.249   4.645   7.007  0.3987  0.0300  0.2621
  220MOL   N14835626   6.384   4.608   6.962  0.4080 -0.5305  0.5739
  220MOL   H14935627   6.231   4.742   6.827  0.7260 -0.8761 -0.4723
  220MOL   H15035628   6.073   4.737   6.905 -0.5534 -0.0034  0.1909
  220MOL   H15135629   6.212   4.558   7.061 -0.0906  0.2217  0.2359
  220MOL   H15235630   6.439   4.597   7.046  1.6895  2.4800  0.1611
  220MOL   H15335631   6.367   4.512   6.936 -2.4923  0.5755 -1.9069
  220MOL   C15435632   6.268   4.766   7.108 -0.1986 -0.1240  0.2090
  220MOL   C15535633   6.143   4.796   7.183 -0.4061 -0.1103 -0.6929
  220MOL   N15635634   6.173   4.898   0.014 -0.0658  0.0716 -0.2116
  220MOL   H15735635   6.344   4.737   7.180 -1.0624 -1.8132  0.4600
  220MOL   H15835636   6.312   4.848   7.052  0.9899  0.0928  1.4203
  220MOL   H15935637   6.097   4.712   7.236 -0.9697  0.5863 -0.0514
  220MOL   H16035638   6.091   4.953   0.035  0.4055  0.4135  0.7875
  220MOL   H16135639   6.239   4.967   7.256 -0.4559  1.2095  1.2629
  220MOL   H16235640   6.075   4.843   7.112 -0.6785 -0.6751 -0.8077
  221MOL     C135641   1.909   6.910   6.965  0.1593  0.6919  0.1741
  221MOL     C235642   1.763   6.957   6.960 -0.6308  0.7401 -0.4964
  221MOL     N335643   1.725   6.998   7.094 -0.0677  0.3692  0.6753
  221MOL     H435644   1.932   6.850   7.054 -0.5836  1.7849  1.1219
  221MOL     H535645   1.979   6.994   6.966  1.8314 -0.6221 -1.8602
  221MOL     H635646   1.698   6.871   6.943  1.5751 -0.8381 -1.2827
  221MOL     H735647   1.652   7.068   7.102 -2.0100 -1.6967  1.8576
  221MOL     H835648   1.705   6.922   7.157  0.1666 -1.0785 -0.9655
  221MOL     H935649   1.920   6.842   6.881 -1.5260 -3.1962  2.9248
  221MOL    C1035650   1.740   7.067   6.859  0.2186 -0.6334 -0.0863
  221MOL    C1135651   1.734   7.019   6.710 -0.4743  0.2193  0.0620
  221MOL    N1235652   1.615   6.941   6.704 -0.0457  0.5312 -0.3083
  221MOL    H1335653   1.644   7.117   6.871 -0.6378 -2.2355 -0.1206
  221MOL    H1435654   1.818   7.143   6.869  1.5183 -2.1437  1.5272
  221MOL    H1535655   1.812   6.953   6.674 -0.9886  0.0901 -0.8422
  221MOL    H1635656   1.566   6.929   6.617 -0.5889  1.3193 -0.1169
  221MOL    H1735657   1.618   6.854   6.755 -0.4364 -0.1756 -1.4692
  221MOL    C1835658   1.725   7.134   6.607 -0.6139 -0.0288 -0.3650
  221MOL    C1935659   1.853   7.189   6.547  0.3132  0.0035 -0.0420
  221MOL    N2035660   1.925   7.103   6.460  0.2019 -0.2618  0.8005
  221MOL    H2135661   1.654   7.119   6.526  0.1052 -2.2982 -0.6252
  221MOL    H2235662   1.678   7.221   6.653 -1.3768 -1.1382  0.9972
  221MOL    H2335663   1.914   7.210   6.635 -0.2753  0.5870  0.2339
  221MOL    H2435664   1.947   7.029   6.525  1.9728  1.0101  1.7014
  221MOL    H2535665   2.014   7.138   6.429 -0.6901  2.0648  0.6826
  221MOL    C2635666   1.832   0.049   6.484  0.3033 -0.1841 -0.0601
  221MOL    C2735667   1.831   0.164   6.586 -0.3542 -0.5952  0.7943
  221MOL    N2835668   1.968   0.209   6.602 -0.4446  0.2226 -0.0984
  221MOL    H2935669   1.914   0.062   6.413 -0.3986 -0.7494 -0.9906
  221MOL    H3035670   1.743   0.045   6.421  0.2030  2.1492 -0.0958
  221MOL    H3135671   1.794   0.129   6.683 -2.8273 -1.5708 -0.4627
  221MOL    H3235672   2.030   0.134   6.629 -0.6285  0.7015  1.6946
  221MOL    H3335673   2.010   0.242   6.516 -0.2115 -1.5319 -0.6620
  221MOL    C3435674   1.753   0.288   6.539 -0.9643  0.1800 -0.4149
  221MOL    C3535675   1.604   0.266   6.530 -0.1094  0.4199  0.3879
  221MOL    N3635676   1.534   0.296   6.655  0.1093  0.0348  0.0020
  221MOL    H3735677   1.764   0.356   6.624  0.3540 -0.5910  0.0536
  221MOL    H3835678   1.795   0.330   6.448 -0.4319 -1.3949 -0.9029
  221MOL    H3935679   1.585   0.158   6.529  2.3103 -0.0392  1.1790
  221MOL    H4035680   1.461   0.362   6.633  2.1231  2.1265 -0.6179
  221MOL    H4135681   1.596   0.353   6.712  1.3567 -0.7883 -0.5194
  221MOL    C4235682   1.520   0.341   6.429 -0.1714  0.5266  0.5106
  221MOL    C4335683   1.578   0.311   6.287  0.3372 -0.7119 -0.0655
  221MOL    N4435684   1.475   0.296   6.188 -0.4823 -0.5471 -0.0413
  221MOL    H4535685   1.415   0.311   6.434 -0.1218  0.1968 -0.2932
  221MOL    H4635686   1.527   0.447   6.451  0.5557  0.7090 -0.5283
  221MOL    H4735687   1.632   0.217   6.287 -0.2725 -1.0656 -0.2541
  221MOL    H4835688   1.481   0.201   6.156  1.7348 -0.4257 -0.0537
  221MOL    H4935689   1.384   0.298   6.233 -0.6652 -0.8381 -0.3912
  221MOL    C5035690   1.661   0.425   6.239 -0.1142  0.2145 -0.3202
  221MOL    C5135691   1.785   0.373   6.165 -0.2524 -0.2578  0.1883
  221MOL    N5235692   1.752   0.315   6.039  0.1700 -0.2234 -0.4803
  221MOL    H5335693   1.604   0.503   6.186 -0.4928 -0.1806 -0.4983
  221MOL    H5435694   1.692   0.490   6.321  3.6633 -0.9544 -0.7664
  221MOL    H5535695   1.835   0.290   6.215 -0.9608 -0.3593  0.7437
  221MOL    H5635696   1.796   0.368   5.965 -0.7803 -1.2936 -1.8555
  221MOL    H5735697   1.653   0.331   6.024 -0.5917 -1.7585  2.5803
  221MOL    C5835698   1.886   0.490   6.137 -0.7140  0.1408 -0.1166
  221MOL    C5935699   1.968   0.531   6.262 -0.3613 -0.1030  0.2876
  221MOL    N6035700   2.050   0.421   6.297  0.1449  0.0250 -0.0010
  221MOL    H6135701   1.946   0.478   6.047  1.6280  0.0754  1.3968
  221MOL    H6235702   1.832   0.584   6.135 -0.6857  0.1646  0.2198
  221MOL    H6335703   1.895   0.558   6.339 -1.4913  0.8398 -1.0953
  221MOL    H6435704   1.988   0.354   6.340 -1.2730  0.5464 -1.2125
  221MOL    H6535705   2.107   0.386   6.221  1.5270 -0.4532  1.2121
  221MOL    C6635706   2.066   0.651   6.248  0.1790 -0.4253  0.4448
  221MOL    C6735707   2.032   0.770   6.151 -0.3833  0.0179 -0.9950
  221MOL    N6835708   1.982   0.880   6.229 -0.7300  0.1619  0.1060
  221MOL    H6935709   2.080   0.688   6.350  0.3500  1.4755 -0.2530
  221MOL    H7035710   2.166   0.620   6.219 -0.7898 -2.4363 -0.8196
  221MOL    H7135711   1.970   0.726   6.073 -0.0192  0.5062 -1.5646
  221MOL    H7235712   2.054   0.903   6.296 -1.7070  1.7064  0.6482
  221MOL    H7335713   1.962   0.965   6.180 -0.1653  0.2682  0.0571
  221MOL    C7435714   2.151   0.808   6.064 -1.0190  0.0613 -0.0204
  221MOL    C7535715   2.175   0.712   5.946  0.1260 -0.3971 -0.3477
  221MOL    N7635716   2.078   0.739   5.835 -0.3604 -0.2228  0.0649
  221MOL    H7735717   2.149   0.911   6.027  1.1739  0.7868  1.7399
  221MOL    H7835718   2.244   0.814   6.120  0.5100 -0.8593 -2.3913
  221MOL    H7935719   2.144   0.610   5.969  0.9795 -0.5530  0.1302
  221MOL    H8035720   2.087   0.667   5.764 -1.7207  1.3804 -1.7998
  221MOL    H8135721   2.121   0.815   5.783 -0.9577  1.5920  2.1701
  221MOL    C8235722   2.312   0.737   5.875  0.1729 -0.6536 -0.0569
  221MOL    C8335723   2.438   0.680   5.947  0.0267  0.9208 -0.0052
  221MOL    N8435724   2.430   0.531   5.956  0.9841  0.2212  0.4602
  221MOL    H8535725   2.306   0.685   5.779  0.1021 -0.4912 -0.1416
  221MOL    H8635726   2.315   0.843   5.848 -0.5235 -0.1430  1.8360
  221MOL    H8735727   2.437   0.711   6.052  0.2175 -0.8647  0.5444
  221MOL    H8835728   2.496   0.496   6.024 -0.0444 -1.2642  0.7256
  221MOL    H8935729   2.340   0.507   5.997  0.1558  0.8648 -0.9417
  221MOL    C9035730   2.575   0.721   5.894 -0.0437  0.0118 -0.0781
  221MOL    C9135731   2.618   0.866   5.913 -0.0028 -0.4922  0.0417
  221MOL    N9235732   2.654   0.915   6.044  0.2294  0.5868  0.2544
  221MOL    H9335733   2.649   0.657   5.943 -1.2205 -0.8260  0.6046
  221MOL    H9435734   2.586   0.705   5.787 -1.1438 -0.9803 -0.0513
  221MOL    H9535735   2.536   0.924   5.871 -0.8661 -0.5881  1.5768
  221MOL    H9635736   2.721   0.845   6.072  0.2374  0.4797 -0.0367
  221MOL    H9735737   2.575   0.901   6.106 -0.3414 -0.1404 -0.6212
  221MOL    C9835738   2.744   0.911   5.829  0.2704 -0.1727 -0.0421
  221MOL    C9935739   2.723   0.924   5.677 -0.0042  0.9633  0.4876
  221MOL   N10035740   2.649   1.044   5.641  0.3105 -0.4063 -0.2264
  221MOL   H10135741   2.775   1.008   5.867 -1.1715  0.2870 -0.0171
  221MOL   H10235742   2.822   0.843   5.863 -1.6411 -1.5500  1.6748
  221MOL   H10335743   2.673   0.831   5.651 -0.5597  1.6369 -0.8697
  221MOL   H10435744   2.653   1.066   5.543  0.3420  2.6854  0.4029
  221MOL   H10535745   2.551   1.018   5.646  0.5750 -1.0962  2.0284
  221MOL   C10635746   2.867   0.934   5.609 -0.3612 -0.2502 -1.2383
  221MOL   C10735747   2.860   0.891   5.461 -0.0384 -0.7755 -0.9673
  221MOL   N10835748   2.991   0.921   5.407  0.5263 -0.2611 -0.0454
  221MOL   H10935749   2.904   1.035   5.622 -1.5626  0.3443 -2.3413
  221MOL   H11035750   2.939   0.867   5.658 -2.1928 -0.7231  0.8951
  221MOL   H11135751   2.791   0.965   5.420 -0.0763 -0.7510 -0.8607
  221MOL   H11235752   3.018   1.005   5.454 -0.5333 -1.0167  1.9501
  221MOL   H11335753   3.057   0.848   5.431 -0.2277 -1.3127 -1.0773
  221MOL   C11435754   2.820   0.750   5.441 -0.2815 -0.0263 -0.6715
  221MOL   C11535755   2.715   0.735   5.328 -0.2564 -0.4054 -0.4546
  221MOL   N11635756   2.711   0.605   5.274  0.0506  0.2464  0.2755
  221MOL   H11735757   2.910   0.694   5.415  0.0212 -0.8435  1.9374
  221MOL   H11835758   2.785   0.700   5.532 -2.6119 -0.0571 -1.5553
  221MOL   H11935759   2.753   0.808   5.256 -2.0775  0.4602 -0.5554
  221MOL   H12035760   2.652   0.553   5.337 -1.1764 -1.4898 -2.2236
  221MOL   H12135761   2.654   0.617   5.192  0.5455  2.7329  0.2415
  221MOL   C12235762   2.567   0.765   5.363 -0.2792  0.0181  0.0538
  221MOL   C12335763   2.479   0.793   5.237 -0.0071  0.3169 -0.8554
  221MOL   N12435764   2.336   0.762   5.269  0.2515 -0.5504 -0.0521
  221MOL   H12535765   2.524   0.681   5.417  0.3454 -1.8957 -2.3046
  221MOL   H12635766   2.555   0.855   5.423  2.0199  0.9542 -0.8504
  221MOL   H12735767   2.519   0.724   5.163  0.6143 -0.4976  0.2185
  221MOL   H12835768   2.322   0.666   5.241 -1.4558  0.0035 -1.1606
  221MOL   H12935769   2.266   0.805   5.210  1.7147  1.1771 -0.5907
  221MOL   C13035770   2.493   0.938   5.184 -0.3392 -0.4344  0.4185
  221MOL   C13135771   2.556   0.950   5.045 -0.6988 -0.3986 -0.0974
  221MOL   N13235772   2.453   0.933   4.939 -0.3328  0.0328 -0.1650
  221MOL   H13335773   2.396   0.987   5.177 -0.3975  0.0564  3.8532
  221MOL   H13435774   2.542   0.993   5.265  0.2577 -1.1416  0.5456
  221MOL   H13535775   2.641   0.883   5.036  0.7748  1.4683 -0.4519
  221MOL   H13635776   2.426   0.836   4.947 -1.1007  0.3881  1.8319
  221MOL   H13735777   2.485   0.939   4.843  2.4706  0.0125  0.7079
  221MOL   C13835778   2.621   1.094   5.030 -0.0721 -0.1619 -0.9962
  221MOL   C13935779   2.761   1.105   5.095 -0.6045  0.0224 -0.0807
  221MOL   N14035780   2.861   1.038   5.017 -0.3389  0.0845  0.6502
  221MOL   H14135781   2.617   1.130   4.927  2.3636 -0.2042 -1.1238
  221MOL   H14235782   2.551   1.161   5.080  2.0837  2.2136 -1.0614
  221MOL   H14335783   2.761   1.063   5.196  0.5283  1.9055  0.7302
  221MOL   H14435784   2.837   1.043   4.919  2.1264  2.2354  0.0944
  221MOL   H14535785   2.951   1.084   5.015 -1.2105  2.0485  4.0827
  221MOL   C14635786   2.804   1.252   5.110  0.4957  0.5185  0.3923
  221MOL   C14735787   2.943   1.279   5.169  1.1160  0.3257 -0.0178
  221MOL   N14835788   3.029   1.344   5.065  0.0756 -0.3615 -0.5827
  221MOL   H14935789   2.786   1.307   5.018  0.2281  0.6293  0.5098
  221MOL   H15035790   2.728   1.305   5.168 -0.6832  1.0018 -1.5605
  221MOL   H15135791   3.005   1.191   5.185  1.6757  0.3644 -1.8132
  221MOL   H15235792   3.017   1.444   5.067 -1.7226 -0.5759 -0.5293
  221MOL   H15335793   3.129   1.328   5.064  0.1539  0.1463 -1.0879
  221MOL   C15435794   2.941   1.358   5.300 -0.9245 -0.0811  0.7868
  221MOL   C15535795   3.078   1.343   5.369 -0.5073  0.1096  0.0850
  221MOL   N15635796   3.091   1.437   5.477  0.1164  0.0724  0.3770
  221MOL   H15735797   2.911   1.462   5.287 -0.0461  0.0525 -0.1977
  221MOL   H15835798   2.871   1.308   5.368  0.4172 -2.6602  0.3458
  221MOL   H15935799   3.159   1.353   5.296 -1.7555  1.0068 -1.1959
  221MOL   H16035800   3.010   1.474   5.525 -0.6140  1.7085 -2.0338
  221MOL   H16135801   3.143   1.389   5.549  0.9039  0.6353  0.1870
  221MOL   H16235802   3.082   1.239   5.403  0.7910  0.9128  2.4770
  222MOL     C135803   4.574   3.278   1.888 -0.0484  0.4219 -0.3564
  222MOL     C235804   4.548   3.390   1.988  0.0774  0.3471 -0.1658
  222MOL     N335805   4.409   3.367   2.024 -0.4381 -0.5212  0.1114
  222MOL     H435806   4.562   3.181   1.936  2.9731  0.3762  0.3981
  222MOL     H535807   4.681   3.277   1.867  0.1729  0.6680  0.7172
  222MOL     H635808   4.549   3.487   1.937 -3.4022 -0.3527 -1.7020
  222MOL     H735809   4.351   3.352   1.943 -0.6763  0.2895  0.1276
  222MOL     H835810   4.365   3.444   2.073 -0.8098 -0.3106 -0.5521
  222MOL     H935811   4.508   3.291   1.802 -0.5348  0.4614  0.0243
  222MOL    C1035812   4.641   3.366   2.113 -0.2162 -0.3324  0.4193
  222MOL    C1135813   4.785   3.406   2.097 -0.1699  0.4044 -0.0134
  222MOL    N1235814   4.796   3.554   2.118  0.0778 -0.4465  0.2475
  222MOL    H1335815   4.595   3.400   2.205 -2.6490 -1.2896 -0.3905
  222MOL    H1435816   4.642   3.258   2.125  1.9527 -0.3615  0.1416
  222MOL    H1535817   4.832   3.394   2.000 -0.9692 -0.5225 -0.2806
  222MOL    H1635818   4.874   3.585   2.062  1.8382 -1.8993  1.8190
  222MOL    H1735819   4.724   3.611   2.077  0.9106  0.8239  0.5071
  222MOL    C1835820   4.886   3.333   2.192  0.1616 -0.7113 -0.1805
  222MOL    C1935821   4.965   3.222   2.126 -0.4861  0.3506 -0.1648
  222MOL    N2035822   5.078   3.198   2.207 -0.4097 -0.3267 -0.1524
  222MOL    H2135823   4.955   3.413   2.219  0.2634 -0.5380 -0.9431
  222MOL    H2235824   4.837   3.292   2.281  1.2399  0.0349  0.7787
  222MOL    H2335825   5.006   3.251   2.029 -1.9087 -0.0394 -0.8980
  222MOL    H2435826   5.106   3.101   2.199 -2.4547 -0.9611 -0.0360
  222MOL    H2535827   5.045   3.203   2.303 -1.0006  0.6281 -0.4076
  222MOL    C2635828   4.871   3.093   2.107  0.8406  0.2616  0.5604
  222MOL    C2735829   4.932   2.963   2.039 -0.2519 -0.0438 -0.7328
  222MOL    N2835830   4.855   2.852   2.103 -0.2214 -0.1735  0.1882
  222MOL    H2935831   4.842   3.075   2.210  2.4669 -1.3944  0.7562
  222MOL    H3035832   4.788   3.134   2.050  0.1173 -1.0500  0.6465
  222MOL    H3135833   5.038   2.948   2.061 -0.3831 -0.5663 -0.4608
  222MOL    H3235834   4.911   2.769   2.089 -2.5010 -1.4053 -2.2565
  222MOL    H3335835   4.845   2.863   2.203 -3.7315 -1.0537  0.0187
  222MOL    C3435836   4.910   2.943   1.893  0.6086  0.0781  0.1180
  222MOL    C3535837   4.979   3.050   1.805  0.3380  0.6318  0.1895
  222MOL    N3635838   5.124   3.022   1.809  0.1308  0.3411 -0.2584
  222MOL    H3735839   4.930   2.841   1.860  0.6773 -0.0661  0.5979
  222MOL    H3835840   4.802   2.952   1.881  0.2363 -0.6917  2.6923
  222MOL    H3935841   4.960   3.142   1.859 -1.2420 -0.7497  2.0687
  222MOL    H4035842   5.160   3.027   1.903  0.0687 -1.2788 -0.1418
  222MOL    H4135843   5.149   3.103   1.754  0.2735 -0.7673 -1.8419
  222MOL    C4235844   4.930   3.055   1.661  0.7150  0.7059  0.4837
  222MOL    C4335845   4.984   3.171   1.572 -0.3178 -0.4205  0.0445
  222MOL    N4435846   4.949   3.148   1.441  0.6969  0.2094 -0.3459
  222MOL    H4535847   4.961   2.959   1.622 -1.6080  0.7942 -1.6760
  222MOL    H4635848   4.822   3.061   1.652  0.7008 -0.4031 -0.1540
  222MOL    H4735849   5.093   3.177   1.574 -0.1765 -2.4355  0.2876
  222MOL    H4835850   4.996   3.062   1.418 -2.4662 -1.4604 -0.8445
  222MOL    H4935851   4.988   3.223   1.386 -1.7188  0.0299 -2.3817
  222MOL    C5035852   4.927   3.304   1.599 -0.3871 -0.0829 -0.2466
  222MOL    C5135853   5.003   3.384   1.710 -0.1357  0.1925  0.4438
  222MOL    N5235854   5.146   3.362   1.700  0.8061 -0.1974 -0.6291
  222MOL    H5335855   4.953   3.363   1.511  3.4694  0.5062  1.1817
  222MOL    H5435856   4.820   3.300   1.618  0.0521  1.3658  2.8481
  222MOL    H5535857   4.974   3.343   1.807 -0.8744 -0.1416  0.0813
  222MOL    H5635858   5.173   3.439   1.759  1.0586 -1.7590  1.3246
  222MOL    H5735859   5.178   3.397   1.611 -1.7709  0.6101 -1.2857
  222MOL    C5835860   4.969   3.539   1.709  0.0881  0.1577  0.1394
  222MOL    C5935861   4.821   3.571   1.728 -0.4075  0.0089  0.6048
  222MOL    N6035862   4.826   3.705   1.780  0.1433  0.3421  0.3692
  222MOL    H6135863   5.033   3.589   1.781 -1.7946 -1.4861  3.0612
  222MOL    H6235864   5.003   3.577   1.613 -1.5519  0.3702 -0.3734
  222MOL    H6335865   4.770   3.519   1.809 -0.1912 -0.1041  0.6682
  222MOL    H6435866   4.907   3.725   1.836  1.0560  3.7264 -2.0047
  222MOL    H6535867   4.741   3.712   1.834 -0.5060 -0.4559 -0.5249
  222MOL    C6635868   4.746   3.570   1.591  0.2759  0.2092 -0.6743
  222MOL    C6735869   4.597   3.543   1.599 -0.7323 -0.2822 -0.6828
  222MOL    N6835870   4.538   3.662   1.657 -0.4969  0.3542 -0.0234
  222MOL    H6935871   4.767   3.662   1.536 -0.0839  1.3546  1.0959
  222MOL    H7035872   4.795   3.499   1.523  0.2754 -1.3284  0.9033
  222MOL    H7135873   4.577   3.461   1.668 -2.8935 -0.5139 -1.5564
  222MOL    H7235874   4.543   3.726   1.579  2.6184 -0.0988 -0.2745
  222MOL    H7335875   4.441   3.654   1.683  0.0018 -2.2691  1.2815
  222MOL    C7435876   4.541   3.503   1.459 -0.5821  1.2835 -0.3647
  222MOL    C7535877   4.564   3.360   1.408 -0.2642  0.3984 -0.5301
  222MOL    N7635878   4.467   3.264   1.458  0.3056 -0.4670 -0.0504
  222MOL    H7735879   4.434   3.520   1.457 -0.8440 -0.1224  0.5630
  222MOL    H7835880   4.584   3.575   1.390  1.5068 -1.0438 -1.5829
  222MOL    H7935881   4.660   3.317   1.437 -1.1284 -0.9276  0.4624
  222MOL    H8035882   4.527   3.190   1.490  0.3789 -0.5758 -0.4380
  222MOL    H8135883   4.421   3.221   1.379 -1.4995 -0.7601  1.1344
  222MOL    C8235884   4.567   3.341   1.257  0.8017  0.1274 -0.6914
  222MOL    C8335885   4.690   3.389   1.183 -0.6082  0.3866 -0.2707
  222MOL    N8435886   4.791   3.286   1.190  0.5009 -0.3071  0.3516
  222MOL    H8535887   4.552   3.235   1.234  1.3716  0.0132 -0.5349
  222MOL    H8635888   4.473   3.376   1.215  0.6434 -0.3195 -0.7109
  222MOL    H8735889   4.726   3.479   1.233 -0.9649  0.8505 -0.8451
  222MOL    H8835890   4.880   3.322   1.159  0.5210  0.1629  0.9617
  222MOL    H8935891   4.799   3.275   1.290 -0.3729  0.0597  0.4648
  222MOL    C9035892   4.654   3.409   1.030  0.1027  0.1937 -0.5487
  222MOL    C9135893   4.590   3.547   0.987 -0.4998 -0.7384 -0.3929
  222MOL    N9235894   4.694   3.651   0.994  0.3680 -0.6807 -0.1383
  222MOL    H9335895   4.743   3.411   0.967 -0.7959  0.7191 -1.8253
  222MOL    H9435896   4.596   3.321   1.002  1.6203 -1.1664  0.4362
  222MOL    H9535897   4.521   3.562   1.070  1.8817  2.7966  1.0388
  222MOL    H9635898   4.746   3.631   1.078 -0.2225  0.2504  0.4600
  222MOL    H9735899   4.647   3.733   1.030 -0.2606 -0.9270 -0.3798
  222MOL    C9835900   4.518   3.549   0.849  0.1527 -0.4434 -0.0571
  222MOL    C9935901   4.384   3.468   0.841 -0.3434  0.8161 -0.0402
  222MOL   N10035902   4.279   3.552   0.888 -0.2001  0.3088 -0.3048
  222MOL   H10135903   4.491   3.651   0.822 -0.9428 -0.2519  1.7217
  222MOL   H10235904   4.590   3.506   0.778 -1.0681 -1.9630 -0.4203
  222MOL   H10335905   4.393   3.371   0.890  0.0145  1.4866  1.2581
  222MOL   H10435906   4.195   3.521   0.841  0.7371 -0.3951 -1.5288
  222MOL   H10535907   4.267   3.509   0.979 -0.2767 -0.3095 -0.6059
  222MOL   C10635908   4.349   3.430   0.691  0.1837  0.2822  0.7609
  222MOL   C10735909   4.454   3.335   0.629  0.2195 -0.2949  0.4019
  222MOL   N10835910   4.463   3.217   0.712 -0.2206  0.1071  0.3388
  222MOL   H10935911   4.247   3.392   0.693  0.8987 -1.7097  0.0948
  222MOL   H11035912   4.344   3.522   0.633  2.7605 -1.0684 -1.7122
  222MOL   H11135913   4.550   3.387   0.629 -1.4107  2.9457 -2.3863
  222MOL   H11235914   4.379   3.163   0.700 -0.3044  0.1706  0.6507
  222MOL   H11335915   4.529   3.151   0.674 -1.0490  0.4148 -1.7305
  222MOL   C11435916   4.427   3.296   0.485 -0.3555 -0.1161 -0.6465
  222MOL   C11535917   4.541   3.236   0.402 -0.2365  0.3992  0.8103
  222MOL   N11635918   4.478   3.154   0.293 -0.3864  0.1261 -0.1780
  222MOL   H11735919   4.347   3.224   0.498  0.5650 -0.6817  2.3971
  222MOL   H11835920   4.391   3.385   0.434 -0.0527 -0.0248 -0.7074
  222MOL   H11935921   4.604   3.167   0.458  1.3430 -0.1450 -1.5306
  222MOL   H12035922   4.402   3.213   0.264  0.1792 -0.0122 -2.0008
  222MOL   H12135923   4.441   3.067   0.327 -1.7779 -0.2709 -2.6425
  222MOL   C12235924   4.639   3.335   0.340 -0.2241 -0.4254 -0.6062
  222MOL   C12335925   4.775   3.292   0.281 -0.9049  0.3823 -0.1297
  222MOL   N12435926   4.745   3.216   0.156  0.6241 -0.7611 -0.1710
  222MOL   H12535927   4.595   3.403   0.266 -0.8709 -1.5486 -1.2710
  222MOL   H12635928   4.667   3.401   0.421 -1.2611 -1.0529  0.2688
  222MOL   H12735929   4.828   3.224   0.348 -1.7000  0.3330  0.4647
  222MOL   H12835930   4.721   3.286   0.087 -1.2030  1.9734  3.0633
  222MOL   H12935931   4.660   3.164   0.174  0.7518 -1.8676 -2.6913
  222MOL   C13035932   4.866   3.413   0.254  0.2051  0.0518  0.0143
  222MOL   C13135933   5.014   3.385   0.258  0.5861  0.0734 -0.3827
  222MOL   N13235934   5.040   3.299   0.149 -0.3745 -0.7095  0.4616
  222MOL   H13335935   4.841   3.463   0.160  0.6208  1.6293  0.7249
  222MOL   H13435936   4.839   3.492   0.324  2.2341  0.5794  0.2055
  222MOL   H13535937   5.050   3.339   0.350 -0.4621 -0.4801 -0.2411
  222MOL   H13635938   4.960   3.239   0.134  1.0527 -2.4968 -0.1390
  222MOL   H13735939   5.117   3.240   0.175 -0.3854 -0.1682  1.7269
  222MOL   C13835940   5.106   3.504   0.226 -0.5143 -0.4333  0.1141
  222MOL   C13935941   5.105   3.638   0.307 -0.2020 -0.0112  0.6976
  222MOL   N14035942   5.133   3.604   0.447 -0.0269 -0.1071  0.2259
  222MOL   H14135943   5.210   3.470   0.227 -0.3378  0.1023  0.9796
  222MOL   H14235944   5.076   3.534   0.126  0.7043  1.2469  0.2408
  222MOL   H14335945   5.005   3.680   0.296 -0.5869 -1.3392 -1.2263
  222MOL   H14435946   5.123   3.692   0.495  0.5537 -0.2171  0.5414
  222MOL   H14535947   5.051   3.556   0.482  1.0939  0.9755  4.5905
  222MOL   C14635948   5.209   3.726   0.241 -0.1494  0.1756  0.2924
  222MOL   C14735949   5.207   3.870   0.293 -0.2636  0.1649  0.0779
  222MOL   N14835950   5.333   3.933   0.282 -0.2721  0.1304 -0.2407
  222MOL   H14935951   5.306   3.683   0.268 -0.8568 -0.5218  1.8002
  222MOL   H15035952   5.192   3.719   0.134 -1.3933 -0.2191  0.5104
  222MOL   H15135953   5.193   3.867   0.401  3.5938 -0.1920  0.6533
  222MOL   H15235954   5.318   4.017   0.336 -2.2065  0.5445 -1.3583
  222MOL   H15335955   5.406   3.884   0.332 -1.1902 -1.5881 -0.5599
  222MOL   C15435956   5.107   3.960   0.212 -0.2526  0.1910  0.0787
  222MOL   C15535957   4.956   3.935   0.238  0.2662  0.7918 -0.6248
  222MOL   N15635958   4.876   4.047   0.185  0.3896 -0.2605  0.0806
  222MOL   H15735959   5.122   4.065   0.238  0.0109  0.1394  0.1331
  222MOL   H15835960   5.124   3.955   0.105 -0.0678 -1.6111  0.1759
  222MOL   H15935961   4.933   3.918   0.343 -1.7700 -1.5956 -1.3901
  222MOL   H16035962   4.856   4.105   0.266  1.1540  2.1175 -1.3647
  222MOL   H16135963   4.790   4.013   0.143  0.0549 -1.2424  1.5069
  222MOL   H16235964   4.916   3.842   0.196 -0.5083  0.4661  0.8338
  223MOL     C135965   1.372   4.012   5.141 -0.0842 -0.4244 -0.4494
  223MOL     C235966   1.243   3.979   5.077  0.9839  0.5691  0.1613
  223MOL     N335967   1.170   3.876   5.144  0.4392  0.0844 -0.0660
  223MOL     H435968   1.431   3.921   5.150  0.7176  0.2331  1.1890
  223MOL     H535969   1.357   4.066   5.234 -0.8643  1.2147 -1.5018
  223MOL     H635970   1.261   3.934   4.979 -0.2757  0.5150 -0.0527
  223MOL     H735971   1.237   3.803   5.167  0.5566  0.6325  1.3815
  223MOL     H835972   1.140   3.924   5.228  1.7887  0.0583  0.4446
  223MOL     H935973   1.430   4.088   5.088  0.8939  0.6472  2.0830
  223MOL    C1035974   1.154   4.103   5.069 -0.5348  0.4909  0.3526
  223MOL    C1135975   1.021   4.093   4.999  0.6211 -0.3432  0.2496
  223MOL    N1235976   0.944   4.207   5.044 -0.2202 -0.3132 -0.1897
  223MOL    H1335977   1.142   4.140   5.171 -1.5503 -0.5920  0.6295
  223MOL    H1435978   1.208   4.181   5.015 -0.0470  1.1997  1.8366
  223MOL    H1535979   0.968   4.009   5.045 -2.2535  1.4648  0.3505
  223MOL    H1635980   0.863   4.220   4.985  1.1996  1.8510 -1.7618
  223MOL    H1735981   0.989   4.290   5.008  1.3538 -1.0263  0.0870
  223MOL    C1835982   1.038   4.091   4.846 -0.6356  0.0777  0.6583
  223MOL    C1935983   0.905   4.056   4.774  0.2466 -0.9567 -0.5426
  223MOL    N2035984   0.916   4.085   4.628  1.0279 -0.1360 -0.0275
  223MOL    H2135985   1.076   4.190   4.821  1.2673 -0.6455  0.6042
  223MOL    H2235986   1.114   4.017   4.823 -0.2991  0.9675 -1.1662
  223MOL    H2335987   0.833   4.131   4.806  1.9500  1.3390 -1.9207
  223MOL    H2435988   0.975   4.167   4.624 -0.7248  1.1231 -0.6917
  223MOL    H2535989   0.964   4.010   4.580  0.2613  1.0641 -2.7060
  223MOL    C2635990   0.870   3.910   4.782  0.2201 -0.4017  0.3661
  223MOL    C2735991   0.778   3.877   4.903  0.4639 -0.4255 -0.1538
  223MOL    N2835992   0.644   3.905   4.876  0.1339  0.0980  0.7310
  223MOL    H2935993   0.809   3.881   4.696  0.0738  0.2069  0.2621
  223MOL    H3035994   0.963   3.853   4.785 -0.2192 -1.2141 -0.8655
  223MOL    H3135995   0.803   3.947   4.982 -0.0119  0.4052 -0.7318
  223MOL    H3235996   0.594   3.921   4.962  2.1133 -0.9622  2.1129
  223MOL    H3335997   0.596   3.821   4.847 -0.5603  0.3496  1.1301
  223MOL    C3435998   0.774   3.728   4.948  0.6693 -0.2079 -0.1432
  223MOL    C3535999   0.735   3.706   5.100 -0.1661  0.1598  0.2415
  223MOL    N3636000   0.670   3.576   5.100 -0.0594 -1.1646 -0.2883
  223MOL    H3736001   0.722   3.656   4.886 -1.1613  0.4277  0.6193
  223MOL    H3836002   0.873   3.684   4.937 -0.1575 -2.1744  0.0548
  223MOL    H3936003   0.669   3.787   5.133  1.6395  0.6971  2.6853
  223MOL    H4036004   0.740   3.513   5.062  1.7646 -0.1003  1.2163
  223MOL    H4136005   0.645   3.545   5.192  4.6390  0.1450  1.5910
  223MOL    C4236006   0.854   3.689   5.197 -0.4955 -0.3923  0.5110
  223MOL    C4336007   0.823   3.683   5.346 -0.7954 -0.1305  0.2911
  223MOL    N4436008   0.907   3.578   5.407  0.4335  0.3530 -0.5464
  223MOL    H4536009   0.905   3.597   5.169  0.8662 -0.1005  1.9587
  223MOL    H4636010   0.924   3.769   5.174  1.1142 -1.3890  1.7768
  223MOL    H4736011   0.717   3.665   5.365 -0.4366 -2.3869  0.2484
  223MOL    H4836012   0.887   3.488   5.365  0.7161 -0.9615  2.0642
  223MOL    H4936013   1.004   3.594   5.383  0.4244  1.0074 -0.1644
  223MOL    C5036014   0.861   3.809   5.424  0.5513  0.2287 -0.9145
  223MOL    C5136015   0.739   3.874   5.489 -0.0688 -0.3238  0.0462
  223MOL    N5236016   0.781   3.970   5.589 -0.1127  0.0839  0.0078
  223MOL    H5336017   0.938   3.781   5.495 -1.5912 -0.1247  1.3192
  223MOL    H5436018   0.923   3.879   5.366  2.3574 -0.9367 -0.4200
  223MOL    H5536019   0.682   3.797   5.542 -1.4235  1.2549  0.9184
  223MOL    H5636020   0.693   3.998   5.628 -1.2738 -1.7550 -1.2350
  223MOL    H5736021   0.819   4.057   5.553 -0.5723  0.2099 -0.1705
  223MOL    C5836022   0.644   3.953   5.391  0.1345 -0.0482 -0.0151
  223MOL    C5936023   0.503   3.902   5.392  0.1786 -0.7156 -0.1874
  223MOL    N6036024   0.436   3.938   5.513 -0.3242 -0.1777  0.1494
  223MOL    H6136025   0.645   4.057   5.421 -0.9231 -0.0004 -0.1466
  223MOL    H6236026   0.673   3.963   5.287  2.4315 -0.3574  0.5617
  223MOL    H6336027   0.503   3.793   5.394  3.4771 -0.7736  3.4986
  223MOL    H6436028   0.435   3.848   5.559 -0.0483 -2.5361 -4.2065
  223MOL    H6536029   0.341   3.960   5.485  0.6549  3.5784 -0.5138
  223MOL    C6636030   0.420   3.964   5.280  0.0727  0.1371  0.1574
  223MOL    C6736031   0.281   3.902   5.262  0.1186 -0.1769 -0.5037
  223MOL    N6836032   0.182   4.007   5.252 -0.0830  0.1207  0.5104
  223MOL    H6936033   0.424   4.072   5.297 -1.6289  0.1157  0.7584
  223MOL    H7036034   0.462   3.940   5.182 -0.4045 -0.5534  0.1201
  223MOL    H7136035   0.242   3.845   5.347 -0.2334 -0.2570 -0.7181
  223MOL    H7236036   0.091   3.963   5.243  0.2129 -0.3157 -0.4098
  223MOL    H7336037   0.178   4.052   5.343  0.3312  0.2972  0.4432
  223MOL    C7436038   0.261   3.813   5.139 -0.7383 -0.0280  0.1159
  223MOL    C7536039   0.346   3.691   5.137  0.4666  0.2656  0.1403
  223MOL    N7636040   0.328   3.609   5.251  0.1491 -0.4102 -0.8811
  223MOL    H7736041   0.160   3.774   5.134 -1.7920  2.6663 -0.6379
  223MOL    H7836042   0.271   3.859   5.041 -0.3197  3.2825  1.6328
  223MOL    H7936043   0.452   3.719   5.133  0.6017  0.0381  1.6829
  223MOL    H8036044   0.388   3.528   5.251 -1.1680 -1.4148  0.1765
  223MOL    H8136045   0.364   3.658   5.332 -2.0066  0.4684 -0.4084
  223MOL    C8236046   0.327   3.595   5.016 -0.3127  0.4542  0.2555
  223MOL    C8336047   0.380   3.651   4.879  0.6336 -0.1904 -0.3803
  223MOL    N8436048   0.499   3.578   4.843  0.0623 -0.2731  0.0539
  223MOL    H8536049   0.371   3.496   5.026 -1.3813 -0.4379 -3.0519
  223MOL    H8636050   0.222   3.565   5.007 -0.2816  0.9513 -2.1751
  223MOL    H8736051   0.425   3.750   4.886  0.1649 -0.0402  0.5643
  223MOL    H8836052   0.564   3.574   4.921  1.7483  0.6187 -1.2551
  223MOL    H8936053   0.471   3.482   4.832  1.3237 -0.8985  1.9089
  223MOL    C9036054   0.274   3.638   4.769 -0.5232 -0.2801 -0.1655
  223MOL    C9136055   0.175   3.757   4.765 -0.0752  0.5750 -0.3759
  223MOL    N9236056   0.165   3.798   4.621 -0.0168  0.6216 -0.2649
  223MOL    H9336057   0.334   3.643   4.679 -1.0175  0.3830 -0.4613
  223MOL    H9436058   0.224   3.541   4.775 -1.0619  0.0039  0.0199
  223MOL    H9536059   0.222   3.837   4.822  1.0243 -1.5148  1.6860
  223MOL    H9636060   0.182   3.716   4.565 -0.6175  0.1358  0.2573
  223MOL    H9736061   0.240   3.864   4.605  0.4297  0.2144  0.1298
  223MOL    C9836062   0.031   3.735   4.826  1.0171 -0.6869  0.3602
  223MOL    C9936063   7.203   3.845   4.798  0.3982 -0.8047 -0.1480
  223MOL   N10036064   7.072   3.806   4.857  0.4984  0.0535 -0.8163
  223MOL   H10136065   7.270   3.636   4.797  0.7539 -0.3402 -0.5092
  223MOL   H10236066   0.052   3.734   4.933  1.8507  0.9463  0.2310
  223MOL   H10336067   7.180   3.832   4.692 -0.5523  1.1339 -0.1995
  223MOL   H10436068   7.020   3.761   4.783 -2.2217  0.9008  0.5029
  223MOL   H10536069   7.015   3.886   4.882 -0.9206 -0.8776 -1.0051
  223MOL   C10636070   7.241   3.992   4.833 -0.5879 -0.3258  0.0318
  223MOL   C10736071   7.238   4.084   4.712  0.0123 -0.2920  0.0534
  223MOL   N10836072   7.098   4.125   4.686 -0.6912 -0.7642  0.1269
  223MOL   H10936073   7.175   4.038   4.906 -0.4250 -0.9684  0.5950
  223MOL   H11036074   0.065   4.002   4.875  0.1826 -0.3136 -1.7461
  223MOL   H11136075   7.272   4.028   4.625  0.6592  0.4658 -0.1851
  223MOL   H11236076   7.107   4.154   4.590 -1.6795 -0.7098  0.0433
  223MOL   H11336077   7.057   4.035   4.668 -2.1233 -0.4975  1.8920
  223MOL   C11436078   0.055   4.208   4.733  0.4841 -0.0513  0.1451
  223MOL   C11536079   0.207   4.179   4.713  0.2728  0.2216  0.3267
  223MOL   N11636080   0.241   4.202   4.568 -0.5063  0.8724  0.4163
  223MOL   H11736081   0.017   4.281   4.662  0.3130  0.1080  0.4036
  223MOL   H11836082   0.028   4.266   4.821  0.3487  0.5203 -0.2726
  223MOL   H11936083   0.234   4.075   4.733 -3.0344 -0.8194 -0.2405
  223MOL   H12036084   0.319   4.140   4.550 -2.2340 -0.6619 -2.1460
  223MOL   H12136085   0.167   4.172   4.507  0.8271 -1.0606 -0.2966
  223MOL   C12236086   0.281   4.276   4.810 -0.2344  0.0613 -0.7510
  223MOL   C12336087   0.262   4.250   4.963 -0.0849 -0.6255 -0.5228
  223MOL   N12436088   0.330   4.129   5.002  0.1012  0.0867 -0.0576
  223MOL   H12536089   0.389   4.263   4.798 -0.1655  0.8119 -0.9965
  223MOL   H12636090   0.264   4.382   4.790  1.6600  0.6000  0.3528
  223MOL   H12736091   0.154   4.248   4.979 -0.3893 -0.8081 -2.4036
  223MOL   H12836092   0.295   4.092   5.090 -0.7327  1.4635  0.2068
  223MOL   H12936093   0.310   4.054   4.937 -1.7497  0.0991  0.4601
  223MOL   C13036094   0.324   4.376   5.038 -0.1728  0.3541  0.9206
  223MOL   C13136095   0.255   4.431   5.170 -1.2217 -0.2709  0.9188
  223MOL   N13236096   0.349   4.519   5.236 -0.2054  0.0383  0.1673
  223MOL   H13336097   0.432   4.361   5.050 -0.0901  0.8787  0.8333
  223MOL   H13436098   0.317   4.461   4.971  2.6822  0.8883  1.2278
  223MOL   H13536099   0.233   4.356   5.246 -0.0914  0.8679  2.4005
  223MOL   H13636100   0.412   4.460   5.289 -0.0168  0.1114  0.0232
  223MOL   H13736101   0.314   4.584   5.305 -1.4863 -0.8419  0.3636
  223MOL   C13836102   0.128   4.499   5.140  0.9031  0.6832  0.7226
  223MOL   C13936103   0.041   4.505   5.266 -0.6578  0.1831 -0.1869
  223MOL   N14036104   7.210   4.600   5.238 -0.3119 -0.0132  0.3138
  223MOL   H14136105   0.137   4.603   5.111  2.1171  0.6370  0.9286
  223MOL   H14236106   0.079   4.445   5.059 -0.3928  0.4193  1.6473
  223MOL   H14336107   0.116   4.530   5.341 -0.2737 -1.2575 -0.0848
  223MOL   H14436108   7.258   4.689   5.242  1.1253 -0.5963 -2.3107
  223MOL   H14536109   7.189   4.582   5.141  0.1775  0.0372  0.1937
  223MOL   C14636110   7.243   4.365   5.295 -0.0320 -0.2436 -0.3970
  223MOL   C14736111   7.196   4.335   5.436  0.4821  0.0927 -0.0968
  223MOL   N14836112   7.055   4.317   5.437 -0.1773 -0.2122 -0.0014
  223MOL   H14936113   7.165   4.346   5.222  0.5741 -0.1304 -1.0816
  223MOL   H15036114   0.041   4.288   5.269  0.3415 -0.7421  2.0350
  223MOL   H15136115   7.209   4.416   5.509 -3.2433 -1.0798  1.9800
  223MOL   H15236116   7.025   4.311   5.533 -0.3523 -1.9376 -0.1459
  223MOL   H15336117   7.016   4.400   5.395  0.0670 -0.2123 -0.2254
  223MOL   C15436118   7.262   4.198   5.475  0.4332 -0.2972 -0.0677
  223MOL   C15536119   0.137   4.216   5.497 -0.0360  0.7019 -0.0497
  223MOL   N15636120   0.190   4.086   5.542  0.6804 -0.3283  0.8863
  223MOL   H15736121   7.218   4.162   5.569  0.0153  1.1797  0.3254
  223MOL   H15836122   7.245   4.124   5.398 -1.0782 -0.2233  0.1763
  223MOL   H15936123   0.155   4.296   5.569  2.0698  0.0405  0.2068
  223MOL   H16036124   0.156   4.063   5.634 -0.1199  0.3101  0.7524
  223MOL   H16136125   0.290   4.099   5.555  0.6421  0.1930  0.6778
  223MOL   H16236126   0.183   4.249   5.404  1.0081  1.1527  0.6190
  224MOL     C136127   1.612   1.031   0.668 -0.3278 -0.2021  0.1290
  224MOL     C236128   1.715   0.916   0.651 -0.0535 -0.2023 -0.7877
  224MOL     N336129   1.790   0.925   0.528  0.2428  0.1907 -0.3635
  224MOL     H436130   1.676   1.117   0.689  0.2246 -0.5108 -0.2930
  224MOL     H536131   1.540   1.010   0.748  0.1150  2.3683  1.2667
  224MOL     H636132   1.659   0.823   0.641 -1.6940  0.5618  0.9435
  224MOL     H736133   1.805   1.025   0.522  0.1321  0.2183 -0.1760
  224MOL     H836134   1.714   0.929   0.463  0.1819 -3.1593 -0.6125
  224MOL     H936135   1.558   1.052   0.576 -1.1554  0.2106  0.6950
  224MOL    C1036136   1.812   0.898   0.764 -0.5191 -0.6902 -0.1061
  224MOL    C1136137   1.742   0.861   0.904  0.1581 -0.1690  0.4358
  224MOL    N1236138   1.823   0.773   0.981 -0.0098  0.6115 -0.2863
  224MOL    H1336139   1.872   0.814   0.731  0.5787  0.6027 -1.4597
  224MOL    H1436140   1.863   0.993   0.774 -1.9139  0.0194  0.4627
  224MOL    H1536141   1.649   0.810   0.877  0.8808 -0.2237 -2.1403
  224MOL    H1636142   1.917   0.810   0.985  1.9646 -3.9344 -1.0452
  224MOL    H1736143   1.801   0.774   1.079 -1.0814 -2.6111 -0.4199
  224MOL    C1836144   1.726   0.983   0.991 -0.2554  0.8836  0.5217
  224MOL    C1936145   1.626   0.967   1.104  0.9312  0.1081 -0.2210
  224MOL    N2036146   1.650   1.080   1.185 -0.0394 -0.4970  0.4454
  224MOL    H2136147   1.821   1.019   1.030 -0.7381  1.7189  0.9500
  224MOL    H2236148   1.706   1.068   0.926 -0.6398  1.5514  1.4994
  224MOL    H2336149   1.637   0.876   1.163 -0.5526  0.1451  0.1288
  224MOL    H2436150   1.733   1.051   1.235 -0.9838 -0.9587  1.7986
  224MOL    H2536151   1.690   1.149   1.124  0.2616 -0.1045  1.0793
  224MOL    C2636152   1.479   0.978   1.055 -0.3401 -0.1021 -0.1133
  224MOL    C2736153   1.376   0.908   1.155 -0.0111 -0.7132 -0.6205
  224MOL    N2836154   1.244   0.974   1.157  0.4476  0.4734 -0.0331
  224MOL    H2936155   1.442   1.072   1.014  1.5593 -0.6463 -3.3105
  224MOL    H3036156   1.464   0.920   0.964 -1.2451  1.8585 -1.2547
  224MOL    H3136157   1.417   0.937   1.252  1.7268 -1.6610 -1.0445
  224MOL    H3236158   1.262   1.074   1.161 -2.0847  1.0078 -0.9494
  224MOL    H3336159   1.198   0.948   1.243  1.3660 -1.5948 -0.1394
  224MOL    C3436160   1.354   0.757   1.140 -0.0091 -0.1531  0.5444
  224MOL    C3536161   1.447   0.688   1.249  0.0853 -0.5448  0.0566
  224MOL    N3636162   1.388   0.696   1.377 -0.0297  0.2345 -0.2908
  224MOL    H3736163   1.255   0.720   1.167  0.2302 -1.7488 -0.7198
  224MOL    H3836164   1.373   0.729   1.037  2.9857  1.0859  0.6942
  224MOL    H3936165   1.548   0.728   1.255 -0.3613  1.3341 -3.5837
  224MOL    H4036166   1.439   0.652   1.452 -1.8015 -0.7092  0.3853
  224MOL    H4136167   1.301   0.645   1.381  0.4553 -0.4924  1.3308
  224MOL    C4236168   1.475   0.540   1.217 -0.2401 -0.0233  0.5686
  224MOL    C4336169   1.539   0.499   1.080  0.1850  0.3707  0.3857
  224MOL    N4436170   1.681   0.464   1.108 -0.5382 -0.0148  1.0324
  224MOL    H4536171   1.543   0.502   1.294 -0.4231  0.7208  1.1012
  224MOL    H4636172   1.384   0.481   1.224  0.8381 -1.9311 -0.8459
  224MOL    H4736173   1.540   0.587   1.016 -1.4785 -0.7311 -1.1992
  224MOL    H4836174   1.725   0.451   1.019  2.2822  1.0125  2.2305
  224MOL    H4936175   1.731   0.542   1.148  2.1518 -0.9403 -0.3889
  224MOL    C5036176   1.458   0.387   1.006 -0.1540 -0.3415  0.2411
  224MOL    C5136177   1.319   0.435   0.966  0.3667  0.3668  0.0478
  224MOL    N5236178   1.318   0.486   0.828  0.3522  0.4527  0.1129
  224MOL    H5336179   1.530   0.348   0.934  1.3666 -0.2644  1.6836
  224MOL    H5436180   1.442   0.295   1.062 -0.4099 -0.9945 -0.8712
  224MOL    H5536181   1.282   0.514   1.031  0.2244 -0.4846  1.0055
  224MOL    H5636182   1.404   0.534   0.805 -0.3416  2.5536  1.6775
  224MOL    H5736183   1.316   0.398   0.780  0.4785 -0.5348  1.8668
  224MOL    C5836184   1.201   0.328   0.967 -0.4076  0.2871 -0.1089
  224MOL    C5936185   1.142   0.284   1.098  0.4540 -0.2929  0.3145
  224MOL    N6036186   1.042   0.381   1.151  0.8292 -0.0080 -0.0427
  224MOL    H6136187   1.114   0.365   0.913 -0.7075 -2.2976 -1.5023
  224MOL    H6236188   1.238   0.244   0.908  1.1572  1.5875 -1.0450
  224MOL    H6336189   1.220   0.285   1.174  0.6512  2.2053  0.1009
  224MOL    H6436190   1.010   0.356   1.243 -2.0910  2.6971 -0.2485
  224MOL    H6536191   0.969   0.385   1.082  0.4692  0.1503  0.3466
  224MOL    C6636192   1.078   0.144   1.092 -0.0484 -0.2643  0.1967
  224MOL    C6736193   1.152   0.024   1.036 -0.3289  0.6881 -0.1983
  224MOL    N6836194   1.240   7.269   1.152 -0.2846 -0.0965 -0.4948
  224MOL    H6936195   1.035   0.116   1.188 -0.7326  1.4211  0.3876
  224MOL    H7036196   0.986   0.164   1.036  0.3836 -1.3593 -0.9167
  224MOL    H7136197   1.206   0.052   0.945 -0.8147 -1.5911 -1.2166
  224MOL    H7236198   1.286   0.080   1.173 -1.9836  0.5206  0.8351
  224MOL    H7336199   1.311   7.207   1.116 -1.4833 -2.1502  0.5354
  224MOL    C7436200   1.057   7.182   1.005 -0.0957 -0.4857 -0.6512
  224MOL    C7536201   0.978   7.181   0.873  0.1067  0.2451 -0.4648
  224MOL    N7636202   1.057   7.099   0.780 -0.4773  0.2769 -0.0354
  224MOL    H7736203   1.129   7.101   1.005 -0.0574 -0.4642  1.3164
  224MOL    H7836204   0.981   7.170   1.082 -0.3114  0.6365 -0.6904
  224MOL    H7936205   0.966   0.007   0.837 -3.0699 -0.1739 -0.7440
  224MOL    H8036206   1.012   7.091   0.690  2.1164 -1.8947 -1.2063
  224MOL    H8136207   1.141   7.152   0.764 -0.1506  0.4404  2.1371
  224MOL    C8236208   0.843   7.125   0.890 -0.5530 -0.1140 -0.8241
  224MOL    C8336209   0.750   7.148   0.766  0.3916 -0.6623 -0.3053
  224MOL    N8436210   0.631   7.073   0.787  0.0266 -0.6920  0.3813
  224MOL    H8536211   0.867   7.019   0.904  2.3884  0.6824  0.6242
  224MOL    H8636212   0.790   7.150   0.981 -0.4899 -2.5531 -0.0754
  224MOL    H8736213   0.801   7.111   0.677  1.8210 -0.6088  0.4768
  224MOL    H8836214   0.647   6.975   0.773 -1.0084 -0.9769  1.1320
  224MOL    H8936215   0.563   7.100   0.718  0.1519 -0.3105  0.4062
  224MOL    C9036216   0.702   0.021   0.744  1.0091  0.6424  0.2624
  224MOL    C9136217   0.764   0.101   0.633 -1.0254  0.2372  0.1417
  224MOL    N9236218   0.704   0.064   0.513 -0.2170  0.4124 -0.6642
  224MOL    H9336219   0.593   0.027   0.736  1.2445  1.2252 -3.0426
  224MOL    H9436220   0.732   0.069   0.838 -0.5433 -2.1811  2.2866
  224MOL    H9536221   0.871   0.081   0.634 -1.0586 -0.0903 -1.4359
  224MOL    H9636222   0.645   7.261   0.536 -0.3190  0.7607  0.3108
  224MOL    H9736223   0.634   0.121   0.468 -1.4076 -2.4649 -2.5864
  224MOL    C9836224   0.751   0.254   0.653 -0.3951 -0.0542  0.5424
  224MOL    C9936225   0.857   0.312   0.747 -0.3563 -0.1593  0.5057
  224MOL   N10036226   0.972   0.339   0.672 -0.0886  0.5029 -0.1003
  224MOL   H10136227   0.758   0.306   0.557  1.7537 -1.9989 -0.4120
  224MOL   H10236228   0.646   0.261   0.682 -0.7129  0.1400 -0.6251
  224MOL   H10336229   0.886   0.248   0.830 -0.2434  1.4367  1.7309
  224MOL   H10436230   1.016   0.252   0.644  0.4856  0.7149  0.1399
  224MOL   H10536231   1.041   0.391   0.725 -0.6897 -0.8704  2.1299
  224MOL   C10636232   0.804   0.440   0.821 -0.3495  0.7697 -0.3429
  224MOL   C10736233   0.710   0.414   0.943 -0.0410  0.1941  0.3662
  224MOL   N10836234   0.779   0.356   1.053 -0.5049  0.5493 -0.1776
  224MOL   H10936235   0.889   0.494   0.862  0.1142 -0.4583  0.3308
  224MOL   H11036236   0.760   0.505   0.745 -0.8749  0.3143 -0.4330
  224MOL   H11136237   0.638   0.338   0.911  0.0607 -0.2112  1.0962
  224MOL   H11236238   0.757   0.258   1.067  3.9893 -0.3538  1.4335
  224MOL   H11336239   0.721   0.397   1.125  0.7924  2.1925 -0.0397
  224MOL   C11436240   0.623   0.534   0.986  0.2229 -0.3462  0.5632
  224MOL   C11536241   0.675   0.680   0.987  0.1146  0.1671 -0.6975
  224MOL   N11636242   0.567   0.767   1.015 -0.6229 -0.3063  0.1431
  224MOL   H11736243   0.541   0.533   0.915 -1.6810 -1.2481  2.7116
  224MOL   H11836244   0.573   0.509   1.080 -3.5750 -0.0413 -1.2929
  224MOL   H11936245   0.693   0.709   0.884  0.1705  1.3239 -0.3609
  224MOL   H12036246   0.502   0.758   0.939 -0.3424 -1.1730  0.0110
  224MOL   H12136247   0.595   0.864   1.003  1.6897 -0.9782 -0.0648
  224MOL   C12236248   0.791   0.706   1.083  0.4017 -0.1392 -0.0992
  224MOL   C12336249   0.901   0.804   1.027 -0.0132 -0.3410 -0.1962
  224MOL   N12436250   0.996   0.809   1.140  0.1696  0.5101 -0.5786
  224MOL   H12536251   0.748   0.754   1.171  0.0283  1.5428 -1.1879
  224MOL   H12636252   0.838   0.612   1.113 -0.7120 -1.4505 -2.3347
  224MOL   H12736253   0.869   0.907   1.013  0.6061 -0.2065 -0.6190
  224MOL   H12836254   1.061   0.885   1.128 -0.6606  1.1433 -1.0570
  224MOL   H12936255   1.055   0.726   1.144  2.8929  2.3512 -1.4728
  224MOL   C13036256   0.978   0.751   0.904  0.8082 -0.1147  0.2638
  224MOL   C13136257   1.095   0.836   0.835 -0.0596  0.5169 -0.0884
  224MOL   N13236258   1.157   0.737   0.747  0.0044 -0.4864 -0.1576
  224MOL   H13336259   1.020   0.653   0.925 -0.1644 -0.5537  0.1637
  224MOL   H13436260   0.906   0.725   0.827  0.8906 -1.0465  0.4956
  224MOL   H13536261   1.175   0.873   0.899  0.8755 -0.6514 -0.5606
  224MOL   H13636262   1.196   0.658   0.797 -1.8337 -1.2646  0.0748
  224MOL   H13736263   1.230   0.778   0.690 -0.5993  0.1401 -0.4793
  224MOL   C13836264   1.045   0.956   0.755  0.0814  0.8053 -0.5205
  224MOL   C13936265   1.014   1.088   0.836  0.1743 -0.4544 -0.4437
  224MOL   N14036266   1.138   1.147   0.877  0.6603  0.5653  0.1537
  224MOL   H14136267   1.108   0.979   0.669  2.0401 -1.8012  0.1501
  224MOL   H14236268   0.958   0.918   0.701  1.9472 -2.4858 -1.3911
  224MOL   H14336269   0.964   1.051   0.925 -0.8338 -0.4040 -0.9815
  224MOL   H14436270   1.188   1.093   0.947 -0.1955 -0.0912  0.2602
  224MOL   H14536271   1.129   1.240   0.915 -1.9871  0.2284  0.4507
  224MOL   C14636272   0.937   1.194   0.752  0.0582 -0.7435 -0.4889
  224MOL   C14736273   0.860   1.307   0.833  0.5327  0.7495 -0.7225
  224MOL   N14836274   0.796   1.390   0.735 -0.0066 -0.1071 -0.3890
  224MOL   H14936275   0.992   1.248   0.676 -1.7843  2.0611  0.0934
  224MOL   H15036276   0.862   1.144   0.690  0.1282 -0.1177 -1.0833
  224MOL   H15136277   0.933   1.357   0.897  0.7746 -1.6541  1.0031
  224MOL   H15236278   0.769   1.482   0.767 -1.9339 -0.5534 -0.6740
  224MOL   H15336279   0.708   1.341   0.728 -0.0627 -0.1024  0.2261
  224MOL   C15436280   0.754   1.262   0.937  0.2622 -0.9017 -0.5319
  224MOL   C15536281   0.654   1.155   0.880  0.5682  0.6891  0.5797
  224MOL   N15636282   0.563   1.094   0.971  0.1473 -0.1044 -0.7357
  224MOL   H15736283   0.814   1.200   1.003  0.1880  0.4835  0.8685
  224MOL   H15836284   0.705   1.342   0.993  0.6206 -1.2612  0.3007
  224MOL   H15936285   0.720   1.077   0.843 -0.9805  0.9680 -3.0042
  224MOL   H16036286   0.490   1.054   0.914 -0.2764  0.6384 -0.7325
  224MOL   H16136287   0.508   1.159   1.025 -1.2891 -1.1871 -0.8806
  224MOL   H16236288   0.597   1.197   0.797  1.4896 -0.7844 -0.8359
  225MOL     C136289   0.518   1.336   0.489  0.4515  0.5640  0.0448
  225MOL     C236290   0.632   1.355   0.395 -0.6334 -0.3164 -0.4771
  225MOL     N336291   0.723   1.447   0.454 -0.1646  0.0958 -0.3414
  225MOL     H436292   0.484   1.423   0.546 -0.5000 -0.2002  0.6459
  225MOL     H536293   0.536   1.269   0.572 -1.9702  1.9542  1.7585
  225MOL     H636294   0.592   1.406   0.307  0.9289  0.0038 -1.0208
  225MOL     H736295   0.813   1.439   0.409 -0.2560  2.5208 -1.0097
  225MOL     H836296   0.739   1.419   0.550 -4.7829 -1.8947  0.0004
  225MOL     H936297   0.427   1.299   0.442 -0.4203  1.3474  1.0953
  225MOL    C1036298   0.706   1.225   0.373 -0.6481  0.3123  0.4100
  225MOL    C1136299   0.670   1.155   0.236  0.2715 -0.6473 -0.5669
  225MOL    N1236300   0.763   1.051   0.215  0.2307  0.0786 -0.2097
  225MOL    H1336301   0.812   1.249   0.366  0.2456 -3.4127 -0.3433
  225MOL    H1436302   0.706   1.155   0.457  1.1104  0.9329  0.9429
  225MOL    H1536303   0.682   1.223   0.151  0.2588 -1.4588 -1.2325
  225MOL    H1636304   0.753   0.983   0.288  1.3507  0.8209  0.6625
  225MOL    H1736305   0.856   1.087   0.232  0.1897  0.4739 -0.7773
  225MOL    C1836306   0.521   1.106   0.226 -0.2101 -0.0971 -0.7377
  225MOL    C1936307   0.468   1.055   0.098 -0.0319  0.4019  0.3307
  225MOL    N2036308   0.549   0.945   0.044  0.3225 -0.4793 -0.1437
  225MOL    H2136309   0.499   1.046   0.315 -1.0133  0.3552 -0.6278
  225MOL    H2236310   0.452   1.189   0.241  0.5147  0.3911 -0.0162
  225MOL    H2336311   0.479   1.146   0.039 -2.1130  0.3015 -0.2767
  225MOL    H2436312   0.576   0.985   7.231  1.9111 -0.8943  0.1391
  225MOL    H2536313   0.630   0.950   0.105 -0.2233 -0.7119  0.6063
  225MOL    C2636314   0.319   1.017   0.089  0.0541  0.4656  0.4052
  225MOL    C2736315   0.219   1.080   7.264  0.2040  0.4184  0.9076
  225MOL    N2836316   0.096   1.002   7.270  0.3435 -0.2255 -0.4606
  225MOL    H2936317   0.314   0.909   0.084 -3.2658  0.6205 -1.3116
  225MOL    H3036318   0.272   1.040   0.184 -0.0846 -2.5235  1.0929
  225MOL    H3136319   0.267   1.073   7.166 -0.2736  0.5053  0.6657
  225MOL    H3236320   0.041   1.042   7.195  0.9032  3.0079  0.7921
  225MOL    H3336321   0.106   0.903   7.250  1.1398 -0.3396  0.4991
  225MOL    C3436322   0.190   1.229   0.023 -0.0790  0.9782  0.5269
  225MOL    C3536323   0.152   1.329   7.180 -0.0752 -0.5060 -0.7464
  225MOL    N3636324   0.133   1.460   7.246 -0.2088 -0.3439 -0.7644
  225MOL    H3736325   0.130   1.234   0.114  1.1048  1.6172  1.2780
  225MOL    H3836326   0.284   1.276   0.052  0.1041  0.0320  1.4713
  225MOL    H3936327   0.056   1.296   7.140  0.4855 -1.8541 -0.9696
  225MOL    H4036328   0.077   1.443   0.053  0.5412  1.4386  0.1336
  225MOL    H4136329   0.069   1.519   7.196  0.0122  0.9290  0.4239
  225MOL    C4236330   0.268   1.337   7.077 -0.1167 -0.1064  0.1825
  225MOL    C4336331   0.258   1.441   6.967  0.0128 -0.0426 -0.1794
  225MOL    N4436332   0.382   1.429   6.889 -0.3012  0.4520  0.3345
  225MOL    H4536333   0.360   1.354   7.133 -0.3394 -0.7360  0.7504
  225MOL    H4636334   0.277   1.237   7.034 -3.9406  0.9640 -3.4176
  225MOL    H4736335   0.246   1.540   7.010 -2.9776  0.2032 -1.4268
  225MOL    H4836336   0.445   1.492   6.937  1.0170 -1.1735  0.7722
  225MOL    H4936337   0.371   1.496   6.815 -0.2079 -0.3333 -0.3986
  225MOL    C5036338   0.139   1.409   6.879  0.1502  0.8402  0.9877
  225MOL    C5136339   0.005   1.478   6.918 -0.7859 -0.7919  0.1882
  225MOL    N5236340   0.022   1.622   6.915  0.1943 -0.0765  0.1485
  225MOL    H5336341   0.168   1.440   6.778 -1.9014  1.0878  0.4551
  225MOL    H5436342   0.133   1.301   6.866 -0.4576  1.2897 -3.1537
  225MOL    H5536343   7.259   1.451   7.021  0.2154 -1.0638  0.3307
  225MOL    H5636344   0.118   1.653   6.905 -0.4742  1.7526 -0.9114
  225MOL    H5736345   7.254   1.666   6.994 -1.3499 -0.9177 -0.2076
  225MOL    C5836346   7.149   1.455   6.833 -0.1606  0.4704  0.1591
  225MOL    C5936347   7.103   1.307   6.841 -0.3496  0.4810 -0.2131
  225MOL    N6036348   6.959   1.311   6.827 -0.1429  0.0291 -0.1632
  225MOL    H6136349   7.068   1.521   6.863  0.7007  1.0022  1.3879
  225MOL    H6236350   7.164   1.485   6.730 -1.7907  0.0403 -0.2265
  225MOL    H6336351   7.138   1.276   6.939  0.4094  3.8596  0.6318
  225MOL    H6436352   6.930   1.358   6.743 -0.5040  0.2649  0.0928
  225MOL    H6536353   6.929   1.216   6.818 -1.5447  0.6136 -1.7051
  225MOL    C6636354   7.150   1.202   6.731 -0.6446  0.0750 -0.1278
  225MOL    C6736355   7.142   1.060   6.796  0.3634 -0.2396 -0.5248
  225MOL    N6836356   7.132   0.951   6.696  0.2077 -0.0015  0.5145
  225MOL    H6936357   7.094   1.212   6.638 -1.8974  0.8256  0.6913
  225MOL    H7036358   7.250   1.224   6.694 -0.4335 -2.5689 -1.2582
  225MOL    H7136359   7.053   1.052   6.859  1.0146 -2.9156  0.1110
  225MOL    H7236360   7.038   0.937   6.662  0.7156  0.3922 -1.1044
  225MOL    H7336361   7.163   0.869   6.746  0.0156  0.0310  0.6853
  225MOL    C7436362   7.263   1.023   6.894  0.8770  0.0696  0.1847
  225MOL    C7536363   7.262   0.873   6.938  0.5501 -0.0423 -0.0220
  225MOL    N7636364   0.103   0.838   7.012  0.0299 -0.1873  0.5562
  225MOL    H7736365   0.079   1.049   6.843  0.7414  1.0391  0.4247
  225MOL    H7836366   7.260   1.075   6.990 -1.2761 -0.6809  0.5676
  225MOL    H7936367   7.274   0.812   6.848 -1.0527  1.3199 -1.2030
  225MOL    H8036368   0.110   0.737   7.006 -1.2612 -0.1527 -2.5939
  225MOL    H8136369   0.188   0.874   6.969  0.0827  0.7702  1.4538
  225MOL    C8236370   7.131   0.811   7.008  0.0648  0.1780  0.0483
  225MOL    C8336371   7.129   0.668   7.076 -0.5998  0.2707 -0.3574
  225MOL    N8436372   6.987   0.654   7.101  0.0934 -0.6262 -0.3079
  225MOL    H8536373   7.094   0.892   7.071 -1.1659  1.3719 -2.1497
  225MOL    H8636374   7.070   0.827   6.919 -1.2784  1.0234  1.1062
  225MOL    H8736375   7.177   0.659   7.174 -1.4106  0.7316  0.0911
  225MOL    H8836376   6.937   0.672   7.015  1.3518  0.0069 -0.9131
  225MOL    H8936377   6.967   0.735   7.157  2.3035  1.4706 -2.4364
  225MOL    C9036378   7.165   0.553   6.979 -0.4054 -0.6109  0.0541
  225MOL    C9136379   7.162   0.418   7.059  0.0188 -0.3443  0.4619
  225MOL    N9236380   7.120   0.310   6.966 -0.0854  0.3858 -0.4830
  225MOL    H9336381   7.110   0.560   6.885 -0.2532  1.1569  0.0762
  225MOL    H9436382   7.270   0.557   6.948 -0.6427 -0.0784 -0.6848
  225MOL    H9536383   7.089   0.417   7.139 -1.5928 -2.6958 -1.0008
  225MOL    H9636384   7.066   0.236   7.009 -0.0888 -0.1411 -1.3618
  225MOL    H9736385   7.060   0.348   6.894  1.6220 -2.8340 -3.8435
  225MOL    C9836386   0.028   0.387   7.120  0.5582  0.6490 -0.2357
  225MOL    C9936387   0.050   0.252   7.196  0.0557  0.5731 -0.0813
  225MOL   N10036388   0.192   0.220   7.212  0.3303  0.0604  0.4844
  225MOL   H10136389   0.101   0.391   7.038 -0.5874 -2.9279 -1.5253
  225MOL   H10236390   0.045   0.464   7.195 -0.4597 -0.6936  1.3754
  225MOL   H10336391   0.017   0.169   7.134 -0.7738  0.0445  1.0473
  225MOL   H10436392   0.235   0.300   7.256 -0.7589  0.4014  0.9275
  225MOL   H10536393   0.233   0.206   7.120 -0.8994 -1.2464  0.1143
  225MOL   C10636394   7.246   0.252   0.056  0.0785 -0.0952 -0.6495
  225MOL   C10736395   7.229   0.111   0.114  0.4975 -0.1945  0.0762
  225MOL   N10836396   7.224   0.130   0.255  0.1970  0.2947 -0.5577
  225MOL   H10936397   0.012   0.333   0.116  1.8014  0.0612 -2.0063
  225MOL   H11036398   7.147   0.298   0.054  0.6960  1.2388 -2.7956
  225MOL   H11136399   0.047   0.059   0.094 -0.5632 -2.6646  1.3397
  225MOL   H11236400   0.008   0.077   0.317 -0.8753  0.8450  0.9747
  225MOL   H11336401   7.129   0.120   0.287  0.5082  0.8539  0.5573
  225MOL   C11436402   7.109   0.033   0.049 -0.6000  0.6889 -0.3336
  225MOL   C11536403   7.090   7.158   0.095  0.1842 -0.0676 -0.9051
  225MOL   N11636404   6.971   7.109   0.028  0.3559 -0.3622  0.1537
  225MOL   H11736405   7.019   0.083   0.084 -0.4943 -0.4536  1.6113
  225MOL   H11836406   7.121   0.047   7.217  2.7216 -4.8130 -0.8712
  225MOL   H11936407   7.080   7.164   0.203 -0.9595  0.5938 -1.0418
  225MOL   H12036408   6.938   7.042   0.096 -1.9217 -0.1754 -0.7067
  225MOL   H12136409   6.908   7.189   0.030 -0.3181 -0.8879  0.3341
  225MOL   C12236410   7.213   7.069   0.056 -0.6745  1.0233 -0.1423
  225MOL   C12336411   7.229   6.948   0.149 -0.6685 -0.1469  0.3317
  225MOL   N12436412   7.194   6.816   0.082  0.1944  0.0265 -0.0083
  225MOL   H12536413   7.219   7.049   7.225 -1.1116 -1.2059  0.2304
  225MOL   H12636414   0.027   7.130   0.063  0.3108 -0.4130 -0.0713
  225MOL   H12736415   7.166   6.966   0.236 -0.6955 -0.0846  0.2995
  225MOL   H12836416   7.178   6.752   0.158  0.1726  1.4306  1.1706
  225MOL   H12936417   7.104   6.817   0.036 -0.4400  1.3799  1.2620
  225MOL   C13036418   0.101   6.935   0.212  0.5616  0.0554 -1.0168
  225MOL   C13136419   0.147   7.051   0.303 -0.0351  0.2243 -0.4749
  225MOL   N13236420   0.062   7.054   0.423 -0.3282  0.5285  0.0639
  225MOL   H13336421   0.097   6.836   0.257 -1.9507  0.1303 -0.9790
  225MOL   H13436422   0.168   6.922   0.127  0.5538 -1.4535 -0.8179
  225MOL   H13536423   0.141   7.142   0.244 -0.9933  1.7614  1.8997
  225MOL   H13636424   0.066   7.144   0.468 -3.9819  0.6955  0.2269
  225MOL   H13736425   0.100   6.995   0.496  0.2984  0.9751  0.0968
  225MOL   C13836426   0.287   7.026   0.353  0.2302 -1.2163 -0.4102
  225MOL   C13936427   0.358   7.150   0.411 -0.3059 -1.0496  0.2449
  225MOL   N14036428   0.443   7.111   0.525  0.1555 -0.2537  0.4394
  225MOL   H14136429   0.284   6.939   0.419 -0.4489 -0.1583  0.9741
  225MOL   H14236430   0.335   6.985   0.264 -0.4401  0.2668 -1.4584
  225MOL   H14336431   0.288   7.229   0.436 -0.6438 -0.8337 -1.2982
  225MOL   H14436432   0.485   7.024   0.495 -0.0099 -0.1977  0.0545
  225MOL   H14536433   0.379   7.087   0.600  0.4797  1.2850  1.2325
  225MOL   C14636434   0.445   7.208   0.294 -0.1566  0.0300  0.1091
  225MOL   C14736435   0.369   0.009   0.181 -0.1575 -0.5534  0.1848
  225MOL   N14836436   0.312   0.129   0.237 -0.5563  0.3399  0.8973
  225MOL   H14936437   0.514   0.008   0.330 -0.4567  0.3837 -0.0622
  225MOL   H15036438   0.504   7.124   0.255 -0.1906  1.1488 -2.4169
  225MOL   H15136439   0.287   7.223   0.143  0.9431 -0.8583 -1.7455
  225MOL   H15236440   0.224   0.104   0.281  0.3134 -2.5009  1.1469
  225MOL   H15336441   0.278   0.176   0.155 -1.1057 -0.1975  0.8057
  225MOL   C15436442   0.465   0.056   0.069 -0.0690  0.1459  0.4609
  225MOL   C15536443   0.541   7.213   0.008 -0.2017 -0.6114 -0.2572
  225MOL   N15636444   0.643   7.254   7.188  0.1102  0.1978  0.1199
  225MOL   H15736445   0.407   0.110   7.271  0.4498 -0.4832 -0.4190
  225MOL   H15836446   0.528   0.133   0.115  0.7555 -1.1096  1.4939
  225MOL   H15936447   0.470   7.150   7.229 -1.0032 -0.1379  0.2247
  225MOL   H16036448   0.718   7.188   7.172  0.8525  1.0715 -0.0434
  225MOL   H16136449   0.594   7.242   7.100 -1.2847 -3.3974  1.2655
  225MOL   H16236450   0.587   7.159   0.090 -1.5218  2.8489  2.8961
  226MOL     C136451   6.565   0.134   6.638 -0.0283  0.6128 -0.0112
  226MOL     C236452   6.482   0.078   6.757  0.2921  0.3444 -0.3514
  226MOL     N336453   6.353   0.096   6.696  0.2482 -0.3717  0.4653
  226MOL     H436454   6.525   0.091   6.546 -1.1270  1.8840 -0.1487
  226MOL     H536455   6.671   0.109   6.643 -0.7213 -2.6240 -0.3061
  226MOL     H636456   6.489   0.147   6.841 -2.0647  0.4984 -0.2438
  226MOL     H736457   6.273   0.070   6.751 -1.8547 -1.5242 -3.0178
  226MOL     H836458   6.340   0.196   6.688 -1.2080 -0.6429 -0.7571
  226MOL     H936459   6.549   0.240   6.619 -0.4016  0.6340  0.3981
  226MOL    C1036460   6.502   7.206   6.788 -0.0051 -0.8507 -0.7628
  226MOL    C1136461   6.603   7.176   6.900  0.7405 -0.1597  0.2021
  226MOL    N1236462   6.606   7.032   6.933  0.4262  0.9140 -0.1272
  226MOL    H1336463   6.406   7.158   6.805 -0.4377  0.2574 -0.0768
  226MOL    H1436464   6.533   7.162   6.693  2.1168 -0.9464 -0.0572
  226MOL    H1536465   6.577   7.237   6.987  1.2229  0.0004  0.2351
  226MOL    H1636466   6.638   7.020   7.028 -1.7942  0.8520  0.6422
  226MOL    H1736467   6.510   7.002   6.934  0.8918 -0.6989 -1.3838
  226MOL    C1836468   6.754   7.210   6.865 -0.3107  0.3458 -0.3492
  226MOL    C1936469   6.851   7.218   6.989 -0.0069 -0.4099 -0.1929
  226MOL    N2036470   6.986   7.178   6.936  0.4832  0.1165 -0.1511
  226MOL    H2136471   6.793   7.141   6.791 -1.8594  0.5192 -1.3481
  226MOL    H2236472   6.768   0.027   6.810 -0.8608  0.7324  0.1579
  226MOL    H2336473   6.822   7.149   7.069 -0.5387  1.1782  1.0189
  226MOL    H2436474   6.975   7.078   6.942 -0.3794  0.1473 -1.1732
  226MOL    H2536475   7.059   7.203   7.001  0.4296  0.0224 -0.0562
  226MOL    C2636476   6.857   0.089   7.046 -0.3691 -0.0491 -0.4588
  226MOL    C2736477   6.748   0.131   7.138  0.5326 -1.0064 -0.0845
  226MOL    N2836478   6.734   0.053   7.256  0.0078 -0.1499 -0.3400
  226MOL    H2936479   6.946   0.093   7.107  1.6885 -2.0225 -3.2026
  226MOL    H3036480   6.875   0.158   6.964  1.3199 -0.0486 -0.1007
  226MOL    H3136481   6.653   0.123   7.086 -0.7590  0.1515  2.0366
  226MOL    H3236482   6.662   0.089   0.042  0.3545  0.1710 -0.1200
  226MOL    H3336483   6.693   7.243   7.220 -1.2060  0.2954 -0.0573
  226MOL    C3436484   6.776   0.276   7.185 -0.6583  0.2140 -0.5859
  226MOL    C3536485   6.670   0.390   7.156 -0.0020  0.9976  0.1810
  226MOL    N3636486   6.716   0.505   7.233 -0.3142 -0.1223 -0.1285
  226MOL    H3736487   6.778   0.274   0.018 -0.9855  1.9766 -0.5429
  226MOL    H3836488   6.879   0.309   7.173 -1.1502  1.7664 -0.5963
  226MOL    H3936489   6.573   0.349   7.182  0.9587 -1.2554  0.3624
  226MOL    H4036490   6.806   0.531   7.196 -0.3430 -1.0865 -0.9010
  226MOL    H4136491   6.647   0.578   7.220  0.5686  1.3878  3.2024
  226MOL    C4236492   6.652   0.431   7.010 -0.4642  0.1908 -0.1971
  226MOL    C4336493   6.529   0.519   6.967 -0.6795 -0.5758  1.1090
  226MOL    N4436494   6.548   0.531   6.823 -0.0715 -0.5962 -0.2786
  226MOL    H4536495   6.742   0.477   6.971 -0.8721  0.9712 -0.2226
  226MOL    H4636496   6.641   0.334   6.960  2.5215 -0.2639 -0.0539
  226MOL    H4736497   6.527   0.620   7.010 -0.6614 -0.3272  0.5383
  226MOL    H4836498   6.460   0.556   6.781 -0.2882 -0.2256  0.3829
  226MOL    H4936499   6.553   0.438   6.784  0.8690 -0.2706 -0.9441
  226MOL    C5036500   6.392   0.455   6.992  0.0984  0.2855 -0.0715
  226MOL    C5136501   6.266   0.512   6.918  0.2510  0.3014 -0.3292
  226MOL    N5236502   6.154   0.419   6.936 -0.4128 -0.6789 -0.4906
  226MOL    H5336503   6.395   0.348   6.973  0.6918  0.2509  0.1958
  226MOL    H5436504   6.378   0.452   7.100 -1.3440  1.4801 -0.2121
  226MOL    H5536505   6.290   0.502   6.812  0.0217 -3.1701 -0.1177
  226MOL    H5636506   6.096   0.449   6.859 -1.9025 -1.5183  0.2732
  226MOL    H5736507   6.108   0.435   7.025 -0.6463  0.2603 -0.7660
  226MOL    C5836508   6.229   0.651   6.953 -0.2627 -0.5148 -0.6867
  226MOL    C5936509   6.295   0.773   6.891  0.2821 -1.1377 -0.4305
  226MOL    N6036510   6.289   0.760   6.748  0.2570  0.4208  0.2322
  226MOL    H6136511   6.126   0.661   6.918 -0.7515  0.0957  0.8826
  226MOL    H6236512   6.236   0.662   7.061  0.5910  1.1164 -0.8906
  226MOL    H6336513   6.402   0.771   6.911  0.2168 -2.2961 -0.1377
  226MOL    H6436514   6.191   0.753   6.723  0.5135  0.8639 -0.9835
  226MOL    H6536515   6.305   0.850   6.703  2.2329 -0.6378 -1.2689
  226MOL    C6636516   6.241   0.911   6.936 -0.4343 -0.0172 -0.0052
  226MOL    C6736517   6.305   0.965   7.070  0.3430  0.2241  0.3437
  226MOL    N6836518   6.303   1.113   7.060  0.0029  0.6529  0.0119
  226MOL    H6936519   6.269   0.986   6.862  0.8853 -1.6152 -1.1792
  226MOL    H7036520   6.132   0.916   6.936 -0.5192 -0.8538 -2.6204
  226MOL    H7136521   6.411   0.946   7.085  0.6653  2.7226  1.6021
  226MOL    H7236522   6.302   1.142   6.964  1.4245 -1.6262 -0.7145
  226MOL    H7336523   6.391   1.151   7.092  0.5399  0.1458 -0.8754
  226MOL    C7436524   6.229   0.925   7.197 -0.2627  0.1042  0.5810
  226MOL    C7536525   6.322   0.856   0.026 -0.1533 -0.3377  0.5684
  226MOL    N7636526   6.419   0.949   0.079  0.0264  0.0005 -0.6525
  226MOL    H7736527   6.169   1.001   7.247 -0.3852 -0.8786  1.9520
  226MOL    H7836528   6.150   0.858   7.163  0.1075  0.5203 -1.1549
  226MOL    H7936529   6.374   0.782   7.240 -0.5336  0.5394 -0.8353
  226MOL    H8036530   6.379   1.025   0.132  0.8035 -0.7741  1.0720
  226MOL    H8136531   6.465   0.883   0.140  1.0958  0.4766 -0.9208
  226MOL    C8236532   6.259   0.785   0.148  0.1829 -0.4377  0.1151
  226MOL    C8336533   6.154   0.687   0.105  0.4453  0.3105  0.3037
  226MOL    N8436534   6.238   0.575   0.070  0.5195  0.7057  0.3114
  226MOL    H8536535   6.338   0.738   0.206  1.6485  1.5079 -0.2451
  226MOL    H8636536   6.211   0.860   0.211  1.0259 -0.5148  0.8588
  226MOL    H8736537   6.089   0.722   0.025 -0.7167 -0.9487  0.6630
  226MOL    H8836538   6.193   0.494   0.111  0.1702  0.9013  0.3216
  226MOL    H8936539   6.317   0.591   0.131  0.3120 -0.9983  1.0419
  226MOL    C9036540   6.061   0.647   0.217 -0.0179  0.0527 -0.4468
  226MOL    C9136541   5.949   0.751   0.264  0.0379  0.3918 -0.0484
  226MOL    N9236542   5.853   0.780   0.160 -0.1837  0.0008  0.1013
  226MOL    H9336543   6.006   0.555   0.197  1.7111 -1.2500  0.5717
  226MOL    H9436544   6.126   0.623   0.302 -1.2216  1.3473  0.8587
  226MOL    H9536545   6.005   0.843   0.282  1.2305 -0.5434  1.1702
  226MOL    H9636546   5.776   0.838   0.192  0.1016  1.6574 -2.1108
  226MOL    H9736547   5.897   0.834   0.087 -2.4586  1.3858 -0.3065
  226MOL    C9836548   5.859   0.721   0.385  0.5903 -1.0893 -0.1647
  226MOL    C9936549   5.948   0.727   0.510 -0.3625 -0.1513 -0.0678
  226MOL   N10036550   5.888   0.808   0.607 -0.0026 -0.6865  0.0047
  226MOL   H10136551   5.784   0.799   0.398  0.8740 -0.6890 -0.9014
  226MOL   H10236552   5.804   0.628   0.376 -0.6373 -0.4239  0.3663
  226MOL   H10336553   6.048   0.770   0.500 -0.5319  0.8646  2.1095
  226MOL   H10436554   5.794   0.775   0.624 -0.2345 -0.1800 -0.2732
  226MOL   H10536555   5.932   0.775   0.692 -1.2946 -1.5385  0.3724
  226MOL   C10636556   5.977   0.589   0.582  0.5923 -0.0900  0.0004
  226MOL   C10736557   6.101   0.573   0.663  0.1976  0.3875  0.5165
  226MOL   N10836558   6.100   0.640   0.791  0.5682 -0.4152 -0.0823
  226MOL   H10936559   5.896   0.551   0.644  0.7346  0.6732  0.6567
  226MOL   H11036560   5.976   0.517   0.500 -1.4352 -2.3257  1.9234
  226MOL   H11136561   6.188   0.605   0.606  1.4736 -1.4373  1.3960
  226MOL   H11236562   6.193   0.627   0.830 -0.0774  1.0308  1.9768
  226MOL   H11336563   6.083   0.739   0.787 -0.2711 -0.4930  1.3068
  226MOL   C11436564   6.120   0.430   0.718  0.2021 -0.5925  0.6675
  226MOL   C11536565   6.116   0.312   0.615 -0.2604 -0.3909  0.8271
  226MOL   N11636566   6.242   0.296   0.553 -0.3741  0.9536 -0.0199
  226MOL   H11736567   6.219   0.432   0.764  0.3052  0.2274  0.4044
  226MOL   H11836568   6.045   0.405   0.793  1.6430  0.7781  2.6044
  226MOL   H11936569   6.050   0.322   0.528  1.8261 -0.7957 -0.8541
  226MOL   H12036570   6.313   0.326   0.618  1.1743 -2.1019 -0.1984
  226MOL   H12136571   6.261   0.197   0.544  1.3331  1.1882  0.8200
  226MOL   C12236572   6.081   0.178   0.673 -0.0958 -0.0264 -0.6044
  226MOL   C12336573   5.931   0.159   0.714 -0.3002 -0.1773 -0.5110
  226MOL   N12436574   5.852   0.138   0.597  0.1237  0.6821  0.5820
  226MOL   H12536575   6.104   0.095   0.607 -1.0463 -1.7093  1.1482
  226MOL   H12636576   6.128   0.157   0.769  0.0002  2.6236 -0.0249
  226MOL   H12736577   5.886   0.252   0.749  0.9075 -0.2449  1.2903
  226MOL   H12836578   5.779   0.070   0.608  0.9816 -0.1531  1.2655
  226MOL   H12936579   5.798   0.219   0.569  0.0139  0.2575 -0.4581
  226MOL   C13036580   5.907   0.039   0.818 -0.4654  0.6077  0.1514
  226MOL   C13136581   5.772   0.030   0.884 -0.6862  0.0341  0.4813
  226MOL   N13236582   5.753   7.178   0.953 -0.7519  0.5272 -0.4108
  226MOL   H13336583   5.921   7.223   0.761 -0.9056  1.2409 -0.9891
  226MOL   H13436584   5.988   0.051   0.890  0.2136 -0.1546 -0.4827
  226MOL   H13536585   5.694   0.039   0.809  0.3320  2.7888 -0.2803
  226MOL   H13636586   5.659   7.187   0.990 -0.6141  0.2320  0.0058
  226MOL   H13736587   5.760   7.096   0.894  0.9465 -2.4223  3.6712
  226MOL   C13836588   5.765   0.140   0.988  0.2488 -0.3642 -0.8434
  226MOL   C13936589   5.683   0.256   0.937 -0.5594 -0.5238  0.0343
  226MOL   N14036590   5.543   0.212   0.940  0.5767 -0.2131  0.3392
  226MOL   H14136591   5.732   0.108   1.087 -0.1780 -0.1085 -0.9002
  226MOL   H14236592   5.866   0.171   1.013 -0.9403  2.8040  0.2144
  226MOL   H14336593   5.718   0.278   0.836  0.2120  1.0423  0.6300
  226MOL   H14436594   5.539   0.125   0.889 -0.3098  1.0395 -1.8131
  226MOL   H14536595   5.517   0.185   1.033 -3.2470 -0.4800 -0.7258
  226MOL   C14636596   5.689   0.391   1.017  0.0127 -0.5020 -0.1053
  226MOL   C14736597   5.833   0.447   1.019  0.6410 -0.0337 -0.0674
  226MOL   N14836598   5.837   0.564   0.936 -0.0509  0.0725 -0.4549
  226MOL   H14936599   5.627   0.464   0.966  1.1032  1.5456  1.4400
  226MOL   H15036600   5.653   0.378   1.119 -0.3847  0.2565 -0.1483
  226MOL   H15136601   5.897   0.375   0.968 -0.5042 -0.6901 -0.5890
  226MOL   H15236602   5.934   0.584   0.915 -0.0870 -0.3881 -1.0809
  226MOL   H15336603   5.794   0.640   0.988 -0.0402  0.2851 -0.7563
  226MOL   C15436604   5.891   0.472   1.163 -0.2836 -0.0815  0.6604
  226MOL   C15536605   5.938   0.347   1.242  0.0658  0.1141  0.4567
  226MOL   N15636606   5.990   0.392   1.371 -0.6380 -0.1835 -0.0409
  226MOL   H15736607   5.979   0.535   1.148 -2.2647  2.4174 -0.8363
  226MOL   H15836608   5.824   0.531   1.225 -0.7998  0.5547 -0.4890
  226MOL   H15936609   6.020   0.294   1.193  1.1177  2.0092  0.1201
  226MOL   H16036610   6.002   0.305   1.421 -1.3878 -0.6385 -0.6608
  226MOL   H16136611   5.927   0.440   1.433 -0.1357  1.7414 -0.9752
  226MOL   H16236612   5.856   0.279   1.264  0.5694 -1.3903 -2.0549
  227MOL     C136613   7.078   3.455   3.699  0.1007 -1.0536 -0.5642
  227MOL     C236614   7.039   3.587   3.639  0.4172  0.0066 -1.3050
  227MOL     N336615   7.090   3.697   3.724  0.6280  0.0194  0.7907
  227MOL     H436616   7.062   3.365   3.640  1.3110 -1.4898 -0.2397
  227MOL     H536617   7.040   3.448   3.801 -1.1884  0.1767 -0.9300
  227MOL     H636618   6.931   3.591   3.653  0.4862  2.1456 -1.1473
  227MOL     H736619   7.176   3.681   3.775 -0.1729  0.0967  2.1994
  227MOL     H836620   7.133   3.763   3.660  1.7229 -1.2092  0.2357
  227MOL     H936621   7.182   3.454   3.729 -0.3135  2.3543  1.2929
  227MOL    C1036622   7.067   3.604   3.486  0.1238 -0.6690 -0.0566
  227MOL    C1136623   7.024   3.494   3.385  0.2999  0.0341 -0.1770
  227MOL    N1236624   6.883   3.511   3.365 -0.0595 -0.3720 -0.0248
  227MOL    H1336625   7.028   3.702   3.456  0.6324  0.2001  1.9985
  227MOL    H1436626   7.168   3.637   3.463 -1.2589  2.6703 -1.7952
  227MOL    H1536627   7.048   3.392   3.416  1.8513  0.5477  0.3276
  227MOL    H1636628   6.845   3.446   3.297  0.4383  0.1821 -0.8500
  227MOL    H1736629   6.834   3.486   3.449  1.0981 -0.3737  0.6512
  227MOL    C1836630   7.086   3.529   3.251  0.4186  1.5418  0.5508
  227MOL    C1936631   7.073   3.414   3.146 -0.2043  0.3817 -0.0490
  227MOL    N2036632   7.110   3.466   3.015  0.2064 -0.4916  0.9210
  227MOL    H2136633   7.055   3.623   3.205  2.0595  1.5133 -0.6917
  227MOL    H2236634   7.195   3.541   3.254  1.0551 -1.8987 -2.9746
  227MOL    H2336635   6.968   3.385   3.142 -0.2250  0.6150 -2.1017
  227MOL    H2436636   7.072   3.408   2.943 -0.3892  0.5120  0.4166
  227MOL    H2536637   7.209   3.473   2.999  0.6943 -0.5006  3.6833
  227MOL    C2636638   7.155   3.290   3.184 -0.4761 -0.1785  0.4724
  227MOL    C2736639   7.157   3.172   3.077  0.3480 -0.1977 -0.2246
  227MOL    N2836640   7.259   3.079   3.110 -0.5903  0.1637  0.2733
  227MOL    H2936641   7.261   3.316   3.186 -0.3979 -0.3264 -1.0871
  227MOL    H3036642   7.133   3.256   3.285  0.3770  1.2573  1.1608
  227MOL    H3136643   7.178   3.211   2.978  1.3283 -0.6460 -0.2011
  227MOL    H3236644   7.224   3.013   3.179 -0.1986  0.0010  0.3158
  227MOL    H3336645   0.015   3.027   3.029  0.6394  0.4833  0.5374
  227MOL    C3436646   7.019   3.105   3.063  0.8581 -0.3204  0.2262
  227MOL    C3536647   7.002   3.026   2.936 -0.7579 -0.7393 -0.2523
  227MOL    N3636648   6.912   2.915   2.962  0.0705 -0.7264  0.0068
  227MOL    H3736649   6.993   3.047   3.151  1.0560 -0.2494  0.3304
  227MOL    H3836650   6.942   3.182   3.068  0.2811 -0.8114 -0.9782
  227MOL    H3936651   7.103   2.993   2.909 -0.5710 -1.1424  0.8963
  227MOL    H4036652   6.897   2.848   2.888 -0.3027 -0.0486 -0.5364
  227MOL    H4136653   6.931   2.858   3.043 -0.4316 -1.5420 -0.4446
  227MOL    C4236654   6.934   3.104   2.821 -0.0963 -0.2399 -0.3435
  227MOL    C4336655   6.949   3.053   2.670 -0.0240 -0.0272 -0.2086
  227MOL    N4436656   6.838   3.103   2.596 -0.9475 -0.6558 -0.6227
  227MOL    H4536657   6.832   3.130   2.849  0.3218  0.5942  0.4292
  227MOL    H4636658   6.982   3.201   2.835  1.1066 -1.0043  0.8637
  227MOL    H4736659   6.937   2.945   2.668  1.7450 -0.2287 -2.0885
  227MOL    H4836660   6.766   3.135   2.660  0.4111 -0.6604  0.9290
  227MOL    H4936661   6.878   3.190   2.562 -0.1846 -1.2988 -1.3770
  227MOL    C5036662   7.078   3.116   2.613 -0.6400 -1.2327  0.1843
  227MOL    C5136663   7.121   3.084   2.467 -0.5129  0.1826 -0.0402
  227MOL    N5236664   7.224   3.181   2.438  0.1387  0.3691 -0.0680
  227MOL    H5336665   7.078   3.224   2.626  0.6073 -1.4344  2.1996
  227MOL    H5436666   7.158   3.089   2.683  0.2636 -1.0436 -0.7648
  227MOL    H5536667   7.033   3.109   2.407 -0.0292  1.2883 -0.2928
  227MOL    H5636668   7.241   3.190   2.339 -0.7356  0.3512 -0.2180
  227MOL    H5736669   7.191   3.272   2.468  1.4062  0.7829  0.1217
  227MOL    C5836670   7.175   2.939   2.464 -0.5096  0.1292  0.3418
  227MOL    C5936671   7.236   2.901   2.329  0.1205 -0.1345 -0.8458
  227MOL    N6036672   0.016   2.764   2.346 -0.5873 -0.2240  0.5668
  227MOL    H6136673   7.245   2.927   2.547  0.5493 -0.0947 -0.5724
  227MOL    H6236674   7.100   2.866   2.496 -0.8345  0.3642  0.1228
  227MOL    H6336675   0.040   2.968   2.296  0.3505  0.1245  0.1956
  227MOL    H6436676   7.222   2.707   2.391 -1.7042 -1.4292 -2.5975
  227MOL    H6536677   0.094   2.751   2.410 -1.3262 -2.4524  1.0677
  227MOL    C6636678   7.123   2.891   2.221  0.6433 -0.2691  0.0130
  227MOL    C6736679   7.103   3.017   2.134  0.2145  0.0446  0.0885
  227MOL    N6836680   7.194   3.011   2.018 -0.4038 -0.8867  0.5726
  227MOL    H6936681   7.138   2.812   2.148  1.8880  2.3401 -2.6532
  227MOL    H7036682   7.031   2.860   2.271 -0.4704 -0.8821 -2.3399
  227MOL    H7136683   7.124   3.103   2.198 -2.2111 -0.0831  1.1327
  227MOL    H7236684   7.174   3.085   1.952  1.6473  0.0731  0.9855
  227MOL    H7336685   0.012   3.038   2.042  0.2655 -2.7644  0.1850
  227MOL    C7436686   6.963   3.044   2.070 -0.1921 -0.4593  0.4081
  227MOL    C7536687   6.839   3.032   2.166 -0.5767  0.7080 -0.0501
  227MOL    N7636688   6.732   3.123   2.133  0.0857  0.1766 -0.3386
  227MOL    H7736689   6.960   3.139   2.017  1.0145  0.5491  2.0782
  227MOL    H7836690   6.943   2.976   1.987 -1.7928  0.4867  0.0076
  227MOL    H7936691   6.873   3.061   2.265 -0.1791 -2.4980  0.8133
  227MOL    H8036692   6.652   3.084   2.180 -0.8553  0.6771 -1.4703
  227MOL    H8136693   6.755   3.215   2.167 -1.4869  0.2197  0.6490
  227MOL    C8236694   6.782   2.886   2.182  0.2143 -0.5377  0.4150
  227MOL    C8336695   6.759   2.845   2.338  0.4954  0.5772 -0.5707
  227MOL    N8436696   6.638   2.903   2.387 -0.3965  0.5626  0.8455
  227MOL    H8536697   6.683   2.875   2.139  0.3392 -0.7525  0.1832
  227MOL    H8636698   6.848   2.806   2.148  0.2284 -1.1320  1.8113
  227MOL    H8736699   6.847   2.865   2.400  1.0703 -1.7220 -0.5849
  227MOL    H8836700   6.666   2.995   2.418  0.0403 -0.0469  2.2814
  227MOL    H8936701   6.628   2.852   2.473  0.5972 -1.6474 -0.2990
  227MOL    C9036702   6.723   2.687   2.347 -0.5444  0.0256 -0.1074
  227MOL    C9136703   6.771   2.616   2.472  0.2670 -0.5485 -0.2673
  227MOL    N9236704   6.682   2.502   2.504 -0.0150  0.7525  0.6879
  227MOL    H9336705   6.617   2.666   2.331 -0.1808 -3.0411  1.1380
  227MOL    H9436706   6.769   2.629   2.267  0.6698 -0.6948  1.0984
  227MOL    H9536707   6.772   2.690   2.552 -0.9340  1.5700 -2.1632
  227MOL    H9636708   6.705   2.486   2.601 -1.1328  0.7779  0.9703
  227MOL    H9736709   6.585   2.531   2.513 -1.0132 -1.7045 -1.5172
  227MOL    C9836710   6.914   2.559   2.457  0.4324 -0.1809  0.0230
  227MOL    C9936711   6.979   2.497   2.577 -0.8355 -0.2728 -0.1560
  227MOL   N10036712   7.108   2.439   2.536  0.1162 -0.8171  0.3341
  227MOL   H10136713   6.907   2.483   2.379  1.8089  0.6017 -0.8832
  227MOL   H10236714   6.974   2.637   2.409 -2.3863  1.2738 -1.2449
  227MOL   H10336715   6.917   2.415   2.613 -1.2090 -0.1104 -0.4351
  227MOL   H10436716   7.139   2.396   2.622  1.0216  0.9513  0.9145
  227MOL   H10536717   7.091   2.357   2.479 -1.5916  0.6518 -1.3166
  227MOL   C10636718   7.020   2.594   2.688 -0.2311 -0.2561 -0.8480
  227MOL   C10736719   7.117   2.551   2.809 -0.1887  0.1446  0.1594
  227MOL   N10836720   7.120   2.653   2.907  0.0683 -0.1618 -0.1495
  227MOL   H10936721   7.047   2.693   2.651 -0.7183  0.8733  1.7025
  227MOL   H11036722   6.929   2.625   2.739 -0.8531  1.0777 -2.7210
  227MOL   H11136723   7.218   2.544   2.768  0.0113 -1.5430  0.8905
  227MOL   H11236724   7.158   2.618   2.994 -0.8384 -0.1435  0.2553
  227MOL   H11336725   7.193   2.718   2.884 -0.6645 -0.4052 -3.3693
  227MOL   C11436726   7.076   2.420   2.891 -0.0317 -0.5808 -0.2374
  227MOL   C11536727   7.093   2.280   2.821 -0.2829  0.0089 -0.2347
  227MOL   N11636728   7.228   2.237   2.772 -0.1389  0.0993  0.3067
  227MOL   H11736729   7.131   2.407   2.984 -0.1849  1.7161  0.2068
  227MOL   H11836730   6.970   2.436   2.911  0.1676 -0.6719  0.9249
  227MOL   H11936731   7.039   2.295   2.727  0.2858  0.1250 -0.5475
  227MOL   H12036732   7.261   2.167   2.838  2.7386  0.0891 -1.0861
  227MOL   H12136733   7.209   2.180   2.691 -0.9624  1.6769 -0.6094
  227MOL   C12236734   7.037   2.165   2.903  0.6702  0.3199 -0.0734
  227MOL   C12336735   6.932   2.090   2.826 -0.3923 -0.2040 -0.2111
  227MOL   N12436736   6.904   1.962   2.893 -0.2842  0.0515  0.1192
  227MOL   H12536737   7.115   2.101   2.945  1.4365  1.4893  0.3230
  227MOL   H12636738   6.985   2.212   2.986 -0.7772 -0.0332 -0.7583
  227MOL   H12736739   6.977   2.062   2.731 -1.6902 -0.1309 -0.8504
  227MOL   H12836740   6.852   1.970   2.979 -0.9202  0.6400 -0.3114
  227MOL   H12936741   6.992   1.917   2.913  1.0482  2.4186 -0.2139
  227MOL   C13036742   6.805   2.170   2.805  0.9222  0.6362 -0.1691
  227MOL   C13136743   6.712   2.131   2.695  0.0031  0.0519 -0.2358
  227MOL   N13236744   6.597   2.213   2.695 -0.0569  0.0992 -0.1573
  227MOL   H13336745   6.748   2.171   2.898 -2.2300 -1.0452 -2.0045
  227MOL   H13436746   6.836   2.273   2.785  1.3913  0.2637 -1.4447
  227MOL   H13536747   6.680   2.028   2.707 -1.7690  0.4188 -1.6175
  227MOL   H13636748   6.616   2.289   2.631 -0.1533 -0.0072 -0.3138
  227MOL   H13736749   6.589   2.256   2.786  1.1215  0.8923 -0.4225
  227MOL   C13836750   6.785   2.140   2.557 -0.8212 -0.6922  0.2688
  227MOL   C13936751   6.700   2.082   2.443 -0.0095 -0.2114 -0.1646
  227MOL   N14036752   6.714   2.169   2.328 -0.4676 -0.0437  0.1337
  227MOL   H14136753   6.789   2.246   2.535  0.8020 -1.2936 -2.6929
  227MOL   H14236754   6.892   2.118   2.551 -0.8343 -0.9398  0.9463
  227MOL   H14336755   6.595   2.074   2.473  0.3898 -0.4612  1.2092
  227MOL   H14436756   6.701   2.263   2.364  1.8800 -0.4317  2.1075
  227MOL   H14536757   6.627   2.168   2.276 -0.0949 -4.5971 -0.5358
  227MOL   C14636758   6.737   1.943   2.395 -0.0496 -0.2274 -0.5248
  227MOL   C14736759   6.695   1.825   2.481  0.1515  1.1657 -0.6854
  227MOL   N14836760   6.685   1.709   2.391  0.2942  0.3485  0.8885
  227MOL   H14936761   6.685   1.933   2.300 -0.9423 -3.3139  0.2176
  227MOL   H15036762   6.844   1.936   2.376  0.6217  3.8870  1.1975
  227MOL   H15136763   6.600   1.852   2.528 -0.0180 -0.0417 -0.3164
  227MOL   H15236764   6.614   1.721   2.320 -0.6315 -0.5411  1.6510
  227MOL   H15336765   6.648   1.640   2.455 -1.0135  0.6391  0.4567
  227MOL   C15436766   6.791   1.788   2.595 -0.3320  0.2657  0.0360
  227MOL   C15536767   6.713   1.705   2.698  0.5317 -0.7413 -0.6176
  227MOL   N15636768   6.802   1.676   2.816 -0.4961  0.1672 -0.2809
  227MOL   H15736769   6.878   1.729   2.569  0.0149  0.3635  0.9575
  227MOL   H15836770   6.822   1.882   2.642  0.3866  0.3211 -0.5467
  227MOL   H15936771   6.677   1.617   2.645  1.2206 -0.0334 -2.3041
  227MOL   H16036772   6.840   1.762   2.853  1.7529  0.0094 -2.1503
  227MOL   H16136773   6.756   1.635   2.897 -2.9086 -1.2532 -2.3057
  227MOL   H16236774   6.622   1.753   2.733 -0.9515 -2.4166 -2.1509
  228MOL     C136775   2.391   2.133   1.646  0.6404 -0.1249  0.0281
  228MOL     C236776   2.245   2.174   1.643 -0.2817  0.4531  0.1048
  228MOL     N336777   2.194   2.115   1.767 -0.7207  0.0411  0.2271
  228MOL     H436778   2.435   2.186   1.730  0.7839  0.6313 -0.5194
  228MOL     H536779   2.450   2.153   1.556  1.2754 -1.9926 -0.0033
  228MOL     H636780   2.195   2.121   1.562  1.3727  1.0112 -1.3261
  228MOL     H736781   2.095   2.113   1.747 -0.3557 -0.0046 -1.6064
  228MOL     H836782   2.225   2.019   1.776 -0.0791  0.2072 -0.2341
  228MOL     H936783   2.402   2.025   1.660  1.5125 -0.5049 -3.1120
  228MOL    C1036784   2.210   2.319   1.620 -0.5887  0.5310 -0.1396
  228MOL    C1136785   2.262   2.384   1.486  0.3754  0.1829  0.0330
  228MOL    N1236786   2.162   2.469   1.433 -0.1112 -0.0513 -0.8429
  228MOL    H1336787   2.101   2.319   1.624 -0.6820  3.4970 -1.3849
  228MOL    H1436788   2.255   2.371   1.705  0.2032  1.9557 -1.4036
  228MOL    H1536789   2.265   2.299   1.417 -0.5211 -1.1583  1.6010
  228MOL    H1636790   2.085   2.409   1.407 -0.5704 -0.4964  1.4189
  228MOL    H1736791   2.122   2.522   1.509 -2.6611 -1.6690 -0.9827
  228MOL    C1836792   2.397   2.463   1.499  0.1157  0.6956  0.2230
  228MOL    C1936793   2.447   2.522   1.369 -0.2305 -0.3416 -0.1620
  228MOL    N2036794   2.371   2.649   1.362 -0.6048  0.7228 -0.5878
  228MOL    H2136795   2.408   2.525   1.588  2.5767  1.4505 -0.5696
  228MOL    H2236796   2.471   2.389   1.529 -0.5764 -1.1666 -2.5044
  228MOL    H2336797   2.419   2.456   1.287 -1.1831  0.1178 -0.2109
  228MOL    H2436798   2.279   2.628   1.397  0.8710 -0.5915  2.7372
  228MOL    H2536799   2.361   2.678   1.266  0.6536 -0.0586 -0.9677
  228MOL    C2636800   2.601   2.548   1.367  0.3675 -0.0276 -0.3930
  228MOL    C2736801   2.684   2.433   1.307 -0.0934  0.4667  0.5600
  228MOL    N2836802   2.822   2.482   1.288  0.0308 -0.5444 -0.4906
  228MOL    H2936803   2.620   2.642   1.315 -0.3245  0.7162  0.6720
  228MOL    H3036804   2.645   2.571   1.464 -0.3551 -0.7109  0.0974
  228MOL    H3136805   2.654   2.408   1.205  1.0359 -0.3533  0.4219
  228MOL    H3236806   2.852   2.513   1.379 -1.9943 -0.7010  0.2658
  228MOL    H3336807   2.815   2.568   1.237  0.5605 -1.8736 -2.8819
  228MOL    C3436808   2.701   2.299   1.390  0.5011 -0.4399 -0.1928
  228MOL    C3536809   2.706   2.186   1.289  0.5796 -0.3993 -0.3399
  228MOL    N3636810   2.752   2.067   1.356  0.0394  0.4643 -0.2408
  228MOL    H3736811   2.790   2.306   1.452  0.0261 -0.3491  0.4877
  228MOL    H3836812   2.622   2.278   1.462 -0.9028  1.1924 -1.2011
  228MOL    H3936813   2.783   2.205   1.214  2.0408 -0.5124  1.1013
  228MOL    H4036814   2.829   2.093   1.416 -1.4284  0.0289  1.9061
  228MOL    H4136815   2.809   2.007   1.298 -0.1336  0.6626 -0.6179
  228MOL    C4236816   2.557   2.156   1.237 -0.0563 -0.1802 -0.5368
  228MOL    C4336817   2.562   2.035   1.136  0.3606 -0.1022  0.2184
  228MOL    N4436818   2.428   1.991   1.095 -0.1947 -0.1954 -0.1234
  228MOL    H4536819   2.478   2.126   1.305  0.8094 -0.1816  0.4771
  228MOL    H4636820   2.508   2.244   1.196  0.4535  0.6232  0.5667
  228MOL    H4736821   2.605   1.953   1.195 -2.7723 -0.9030  1.4674
  228MOL    H4836822   2.439   1.921   1.023  0.5369 -3.5793  3.1243
  228MOL    H4936823   2.403   1.931   1.172 -0.1403  2.7023  2.2549
  228MOL    C5036824   2.648   2.051   1.010  1.1349 -0.1509 -0.1031
  228MOL    C5136825   2.786   1.978   1.006  0.3773 -0.2903  0.6781
  228MOL    N5236826   2.770   1.833   1.011  0.1985  0.2135 -0.6709
  228MOL    H5336827   2.601   2.014   0.918 -1.6646 -0.3430  1.3358
  228MOL    H5436828   2.651   2.157   0.986  0.5882 -0.6436 -2.4548
  228MOL    H5536829   2.838   2.010   1.097 -0.7289 -0.9276  1.5396
  228MOL    H5636830   2.857   1.796   1.046 -0.6446  0.2042  1.4745
  228MOL    H5736831   2.710   1.809   1.088 -0.3680 -1.5903 -1.6346
  228MOL    C5836832   2.876   2.011   0.885 -0.2149 -0.7225  0.2278
  228MOL    C5936833   2.965   2.143   0.898 -0.6104  0.7187 -0.1824
  228MOL    N6036834   3.062   2.126   1.003 -0.2022 -0.1242 -0.4058
  228MOL    H6136835   2.950   1.933   0.871  0.7256 -0.4494  3.2018
  228MOL    H6236836   2.808   2.018   0.800 -0.2429  0.4708  0.3346
  228MOL    H6336837   2.904   2.228   0.929  0.2191  1.3749 -0.3358
  228MOL    H6436838   3.138   2.066   0.977  0.1257  0.2996 -0.4372
  228MOL    H6536839   3.101   2.219   1.011 -0.0299 -0.1502 -0.9446
  228MOL    C6636840   3.039   2.184   0.770 -0.2204 -0.3914  0.2874
  228MOL    C6736841   2.954   2.241   0.655  0.1836  0.1269  0.3413
  228MOL    N6836842   2.915   2.370   0.698  0.4034  0.6458 -0.4967
  228MOL    H6936843   3.122   2.251   0.793 -0.6690  0.2325  0.0590
  228MOL    H7036844   3.080   2.089   0.734 -0.4831 -0.4170  0.0619
  228MOL    H7136845   2.867   2.176   0.643 -0.1290  0.8476 -1.4790
  228MOL    H7236846   2.854   2.420   0.635 -0.1309  1.9167  1.0013
  228MOL    H7336847   2.855   2.359   0.779 -0.4608 -1.9318 -1.4198
  228MOL    C7436848   3.025   2.265   0.522 -0.8120  0.4942  0.2991
  228MOL    C7536849   3.096   2.144   0.451  0.2808  1.1996 -0.5757
  228MOL    N7636850   3.085   2.168   0.313  0.0207  0.1287  0.9839
  228MOL    H7736851   2.942   2.297   0.459  1.2468  1.3570 -2.0877
  228MOL    H7836852   3.095   2.348   0.528  0.6225 -0.6240 -0.4994
  228MOL    H7936853   3.052   2.051   0.488  4.8054  0.2265  2.9504
  228MOL    H8036854   3.130   2.258   0.304  0.5222  0.0049  2.2183
  228MOL    H8136855   2.991   2.182   0.280  0.3588 -0.4737 -0.2832
  228MOL    C8236856   3.242   2.148   0.481  0.4181  0.1938 -0.4123
  228MOL    C8336857   3.323   2.030   0.416  0.9603  0.5900  0.1874
  228MOL    N8436858   3.457   2.048   0.456 -0.2502 -0.0523 -0.0959
  228MOL    H8536859   3.288   2.244   0.457  0.1288  0.8230  1.4405
  228MOL    H8636860   3.253   2.143   0.590  0.0116  0.6968 -0.3468
  228MOL    H8736861   3.323   2.035   0.307 -1.7171 -1.0279  0.0728
  228MOL    H8836862   3.455   2.074   0.553 -1.3994  2.5830 -0.7823
  228MOL    H8936863   3.505   1.959   0.452  1.1295  0.7407 -3.0964
  228MOL    C9036864   3.282   1.890   0.457  0.6254 -0.2842  0.0769
  228MOL    C9136865   3.241   1.798   0.341 -0.2780 -0.1159  0.5526
  228MOL    N9236866   3.361   1.763   0.269  0.0722  0.3794  0.0434
  228MOL    H9336867   3.344   1.844   0.533 -0.3071 -1.7098 -0.0001
  228MOL    H9436868   3.191   1.889   0.518 -0.0832 -0.9966 -0.9564
  228MOL    H9536869   3.180   1.854   0.270  0.2611 -2.9258 -2.2566
  228MOL    H9636870   3.326   1.768   0.174  0.3538 -0.1561 -0.0874
  228MOL    H9736871   3.412   1.850   0.278  0.2691  0.3907 -1.0704
  228MOL    C9836872   3.176   1.661   0.371 -0.7054  0.0463  0.2052
  228MOL    C9936873   3.036   1.674   0.437  0.5542 -0.2532  1.0263
  228MOL   N10036874   2.942   1.728   0.336  0.5423 -0.5049 -0.1829
  228MOL   H10136875   3.178   1.600   0.280  1.8719  0.0500  0.2227
  228MOL   H10236876   3.246   1.609   0.436 -2.5694 -0.7170  1.6482
  228MOL   H10336877   3.040   1.753   0.511 -2.3428  0.9056  0.0167
  228MOL   H10436878   3.000   1.802   0.299  0.8570  0.1627  1.5660
  228MOL   H10536879   2.925   1.684   0.247 -1.1888  0.9869 -0.6178
  228MOL   C10636880   2.970   1.548   0.498  0.7934  0.0164  0.0013
  228MOL   C10736881   2.989   1.541   0.656 -0.5606 -0.2891  0.0478
  228MOL   N10836882   2.894   1.438   0.704 -0.2554 -0.5511  0.4456
  228MOL   H10936883   2.863   1.548   0.476 -0.0229  1.0197  3.6631
  228MOL   H11036884   3.012   1.466   0.440 -1.2216 -0.9284 -0.1592
  228MOL   H11136885   2.959   1.640   0.692 -0.2607 -0.0991 -0.2231
  228MOL   H11236886   2.907   1.345   0.668  2.5475  0.1687 -0.5304
  228MOL   H11336887   2.925   1.423   0.799 -1.3158 -1.1498  0.7083
  228MOL   C11436888   3.140   1.501   0.690  0.2202 -1.2856 -0.2530
  228MOL   C11536889   3.173   1.521   0.843 -0.1446  0.0286 -0.8892
  228MOL   N11636890   3.301   1.465   0.850  0.4226 -0.1592  0.1648
  228MOL   H11736891   3.160   1.401   0.651 -1.0544 -1.2569 -1.0343
  228MOL   H11836892   3.210   1.560   0.632  0.8268 -2.0145 -0.2731
  228MOL   H11936893   3.096   1.467   0.898 -0.5962 -0.6328 -2.1584
  228MOL   H12036894   3.354   1.512   0.923  0.5413 -0.2706  0.1512
  228MOL   H12136895   3.310   1.368   0.878  0.3157 -0.4711 -0.8615
  228MOL   C12236896   3.193   1.673   0.872  0.4146 -0.3186  0.2514
  228MOL   C12336897   3.197   1.704   1.026 -0.1173 -0.4921  0.1580
  228MOL   N12436898   3.225   1.851   1.033 -0.7891 -0.2626  0.3580
  228MOL   H12536899   3.289   1.703   0.831  1.3579 -2.1521  1.0662
  228MOL   H12636900   3.114   1.732   0.826  0.1907 -0.2879  0.6706
  228MOL   H12736901   3.286   1.661   1.071 -1.6244 -2.7368  1.0518
  228MOL   H12836902   3.245   1.876   1.128  1.9049  0.4522 -0.3410
  228MOL   H12936903   3.134   1.891   1.021 -0.2033  2.0897  3.2024
  228MOL   C13036904   3.060   1.663   1.092 -0.1887 -0.1549  0.0025
  228MOL   C13136905   3.081   1.583   1.227  0.3884 -0.2762 -0.4025
  228MOL   N13236906   2.956   1.569   1.299  0.2486  0.1398  0.7183
  228MOL   H13336907   3.006   1.755   1.116  1.0884  0.4777  0.4857
  228MOL   H13436908   2.988   1.617   1.024 -0.1347 -0.2790  0.0299
  228MOL   H13536909   3.143   1.644   1.293 -2.6086  0.1006  2.2160
  228MOL   H13636910   2.955   1.500   1.372 -0.3348  1.0310  1.5612
  228MOL   H13736911   2.898   1.528   1.227  1.9379  0.0559 -0.6461
  228MOL   C13836912   3.154   1.449   1.211  0.2429 -0.0254 -0.1960
  228MOL   C13936913   3.205   1.386   1.347 -0.1449  0.0136  0.6057
  228MOL   N14036914   3.261   1.262   1.313 -0.3031  0.1539  0.1361
  228MOL   H14136915   3.099   1.383   1.144 -1.4244 -0.2027  1.3015
  228MOL   H14236916   3.247   1.465   1.156 -0.1061  1.9473 -0.2759
  228MOL   H14336917   3.120   1.374   1.415  1.5239  0.9754  2.9055
  228MOL   H14436918   3.186   1.195   1.306 -0.4181 -0.0156  2.5317
  228MOL   H14536919   3.311   1.225   1.393  0.3025 -0.7037 -0.6255
  228MOL   C14636920   3.313   1.465   1.416 -0.5013 -0.6815  0.2924
  228MOL   C14736921   3.356   1.413   1.557 -0.0772 -0.6062  0.4085
  228MOL   N14836922   3.489   1.463   1.586  1.0622  0.1136 -0.0677
  228MOL   H14936923   3.396   1.464   1.346 -1.5425  0.0348 -0.9685
  228MOL   H15036924   3.287   1.570   1.426 -0.4271 -0.4552 -1.7181
  228MOL   H15136925   3.356   1.305   1.543  3.0212 -0.5087 -0.5821
  228MOL   H15236926   3.504   1.436   1.682  0.2974  0.0104  0.0257
  228MOL   H15336927   3.532   1.388   1.534  1.3348 -0.2066  0.6233
  228MOL   C15436928   3.265   1.473   1.669  0.1456 -0.5503  0.1031
  228MOL   C15536929   3.132   1.403   1.691 -0.1775  0.4355 -0.3057
  228MOL   N15636930   3.050   1.465   1.791  0.5469 -0.2988 -0.4644
  228MOL   H15736931   3.325   1.472   1.760  1.2850 -0.2984 -0.6370
  228MOL   H15836932   3.241   1.576   1.644  2.0784  0.3551  1.8795
  228MOL   H15936933   3.163   1.300   1.712  2.4935  0.6401 -2.9761
  228MOL   H16036934   2.982   1.519   1.739  0.9491 -0.9924 -1.7164
  228MOL   H16136935   2.994   1.401   1.846  0.7888 -0.1444 -0.0324
  228MOL   H16236936   3.084   1.405   1.594  0.2281 -1.7851 -0.5923
  229MOL     C136937   4.433   0.698   6.714 -0.0883  0.3371  0.0773
  229MOL     C236938   4.522   0.594   6.782  0.0649 -0.1629  0.2636
  229MOL     N336939   4.636   0.667   6.843 -0.8049  0.4754  0.2975
  229MOL     H436940   4.487   0.747   6.633 -3.5081 -0.8437 -3.0855
  229MOL     H536941   4.370   0.765   6.773  1.0752  1.2543  0.2820
  229MOL     H636942   4.558   0.522   6.708 -0.6408  1.1222 -1.3603
  229MOL     H736943   4.702   0.599   6.878  0.9234  2.0052  0.1241
  229MOL     H836944   4.700   0.701   6.773  0.4559 -0.7024  0.8572
  229MOL     H936945   4.363   0.645   6.649  1.7831  0.2128 -1.8661
  229MOL    C1036946   4.447   0.514   6.895  1.2051 -0.0252  0.3814
  229MOL    C1136947   4.428   0.364   6.852 -0.1113 -0.0982 -0.5858
  229MOL    N1236948   4.384   0.290   6.968  0.4289  0.2796 -0.0610
  229MOL    H1336949   4.513   0.509   6.982 -2.4715 -2.0648  3.1854
  229MOL    H1436950   4.349   0.556   6.918  0.5264 -1.5602  0.3396
  229MOL    H1536951   4.524   0.316   6.833  0.0096 -0.9564  2.0553
  229MOL    H1636952   4.348   0.197   6.952 -0.7090  0.8197 -0.7984
  229MOL    H1736953   4.468   0.279   7.022 -0.6327 -0.8190  1.4021
  229MOL    C1836954   4.333   0.331   6.731  0.1854  0.1196  0.6335
  229MOL    C1936955   4.405   0.224   6.637  0.2247 -0.1388 -0.0987
  229MOL    N2036956   4.322   0.185   6.529 -0.1185  0.3177  1.2725
  229MOL    H2136957   4.246   0.279   6.773  0.8478 -1.2773  0.3182
  229MOL    H2236958   4.305   0.419   6.673 -1.8257 -0.6373  0.3981
  229MOL    H2336959   4.410   0.142   6.709 -2.5115  0.2089  0.5523
  229MOL    H2436960   4.233   0.146   6.558  1.4087 -4.8737 -0.5303
  229MOL    H2536961   4.310   0.252   6.455  0.3020 -0.5492  0.4085
  229MOL    C2636962   4.535   0.273   6.573 -0.6410  0.2675  0.4551
  229MOL    C2736963   4.615   0.170   6.496 -0.8682  0.7176  0.1547
  229MOL    N2836964   4.719   0.254   6.425  0.2180  0.7395  0.2712
  229MOL    H2936965   4.515   0.352   6.501  1.0762  1.2921  1.0562
  229MOL    H3036966   4.603   0.321   6.643  3.9034 -0.2912 -3.2941
  229MOL    H3136967   4.550   0.126   6.419  1.1860 -0.5352 -0.9125
  229MOL    H3236968   4.796   0.294   6.477  0.6739  0.9284 -0.5414
  229MOL    H3336969   4.672   0.325   6.371  0.5808 -0.0078 -1.0536
  229MOL    C3436970   4.687   0.073   6.591 -0.2453  0.0618  0.3715
  229MOL    C3536971   4.761   7.232   6.530 -0.1884 -0.3701  1.7165
  229MOL    N3636972   4.848   7.173   6.626 -0.2581 -0.5525 -0.0106
  229MOL    H3736973   4.759   0.125   6.654 -0.2293 -3.1510  3.1946
  229MOL    H3836974   4.619   0.033   6.666 -0.5055  0.6270  0.4361
  229MOL    H3936975   4.830   7.258   6.449  1.2168 -1.8912  2.3950
  229MOL    H4036976   4.799   7.178   6.713 -0.6082 -1.1893 -0.1658
  229MOL    H4136977   4.881   7.078   6.612 -1.0164 -0.5517 -1.9570
  229MOL    C4236978   4.664   7.123   6.481  0.1054 -0.6747  0.2066
  229MOL    C4336979   4.612   7.129   6.333 -0.3058 -0.4743  0.3244
  229MOL    N4436980   4.716   7.086   6.243 -0.3636  0.1148 -0.0873
  229MOL    H4536981   4.719   7.030   6.495  0.7315 -0.2942  0.2713
  229MOL    H4636982   4.584   7.109   6.554  0.8823 -0.5030  1.0938
  229MOL    H4736983   4.589   7.234   6.313  1.7995 -0.0435 -0.0236
  229MOL    H4836984   4.796   7.146   6.236  0.6172 -0.8797  2.2450
  229MOL    H4936985   4.758   7.003   6.283 -1.2631 -0.1952  0.2290
  229MOL    C5036986   4.489   7.048   6.311  0.4192  0.2259 -0.0123
  229MOL    C5136987   4.353   7.095   6.371 -0.1667 -0.4781  0.0167
  229MOL    N5236988   4.308   7.216   6.307  0.1895 -0.0559  0.3426
  229MOL    H5336989   4.472   7.059   6.203 -1.0721  1.3934  0.3193
  229MOL    H5436990   4.510   6.949   6.350  3.1604  0.8529  0.1983
  229MOL    H5536991   4.361   7.125   6.476  0.0574 -1.2619  0.2292
  229MOL    H5636992   4.318   7.225   6.207 -0.5544 -1.1710  0.1575
  229MOL    H5736993   4.355   0.021   6.345 -0.5995  0.9597 -0.7937
  229MOL    C5836994   4.234   6.991   6.370  0.5033  0.4815  0.4944
  229MOL    C5936995   4.218   6.919   6.509 -0.1029  0.2114  0.0425
  229MOL    N6036996   4.079   6.898   6.520 -0.0594  0.0646  0.7207
  229MOL    H6136997   4.146   7.052   6.348  0.1045 -0.5834 -0.9089
  229MOL    H6236998   4.233   6.929   6.280 -0.2054 -1.5135  1.8473
  229MOL    H6336999   4.242   6.995   6.584  1.7854  0.9484 -1.2805
  229MOL    H6437000   4.046   6.886   6.615 -0.2607  2.6401  0.9991
  229MOL    H6537001   4.037   6.986   6.494 -0.1378  0.3720  1.8551
  229MOL    C6637002   4.294   6.783   6.518  0.1281 -0.4708 -0.7206
  229MOL    C6737003   4.331   6.739   6.669  0.2487 -0.6324  0.3470
  229MOL    N6837004   4.394   6.608   6.661  0.0640  0.1937  0.6513
  229MOL    H6937005   4.238   6.711   6.459 -0.7042 -0.7762  0.4233
  229MOL    H7037006   4.388   6.805   6.468 -0.0530 -0.1392 -0.9118
  229MOL    H7137007   4.232   6.731   6.715 -0.8151  0.7517 -1.6328
  229MOL    H7237008   4.325   6.535   6.661 -0.0535  0.2358 -2.9087
  229MOL    H7337009   4.440   6.597   6.750 -2.7882 -0.7614  2.1065
  229MOL    C7437010   4.435   6.844   6.730 -0.3160 -0.1582 -0.0319
  229MOL    C7537011   4.476   6.819   6.878 -0.2795 -0.6256 -0.2325
  229MOL    N7637012   4.583   6.908   6.913  0.1624  0.0487 -0.0404
  229MOL    H7737013   4.521   6.848   6.664 -0.3994  0.1015 -0.1224
  229MOL    H7837014   4.402   6.947   6.722  0.7021  0.2608  1.1167
  229MOL    H7937015   4.516   6.719   6.887 -3.2458 -1.7800  0.8136
  229MOL    H8037016   4.647   6.876   6.985  0.0777  1.4177  0.6592
  229MOL    H8137017   4.643   6.927   6.834  1.6222 -0.8485  0.8234
  229MOL    C8237018   4.362   6.843   6.978  0.1276  0.6802  0.6618
  229MOL    C8337019   4.398   6.831   7.127 -0.6859  0.0176 -0.0876
  229MOL    N8437020   4.300   6.891   7.208 -0.7429 -0.0803  0.5417
  229MOL    H8537021   4.316   6.938   6.952 -2.4614 -0.4182  1.0540
  229MOL    H8637022   4.281   6.771   6.968 -0.6829  1.5494  0.8503
  229MOL    H8737023   4.485   6.898   7.132 -0.7702  0.2157 -1.2254
  229MOL    H8837024   4.244   6.963   7.163 -0.1858 -1.4629 -2.5381
  229MOL    H8937025   4.235   6.820   7.239 -0.3856 -1.1941 -1.1528
  229MOL    C9037026   4.440   6.679   7.171 -0.3198  0.2534 -0.1234
  229MOL    C9137027   4.514   6.675   0.034 -0.1793 -0.6335 -0.2239
  229MOL    N9237028   4.409   6.697   0.145  0.5407 -0.1694 -0.2062
  229MOL    H9337029   4.366   6.598   7.168  0.9333 -0.8901 -0.8568
  229MOL    H9437030   4.510   6.658   7.090  1.8466  0.0325  1.7627
  229MOL    H9537031   4.580   6.761   0.041 -2.7987  1.4173 -0.0542
  229MOL    H9637032   4.378   6.789   0.115  1.6487  0.5111  0.6957
  229MOL    H9737033   4.328   6.640   0.130 -0.3979  0.7357  1.3415
  229MOL    C9837034   4.573   6.537   0.060  0.6173  0.2930 -0.4780
  229MOL    C9937035   4.685   6.503   7.243  0.2531  0.3088  0.2929
  229MOL   N10037036   4.804   6.568   0.033 -0.0275  0.7371  0.0989
  229MOL   H10137037   4.595   6.527   0.166  1.7433  0.5387 -0.6829
  229MOL   H10237038   4.494   6.464   0.041  0.7812 -0.4978  1.6677
  229MOL   H10337039   4.673   6.548   7.145  0.7422 -0.7644 -0.2596
  229MOL   H10437040   4.801   6.669   0.031  1.4186  0.9008  3.4690
  229MOL   H10537041   4.794   6.548   0.131 -0.1982 -2.5933 -0.5102
  229MOL   C10637042   4.712   6.351   7.239 -0.0151  0.2683 -0.4793
  229MOL   C10737043   4.676   6.292   7.101 -0.2236  0.0859  0.2029
  229MOL   N10837044   4.778   6.190   7.076 -0.2627  0.3089  0.3372
  229MOL   H10937045   4.817   6.340   7.263 -0.3161 -3.4854 -0.5470
  229MOL   H11037046   4.672   6.299   0.051 -0.4154 -0.5541 -1.1435
  229MOL   H11137047   4.687   6.360   7.017  2.1186 -0.8680 -0.3203
  229MOL   H11237048   4.867   6.237   7.076  0.4308 -0.9748  0.2306
  229MOL   H11337049   4.782   6.131   7.158 -1.5096  2.3010  1.8385
  229MOL   C11437050   4.539   6.219   7.118  0.2651 -0.0449  0.0894
  229MOL   C11537051   4.476   6.139   7.003 -0.0347 -0.0278  0.0086
  229MOL   N11637052   4.350   6.090   7.057  0.3192  0.0472  0.1421
  229MOL   H11737053   4.541   6.154   7.206  3.5951  3.0335  2.4174
  229MOL   H11837054   4.469   6.297   7.149 -0.9404 -0.4015 -1.6242
  229MOL   H11937055   4.532   6.048   6.980 -0.2869 -0.2304  0.1834
  229MOL   H12037056   4.367   6.038   7.142 -1.0568  2.0746  1.7120
  229MOL   H12137057   4.329   6.012   6.997 -0.9537  1.2795 -1.0576
  229MOL   C12237058   4.456   6.235   6.879 -0.6188  0.3442  1.2314
  229MOL   C12337059   4.422   6.180   6.743  0.2852  0.3151  0.7983
  229MOL   N12437060   4.368   6.271   6.647  0.3679  0.4349 -0.3240
  229MOL   H12537061   4.387   6.309   6.920 -1.6108 -0.1047  0.3743
  229MOL   H12637062   4.541   6.303   6.868  0.5501 -1.1396  0.8908
  229MOL   H12737063   4.342   6.108   6.760  0.2522  0.5013  1.4284
  229MOL   H12837064   4.276   6.301   6.676  0.2790 -0.9532  0.8486
  229MOL   H12937065   4.427   6.352   6.633  1.3916  0.0084  1.3580
  229MOL   C13037066   4.526   6.088   6.680 -0.3729  0.3479 -0.2199
  229MOL   C13137067   4.670   6.142   6.656 -0.2778  0.5835 -0.1742
  229MOL   N13237068   4.759   6.105   6.763 -0.0325 -0.9807 -0.0488
  229MOL   H13337069   4.522   5.996   6.740  0.1153  0.4481 -0.0349
  229MOL   H13437070   4.475   6.048   6.592  0.1650  1.0209 -0.8387
  229MOL   H13537071   4.657   6.250   6.657 -1.5675  0.4390 -1.1080
  229MOL   H13637072   4.726   6.136   6.853  2.4047 -1.9660  1.2390
  229MOL   H13737073   4.853   6.143   6.769 -0.3579 -0.5858  3.2663
  229MOL   C13837074   4.733   6.074   6.527  0.6559 -0.1602 -0.5103
  229MOL   C13937075   4.687   6.131   6.391 -0.2360  0.3009  0.0025
  229MOL   N14037076   4.562   6.084   6.346  0.5229 -0.2801  0.0038
  229MOL   H14137077   4.842   6.073   6.532  0.6186 -0.4291  0.4403
  229MOL   H14237078   4.704   5.969   6.531 -3.2999  0.8580  0.8648
  229MOL   H14337079   4.750   6.099   6.307  1.1319  0.2947  1.0193
  229MOL   H14437080   4.519   6.168   6.307 -1.3581  0.0036  2.5557
  229MOL   H14537081   4.508   6.070   6.430  0.6663  1.0250  0.3187
  229MOL   C14637082   4.691   6.286   6.378 -0.1677  0.8960 -0.4066
  229MOL   C14737083   4.824   6.347   6.424 -0.1370 -0.0209  0.2709
  229MOL   N14837084   4.917   6.297   6.321 -0.2412  0.0315  0.3653
  229MOL   H14937085   4.656   6.303   6.276  1.9036  0.3855 -1.2224
  229MOL   H15037086   4.616   6.316   6.451  0.6806  0.3227  0.7043
  229MOL   H15137087   4.855   6.318   6.524  1.7232 -2.0881 -0.8511
  229MOL   H15237088   4.947   6.205   6.350 -1.2705 -0.5516 -0.3538
  229MOL   H15337089   4.871   6.283   6.232 -1.5808  2.0762  0.6899
  229MOL   C15437090   4.821   6.502   6.420 -0.2081 -0.5975 -0.3235
  229MOL   C15537091   4.709   6.558   6.511  0.1665  0.1232  0.5037
  229MOL   N15637092   4.728   6.701   6.518  0.0341  0.0389  0.1731
  229MOL   H15737093   4.919   6.540   6.450  0.1212 -1.2131 -0.6193
  229MOL   H15837094   4.807   6.527   6.315  1.0548 -2.4223 -0.9507
  229MOL   H15937095   4.717   6.526   6.615 -0.1386 -0.2559  0.4120
  229MOL   H16037096   4.709   6.725   6.421  1.2837 -1.7263 -0.5432
  229MOL   H16137097   4.649   6.734   6.570 -0.9513 -1.8623 -0.0787
  229MOL   H16237098   4.609   6.541   6.469  0.8910 -4.5134  0.3285
  230MOL     C137099   6.859   0.731   0.180  0.1223 -0.1482 -0.8745
  230MOL     C237100   6.892   0.596   0.233 -0.2600  0.0188 -0.9595
  230MOL     N337101   7.034   0.573   0.224 -0.0133  0.4839 -0.0253
  230MOL     H437102   6.919   0.805   0.232 -3.6248  0.4626  2.7966
  230MOL     H537103   6.753   0.758   0.182  0.5337  1.4320  1.0277
  230MOL     H637104   6.848   0.519   0.170 -0.1684 -0.2260 -0.7229
  230MOL     H737105   7.095   0.646   0.257 -0.4259  0.4384  0.8545
  230MOL     H837106   7.053   0.568   0.125 -1.4458  0.8040 -0.3339
  230MOL     H937107   6.895   0.721   0.077 -0.0841 -2.4960 -0.7525
  230MOL    C1037108   6.847   0.574   0.384  0.4025  0.6600 -0.2227
  230MOL    C1137109   6.733   0.472   0.400  0.3509  0.1824  0.0062
  230MOL    N1237110   6.710   0.449   0.538  0.3421 -0.2496  0.5213
  230MOL    H1337111   6.927   0.528   0.442  0.8248  2.0807  0.3461
  230MOL    H1437112   6.833   0.669   0.436  1.0834 -0.1060  1.3829
  230MOL    H1537113   6.766   0.380   0.352 -1.4479 -0.9476  0.8597
  230MOL    H1637114   6.656   0.367   0.560  0.7984 -0.2489  1.6896
  230MOL    H1737115   6.795   0.436   0.590  0.2851 -1.9022  0.2262
  230MOL    C1837116   6.596   0.522   0.331 -0.0006  0.6269 -0.0298
  230MOL    C1937117   6.484   0.409   0.329  0.3183  0.2547  0.5626
  230MOL    N2037118   6.350   0.468   0.336  0.0699  0.0329  0.6272
  230MOL    H2137119   6.557   0.600   0.397  0.5891  0.3476  0.6600
  230MOL    H2237120   6.605   0.573   0.235  1.8777 -0.2864 -0.3698
  230MOL    H2337121   6.501   0.362   0.426 -3.2646  1.3181  1.7803
  230MOL    H2437122   6.285   0.408   0.384 -0.8933  0.4816 -0.1163
  230MOL    H2537123   6.376   0.534   0.408 -3.4829  1.3193  0.7853
  230MOL    C2637124   6.507   0.307   0.217  0.2469 -0.5473 -0.4070
  230MOL    C2737125   6.441   0.166   0.229  0.3612  0.4161 -0.4325
  230MOL    N2837126   6.446   0.102   0.102 -0.1619 -0.3083 -0.1696
  230MOL    H2937127   6.485   0.353   0.120 -0.3115 -0.8040 -0.3998
  230MOL    H3037128   6.614   0.287   0.208  0.5115 -0.0499  1.5426
  230MOL    H3137129   6.338   0.191   0.257  1.4128  1.6668  2.5087
  230MOL    H3237130   6.362   0.113   0.048 -1.9897 -3.0185  1.9288
  230MOL    H3337131   6.452   0.005   0.130 -2.7305 -0.3683  0.2424
  230MOL    C3437132   6.518   0.094   0.339 -0.6032  0.0816 -0.0231
  230MOL    C3537133   6.472   7.228   0.376 -0.0349 -0.3073 -0.7473
  230MOL    N3637134   6.567   7.189   0.479  0.2240  0.2449 -0.3798
  230MOL    H3737135   6.622   0.088   0.307 -0.2228  0.5545  1.1048
  230MOL    H3837136   6.521   0.157   0.428 -0.0052  0.1666 -0.1037
  230MOL    H3937137   6.491   7.169   0.287  0.3884 -1.7077  0.2572
  230MOL    H4037138   6.527   7.125   0.547 -0.0473  0.8964  0.0755
  230MOL    H4137139   6.661   7.165   0.452  1.8953  1.9581  3.4610
  230MOL    C4237140   6.323   7.221   0.421 -0.1133 -0.0460 -0.1129
  230MOL    C4337141   6.276   7.072   0.452  0.3397  0.5125 -0.0240
  230MOL    N4437142   6.167   7.076   0.540 -0.2187 -0.1288  0.2582
  230MOL    H4537143   6.299   0.009   0.506 -0.9267 -3.6994  2.5205
  230MOL    H4637144   6.265   7.259   0.336  0.5108  1.8519  0.2770
  230MOL    H4737145   6.354   7.016   0.504 -0.1490  0.1913  0.3707
  230MOL    H4837146   6.090   7.133   0.508 -0.0024 -0.4798 -0.9352
  230MOL    H4937147   6.130   6.990   0.578  0.7368 -0.8083 -0.3120
  230MOL    C5037148   6.220   7.001   0.329 -0.2921 -0.0366 -0.6467
  230MOL    C5137149   6.166   6.858   0.334 -0.6228  0.0977 -0.5680
  230MOL    N5237150   6.069   6.830   0.233  0.6955  0.2370 -0.6202
  230MOL    H5337151   6.148   7.069   0.284  0.9095  0.2830 -2.1263
  230MOL    H5437152   6.307   6.999   0.263 -0.0196 -1.0174 -0.2563
  230MOL    H5537153   6.122   6.847   0.433 -0.2413  1.1353 -0.2756
  230MOL    H5637154   6.003   6.907   0.234 -0.5060 -0.7932  0.0882
  230MOL    H5737155   6.114   6.828   0.142  0.9312 -1.2992 -0.4731
  230MOL    C5837156   6.275   6.744   0.326 -0.1801  0.0992  0.3148
  230MOL    C5937157   6.348   6.703   0.462  0.2999  1.2697  0.0992
  230MOL    N6037158   6.288   6.571   0.493 -0.3281 -0.8355 -0.8487
  230MOL    H6137159   6.230   6.655   0.284  3.9268 -2.2592  0.6624
  230MOL    H6237160   6.354   6.767   0.255  0.1295  3.9715  1.7427
  230MOL    H6337161   6.334   6.773   0.544  0.4532  0.9696  0.3845
  230MOL    H6437162   6.190   6.592   0.505  0.0003 -0.3452  1.1472
  230MOL    H6537163   6.317   6.544   0.586 -0.5845 -0.3359 -0.6217
  230MOL    C6637164   6.501   6.683   0.454  0.0390 -0.2954  0.0600
  230MOL    C6737165   6.576   6.821   0.464 -0.5125  0.1130  0.2646
  230MOL    N6837166   6.588   6.859   0.603  0.0285  0.8641 -0.1997
  230MOL    H6937167   6.537   6.623   0.538  2.3507  1.5847  0.4454
  230MOL    H7037168   6.527   6.641   0.357  0.1260 -2.9425  1.1940
  230MOL    H7137169   6.525   6.901   0.410  0.1046 -0.4789 -1.2194
  230MOL    H7237170   6.510   6.921   0.623  0.2797  0.7021  1.3262
  230MOL    H7337171   6.571   6.773   0.653 -0.1132  1.0067  0.0013
  230MOL    C7437172   6.716   6.813   0.399  0.3897  0.1758  0.3990
  230MOL    C7537173   6.726   6.902   0.265  0.0996  0.8080  0.0628
  230MOL    N7637174   6.872   6.915   0.241 -0.2074 -0.0357 -0.1268
  230MOL    H7737175   6.791   6.852   0.468 -1.3964  3.0777  0.7802
  230MOL    H7837176   6.733   6.710   0.369  2.0517  0.2327  1.0889
  230MOL    H7937177   6.682   6.998   0.292 -0.3067  0.5738  0.2406
  230MOL    H8037178   6.920   6.966   0.314  0.3181 -0.9574  0.1880
  230MOL    H8137179   6.922   6.827   0.241  0.2470  0.2074 -2.3527
  230MOL    C8237180   6.649   6.835   0.144 -0.5063 -0.4708  0.2893
  230MOL    C8337181   6.585   6.947   0.053 -0.8774 -0.7428  0.0728
  230MOL    N8437182   6.685   7.023   7.259  0.0119 -0.3926 -0.0688
  230MOL    H8537183   6.715   6.766   0.093  1.8367  1.7892  0.1598
  230MOL    H8637184   6.569   6.766   0.172 -0.8113 -0.9020 -1.6010
  230MOL    H8737185   6.516   7.015   0.102 -2.5645 -1.8121 -0.7708
  230MOL    H8837186   6.751   7.058   0.052 -1.5864  0.1388  1.2065
  230MOL    H8937187   6.743   6.963   7.202  0.7974 -0.6554  0.9829
  230MOL    C9037188   6.507   6.868   7.219  0.1776  0.7940  0.4120
  230MOL    C9137189   6.400   6.950   7.147 -0.4221  0.4233  0.3458
  230MOL    N9237190   6.367   6.877   7.030  0.3797  0.8115 -0.1447
  230MOL    H9337191   6.581   6.838   7.145  1.4431  1.4138  1.4047
  230MOL    H9437192   6.475   6.771   7.257 -1.4095  0.4142 -1.8342
  230MOL    H9537193   6.441   7.049   7.129 -3.2807  1.6326  0.1090
  230MOL    H9637194   6.279   6.914   6.995  0.5829  3.0646  1.6001
  230MOL    H9737195   6.357   6.778   7.047  1.5847  0.6263 -0.4594
  230MOL    C9837196   6.264   6.954   7.226 -0.5910 -0.3731  0.6197
  230MOL    C9937197   6.174   7.067   7.174  0.3108  0.1959  0.1871
  230MOL   N10037198   6.051   7.045   7.249  0.2071 -0.2422 -0.0764
  230MOL   H10137199   6.207   6.861   7.214 -0.5962 -0.5171  1.7351
  230MOL   H10237200   6.296   6.971   0.053 -0.7819 -2.5068  1.0623
  230MOL   H10337201   6.164   7.059   7.066  2.0195  1.1963 -0.0642
  230MOL   H10437202   6.007   6.962   7.210 -1.1311 -0.6710  2.2206
  230MOL   H10537203   5.982   7.117   7.229  0.4157 -0.4953 -1.8064
  230MOL   C10637204   6.227   7.213   7.210  0.0450  0.7223  0.3989
  230MOL   C10737205   6.144   0.051   7.137 -0.3042 -0.5818  0.6665
  230MOL   N10837206   6.210   0.173   7.170  0.0543 -0.5508 -0.4733
  230MOL   H10937207   6.220   7.227   0.042 -0.2933  2.4621  0.1753
  230MOL   H11037208   6.330   7.229   7.179 -0.4599  0.2458 -1.5818
  230MOL   H11137209   6.041   0.046   7.172  0.2204 -0.8386  2.2485
  230MOL   H11237210   6.154   0.247   7.131  0.0122  0.8123  2.1019
  230MOL   H11337211   6.305   0.180   7.138  0.1774 -2.7602 -0.7169
  230MOL   C11437212   6.151   0.040   6.982 -0.4004  0.2918  0.2629
  230MOL   C11537213   6.025   0.099   6.912 -0.3473 -0.1097  0.2474
  230MOL   N11637214   6.047   0.104   6.769 -0.7944  0.5632 -0.0582
  230MOL   H11737215   6.242   0.089   6.948 -1.3467  2.1978  0.4351
  230MOL   H11837216   6.163   7.216   6.939  1.0608  0.6384 -0.1540
  230MOL   H11937217   6.003   0.197   6.955  0.7551  0.2834 -0.0676
  230MOL   H12037218   6.085   0.192   6.735 -0.7513  0.8607  0.7448
  230MOL   H12137219   5.965   0.104   6.710  0.0615 -2.9184 -1.3919
  230MOL   C12237220   5.891   0.017   6.941  0.4237  0.7174 -0.4885
  230MOL   C12337221   5.761   0.107   6.938  0.2262 -0.1834 -0.5349
  230MOL   N12437222   5.755   0.147   6.796 -0.7949 -0.3289 -0.4176
  230MOL   H12537223   5.882   7.218   6.862  0.9455  1.2679 -1.0771
  230MOL   H12637224   5.908   7.235   7.032  0.7485  0.3955 -0.7529
  230MOL   H12737225   5.759   0.197   6.999  1.3227 -0.6831  0.2515
  230MOL   H12837226   5.663   0.189   6.792 -1.0381 -0.9171 -1.0218
  230MOL   H12937227   5.820   0.221   6.775 -1.9269  0.7690 -0.1543
  230MOL   C13037228   5.632   0.019   6.971 -0.5686  0.1844  0.3062
  230MOL   C13137229   5.582   0.020   7.116 -0.0767 -0.2804 -0.9059
  230MOL   N13237230   5.451   7.233   7.116  0.1649  0.0498  0.1895
  230MOL   H13337231   5.553   0.062   6.910  1.8380  3.8341 -0.3971
  230MOL   H13437232   5.652   7.192   6.939  1.7041 -0.3653  3.2299
  230MOL   H13537233   5.564   0.126   7.132  0.6643 -0.1546 -0.8690
  230MOL   H13637234   5.433   7.165   7.043 -1.1754  0.0165  0.5548
  230MOL   H13737235   5.377   0.022   7.098  1.1648  0.2612 -3.6778
  230MOL   C13837236   5.679   7.240   7.228 -0.0801 -0.2104  0.0642
  230MOL   C13937237   5.644   7.260   0.107  0.3563 -0.1485 -0.5056
  230MOL   N14037238   5.520   7.196   0.130 -0.1473  0.1995  0.0624
  230MOL   H14137239   5.685   7.133   7.207 -0.8903 -0.0410 -1.0659
  230MOL   H14237240   5.772   0.020   7.217 -0.8137  1.7451  3.0253
  230MOL   H14337241   5.638   0.091   0.130  0.6740 -0.1225 -0.5500
  230MOL   H14437242   5.460   7.229   0.056 -1.4999  1.0646  1.5132
  230MOL   H14537243   5.535   7.099   0.105  0.8402  0.9911 -2.5818
  230MOL   C14637244   5.750   7.201   0.195 -0.8886 -0.2376  0.3074
  230MOL   C14737245   5.854   0.015   0.262  0.2421  0.0906  0.5823
  230MOL   N14837246   5.916   7.222   0.367  0.7476 -0.9311 -0.0430
  230MOL   H14937247   5.699   7.145   0.274 -0.7528 -2.2821 -1.0094
  230MOL   H15037248   5.807   7.123   0.142  0.3944 -0.3199  1.7613
  230MOL   H15137249   5.799   0.098   0.305  0.8210 -0.8699  3.2865
  230MOL   H15237250   5.856   7.175   0.433 -0.3117  0.5847  0.0828
  230MOL   H15337251   5.975   0.005   0.424 -2.9551  0.0567  2.9543
  230MOL   C15437252   5.951   0.091   0.158  0.9050  0.0676  0.0227
  230MOL   C15537253   6.028   0.200   0.240 -0.2290 -0.5741  0.6099
  230MOL   N15637254   6.099   0.292   0.149 -0.5714  0.7947 -0.0735
  230MOL   H15737255   6.022   0.020   0.115 -0.5531 -0.4670 -1.5464
  230MOL   H15837256   5.894   0.134   0.076 -2.0237  0.0131  1.9436
  230MOL   H15937257   6.084   0.150   0.319  1.3093 -0.1176 -0.1690
  230MOL   H16037258   6.178   0.326   0.202 -0.7367 -2.7881  2.7264
  230MOL   H16137259   6.143   0.232   0.081 -0.0852  1.5191 -0.4062
  230MOL   H16237260   5.956   0.254   0.302  1.2311  1.2837  0.7618
  231MOL     C137261   0.619   3.516   0.991 -0.2171  0.6062 -0.0338
  231MOL     C237262   0.588   3.526   1.145 -0.1407  0.0442 -1.0875
  231MOL     N337263   0.700   3.473   1.229  0.1048 -0.3409 -0.7164
  231MOL     H437264   0.532   3.534   0.928 -1.7995 -0.6866  1.7289
  231MOL     H537265   0.661   3.419   0.964 -0.2960  0.1013  1.6102
  231MOL     H637266   0.504   3.457   1.147 -0.2074  0.1284  2.0238
  231MOL     H737267   0.686   3.479   1.329  1.0532  0.6559 -0.6381
  231MOL     H837268   0.704   3.375   1.207  3.8792  0.1541 -2.5649
  231MOL     H937269   0.692   3.591   0.962 -0.4194  0.5356 -0.7262
  231MOL    C1037270   0.557   3.671   1.195  0.2535  0.2741 -0.2364
  231MOL    C1137271   0.415   3.725   1.159  0.8427  0.4885 -0.0419
  231MOL    N1237272   0.316   3.640   1.229 -0.2563 -0.0141 -0.0398
  231MOL    H1337273   0.572   3.672   1.303  1.6693  0.0903 -0.4318
  231MOL    H1437274   0.641   3.725   1.151  0.1513  1.2544  0.7399
  231MOL    H1537275   0.399   3.702   1.053  1.4834  2.3255 -0.5480
  231MOL    H1637276   0.334   3.543   1.210  0.0992 -0.0031  0.2365
  231MOL    H1737277   0.232   3.661   1.177  1.0627 -0.3488 -2.3232
  231MOL    C1837278   0.388   3.878   1.194  0.1606  0.1890  0.2238
  231MOL    C1937279   0.393   3.967   1.067  0.2319 -0.3459  0.2853
  231MOL    N2037280   0.324   4.091   1.100  0.3200 -0.1186 -0.7125
  231MOL    H2137281   0.300   3.885   1.257 -0.5421  0.3873 -0.7788
  231MOL    H2237282   0.468   3.918   1.257 -1.1549  1.9177  0.8321
  231MOL    H2337283   0.334   3.915   0.992  2.9399  0.0584 -2.2570
  231MOL    H2437284   0.234   4.080   1.144 -0.1619 -3.7000 -2.3980
  231MOL    H2537285   0.298   4.132   1.011 -0.9256  2.0908  0.6362
  231MOL    C2637286   0.530   4.002   1.011 -0.5139  0.6835 -0.1222
  231MOL    C2737287   0.573   3.907   0.904 -0.1322 -0.1930  0.1610
  231MOL    N2837288   0.506   3.916   0.779 -0.3203 -0.2342  0.0299
  231MOL    H2937289   0.550   4.104   0.977  0.1504  0.3213 -0.8153
  231MOL    H3037290   0.605   3.996   1.090 -1.1659 -1.2279  0.3838
  231MOL    H3137291   0.551   3.806   0.939 -0.7372 -0.5312 -1.1658
  231MOL    H3237292   0.532   4.003   0.736 -1.6959 -0.2982 -0.9502
  231MOL    H3337293   0.407   3.923   0.796 -0.2846 -0.0017  0.1336
  231MOL    C3437294   0.723   3.920   0.873  0.1109  1.2177 -0.4929
  231MOL    C3537295   0.780   4.056   0.828 -0.4109 -0.5016  0.2361
  231MOL    N3637296   0.928   4.056   0.835 -0.4927 -0.0598 -0.3717
  231MOL    H3737297   0.777   3.876   0.957  0.7484 -0.3423 -1.6902
  231MOL    H3837298   0.741   3.838   0.802 -3.0487 -0.0432  0.0913
  231MOL    H3937299   0.739   4.128   0.898 -3.7604 -0.8599 -1.2594
  231MOL    H4037300   0.968   3.973   0.793  1.1676  2.2070 -3.4873
  231MOL    H4137301   0.950   4.052   0.934 -1.6992 -0.7388 -0.1233
  231MOL    C4237302   0.739   4.098   0.691 -0.4924 -0.0609 -0.2548
  231MOL    C4337303   0.662   4.231   0.666  0.0466  0.3961 -0.2971
  231MOL    N4437304   0.518   4.226   0.699 -0.1828 -0.2823  1.0235
  231MOL    H4537305   0.824   4.110   0.624 -0.2329 -1.9640 -0.3018
  231MOL    H4637306   0.678   4.025   0.637 -1.0563  0.3189 -0.1311
  231MOL    H4737307   0.677   4.241   0.559  1.4556 -0.7766 -0.2257
  231MOL    H4837308   0.516   4.211   0.799 -0.4071 -2.2544  0.7371
  231MOL    H4937309   0.486   4.321   0.705  1.2415  0.2612  0.4356
  231MOL    C5037310   0.732   4.358   0.716 -0.3444  0.5330 -0.1349
  231MOL    C5137311   0.857   4.407   0.641 -0.0406 -0.3537  0.2125
  231MOL    N5237312   0.810   4.493   0.538 -0.1408  0.4997 -0.1421
  231MOL    H5337313   0.659   4.438   0.703  0.6050  1.2820 -0.9275
  231MOL    H5437314   0.748   4.360   0.824  1.1009  1.8184 -0.3509
  231MOL    H5537315   0.905   4.324   0.587  0.5940  0.7122 -0.8977
  231MOL    H5637316   0.804   4.589   0.567 -1.4769  0.4123 -0.1203
  231MOL    H5737317   0.869   4.492   0.455  0.2608 -2.5521  0.0886
  231MOL    C5837318   0.959   4.490   0.732  0.0673  0.4013  0.4294
  231MOL    C5937319   1.006   4.424   0.864  0.1136  0.1460 -0.3977
  231MOL    N6037320   1.086   4.304   0.848  0.5508 -0.0261  0.0292
  231MOL    H6137321   1.037   4.524   0.664 -1.6191  0.1300 -1.6682
  231MOL    H6237322   0.907   4.583   0.755 -0.8626  0.3347 -1.3365
  231MOL    H6337323   0.921   4.403   0.929  0.5957 -3.8292 -0.9314
  231MOL    H6437324   1.100   4.268   0.941 -0.1339 -0.5778 -0.0783
  231MOL    H6537325   1.023   4.235   0.809 -0.2843  0.7865 -0.0666
  231MOL    C6637326   1.088   4.520   0.944 -0.5668 -0.0917 -0.3240
  231MOL    C6737327   1.026   4.643   1.017 -0.4853 -0.0157 -0.0396
  231MOL    N6837328   0.913   4.601   1.100  0.0347 -0.2526 -0.3739
  231MOL    H6937329   1.150   4.461   1.012 -1.8189  0.6132  1.4745
  231MOL    H7037330   1.165   4.547   0.871 -0.9224  0.3346 -0.5416
  231MOL    H7137331   0.991   4.716   0.945  1.5943  0.2180 -0.8467
  231MOL    H7237332   0.895   4.681   1.159 -1.6480  0.3312 -1.6283
  231MOL    H7337333   0.829   4.573   1.052 -0.8727  1.5413  0.1224
  231MOL    C7437334   1.137   4.703   1.104  0.2791 -0.0308 -0.2645
  231MOL    C7537335   1.242   4.789   1.027  0.1158 -0.0089  0.3150
  231MOL    N7637336   1.183   4.929   1.021  0.3370 -0.4144  0.7282
  231MOL    H7737337   1.099   4.760   1.189 -2.5196 -2.5402  0.2389
  231MOL    H7837338   1.194   4.625   1.155 -0.1103 -1.0120 -1.3119
  231MOL    H7937339   1.265   4.760   0.924 -0.5361  1.0276 -0.1349
  231MOL    H8037340   1.169   4.955   1.118 -0.4714 -2.1793  1.1071
  231MOL    H8137341   1.255   4.984   0.977 -2.0956  1.5659 -0.8843
  231MOL    C8237342   1.383   4.798   1.092 -0.9248 -0.1385  0.0257
  231MOL    C8337343   1.484   4.695   1.027 -0.2709  0.2183  0.3876
  231MOL    N8437344   1.618   4.741   1.047  0.0735  0.0077  0.3486
  231MOL    H8537345   1.425   4.898   1.084 -0.4800 -0.3459 -0.2854
  231MOL    H8637346   1.376   4.781   1.199  1.4910  1.7836  0.5406
  231MOL    H8737347   1.467   4.692   0.920 -1.9263 -2.8809  0.6947
  231MOL    H8837348   1.623   4.768   1.144 -2.1275  0.5264  0.3543
  231MOL    H8937349   1.666   4.652   1.041  0.1704  0.0310  0.7972
  231MOL    C9037350   1.466   4.552   1.080  0.2202 -0.6197  0.1942
  231MOL    C9137351   1.564   4.446   1.019  0.2860 -0.3425  0.5032
  231MOL    N9237352   1.702   4.470   1.053  0.4097  0.3875 -0.3138
  231MOL    H9337353   1.475   4.550   1.189  3.4360  1.0035  0.0124
  231MOL    H9437354   1.366   4.516   1.056 -0.8720  1.0194  2.1345
  231MOL    H9537355   1.550   4.461   0.912  1.7635 -1.3595  0.1470
  231MOL    H9637356   1.757   4.427   0.980  0.6604  1.3308 -0.6968
  231MOL    H9737357   1.734   4.411   1.128 -0.5938  1.9003  1.3556
  231MOL    C9837358   1.537   4.305   1.073  0.7972 -0.4865  0.3203
  231MOL    C9937359   1.400   4.255   1.027  0.0806 -0.1630  1.0487
  231MOL   N10037360   1.389   4.270   0.880 -0.2930 -0.6592  0.4895
  231MOL   H10137361   1.618   4.235   1.054  2.0579  1.5198 -2.0010
  231MOL   H10237362   1.529   4.314   1.181  0.0987  0.4350  0.1952
  231MOL   H10337363   1.325   4.307   1.086 -0.0586  3.0274 -1.8091
  231MOL   H10437364   1.441   4.351   0.852 -1.7278 -0.1010 -0.6119
  231MOL   H10537365   1.294   4.280   0.846 -0.7900 -0.5984  1.8446
  231MOL   C10637366   1.386   4.101   1.059  0.3250 -0.6704 -0.0031
  231MOL   C10737367   1.372   4.061   1.212  0.4595  0.1715  0.0835
  231MOL   N10837368   1.286   3.942   1.210 -0.1379  0.4549  0.0015
  231MOL   H10937369   1.302   4.071   0.997  1.7150 -0.8199 -1.8823
  231MOL   H11037370   1.463   4.037   1.017 -0.6106  0.4611 -3.6260
  231MOL   H11137371   1.322   4.144   1.262 -2.7666 -1.1380 -0.8357
  231MOL   H11237372   1.195   3.973   1.241 -0.1520  0.3243  0.0879
  231MOL   H11337373   1.312   3.874   1.280  1.3616  1.0267  0.0102
  231MOL   C11437374   1.503   4.025   1.282 -0.2343 -0.5308 -0.1297
  231MOL   C11537375   1.482   3.979   1.433  0.7495 -0.3306 -0.0555
  231MOL   N11637376   1.597   3.910   1.481 -0.1446  0.1714 -0.2905
  231MOL   H11737377   1.553   3.957   1.213 -0.6351 -0.6803 -0.2677
  231MOL   H11837378   1.565   4.115   1.285 -0.5540 -0.2129 -2.4972
  231MOL   H11937379   1.399   3.909   1.425  0.2153  0.4546 -1.5491
  231MOL   H12037380   1.672   3.972   1.453 -2.0248  2.0537 -1.3452
  231MOL   H12137381   1.608   3.827   1.424 -1.3222  1.1074 -1.9362
  231MOL   C12237382   1.436   4.082   1.536  0.8337 -0.1058  0.3803
  231MOL   C12337383   1.307   4.044   1.609 -0.1323 -0.2892 -0.8485
  231MOL   N12437384   1.323   3.920   1.685 -0.1401  0.0036  0.4061
  231MOL   H12537385   1.511   4.104   1.612  1.4432  2.5905 -0.9365
  231MOL   H12637386   1.424   4.171   1.474  1.7544 -1.8875 -2.4256
  231MOL   H12737387   1.236   4.029   1.528 -2.7623 -0.3643  1.3999
  231MOL   H12837388   1.398   3.940   1.749  0.3698  0.2336 -0.2580
  231MOL   H12937389   1.361   3.864   1.610 -1.7764 -1.2981  0.5346
  231MOL   C13037390   1.244   4.158   1.694 -0.4270 -0.5837  0.3669
  231MOL   C13137391   1.117   4.219   1.629  0.0855  0.0348  0.2701
  231MOL   N13237392   1.036   4.274   1.731 -0.1540 -0.0821 -0.7776
  231MOL   H13337393   1.225   4.113   1.791 -0.5040  3.3409  2.2531
  231MOL   H13437394   1.316   4.239   1.703 -0.5633 -0.0574 -2.4920
  231MOL   H13537395   1.055   4.137   1.593 -2.6717  0.9883  2.6902
  231MOL   H13637396   0.952   4.223   1.757 -1.7649  2.0118 -1.6987
  231MOL   H13737397   0.995   4.361   1.700  1.7979  0.2660 -2.4214
  231MOL   C13837398   1.146   4.323   1.522  0.2782  0.4624  0.8312
  231MOL   C13937399   1.035   4.347   1.416 -0.0138  0.2567 -0.1214
  231MOL   N14037400   1.070   4.465   1.341  0.1515  0.4184  0.2811
  231MOL   H14137401   1.195   4.414   1.557  1.3283 -0.5217  1.9821
  231MOL   H14237402   1.224   4.269   1.467 -0.8057  0.3945 -0.6656
  231MOL   H14337403   0.944   4.377   1.467 -0.9325  0.9375 -2.1325
  231MOL   H14437404   1.060   4.551   1.393  2.2191  0.6138  0.4133
  231MOL   H14537405   1.021   4.481   1.255  1.0583 -0.7593 -0.4733
  231MOL   C14637406   1.021   4.217   1.324 -0.6597  0.3148 -0.0150
  231MOL   C14737407   0.951   4.238   1.185 -0.3711 -0.4412 -0.0643
  231MOL   N14837408   0.979   4.119   1.110  0.4562 -0.0985 -0.7478
  231MOL   H14937409   1.120   4.174   1.308  0.4226  2.3504  0.8828
  231MOL   H15037410   0.972   4.137   1.379  0.2083  0.9058  1.6494
  231MOL   H15137411   1.000   4.322   1.136 -0.1530 -0.3002  0.3919
  231MOL   H15237412   0.934   4.039   1.153  0.3185  0.1809 -0.3760
  231MOL   H15337413   1.078   4.100   1.122  0.3966  0.7096  1.0843
  231MOL   C15437414   0.798   4.247   1.177  0.4421 -0.6531 -0.0073
  231MOL   C15537415   0.737   4.364   1.265  0.0911  0.2332  0.2616
  231MOL   N15637416   0.594   4.362   1.244  0.0799  0.1491  0.0706
  231MOL   H15737417   0.764   4.247   1.074  1.3433 -0.5794 -0.3148
  231MOL   H15837418   0.755   4.154   1.214  0.5424 -1.7830 -2.6129
  231MOL   H15937419   0.786   4.457   1.235 -0.3604  0.4179  0.0941
  231MOL   H16037420   0.565   4.266   1.240 -1.0483  0.5039 -0.4949
  231MOL   H16137421   0.552   4.381   1.334  1.7075 -0.7140  1.0257
  231MOL   H16237422   0.747   4.342   1.371  0.6346 -0.3666  0.0914
  232MOL     C137423   6.261   2.856   0.128  0.2190 -0.3029 -0.7812
  232MOL     C237424   6.306   3.005   0.116  0.0040  0.3168 -0.3250
  232MOL     N337425   6.190   3.082   0.082  0.0387 -0.1231  0.3710
  232MOL     H437426   6.344   2.786   0.137  0.2848  0.1892  3.1684
  232MOL     H537427   6.203   2.828   0.040 -1.6242 -0.3061  0.4051
  232MOL     H637428   6.381   3.013   0.037 -0.9803 -2.1097 -1.5856
  232MOL     H737429   6.118   3.038   0.138  0.8206 -0.0141  1.4890
  232MOL     H837430   6.202   3.170   0.130  0.5981 -0.2369  0.4524
  232MOL     H937431   6.200   2.840   0.217  0.9248 -0.8983 -0.4068
  232MOL    C1037432   6.366   3.067   0.240  0.4036 -1.8168  0.0448
  232MOL    C1137433   6.518   3.052   0.242  0.1687  0.2192 -0.0239
  232MOL    N1237434   6.575   3.167   0.313 -0.4072 -0.5216 -0.4616
  232MOL    H1337435   6.338   3.172   0.248  0.9890 -1.8182  2.5957
  232MOL    H1437436   6.315   3.030   0.329 -0.0861  0.6067  0.7979
  232MOL    H1537437   6.569   3.060   0.145  1.5749  0.3279  0.7065
  232MOL    H1637438   6.666   3.131   0.338 -0.4200 -0.6457 -0.5909
  232MOL    H1737439   6.537   3.175   0.407 -2.9352  0.0573 -1.4770
  232MOL    C1837440   6.560   2.919   0.308  0.2441 -0.2228 -0.4323
  232MOL    C1937441   6.701   2.871   0.287  0.0916  0.3337  0.4264
  232MOL    N2037442   6.726   2.763   0.379 -0.6614 -0.0392  0.5414
  232MOL    H2137443   6.548   2.920   0.416 -2.2153 -2.2613 -0.6458
  232MOL    H2237444   6.489   2.838   0.294 -2.0391  1.5677  0.5368
  232MOL    H2337445   6.749   2.963   0.321 -1.1467  1.5622 -1.0859
  232MOL    H2437446   6.648   2.701   0.394 -1.3947  1.0514  1.3576
  232MOL    H2537447   6.798   2.704   0.342  0.7895  2.9909 -1.6871
  232MOL    C2637448   6.738   2.827   0.135  0.3127  0.5679  0.2008
  232MOL    C2737449   6.878   2.769   0.114  0.9758  0.1267 -0.2128
  232MOL    N2837450   6.873   2.723   7.252 -0.2423  0.3210 -0.9172
  232MOL    H2937451   6.657   2.760   0.106 -1.2027  1.8385  1.4622
  232MOL    H3037452   6.723   2.917   0.076 -2.3948 -0.7660 -1.2450
  232MOL    H3137453   6.905   2.681   0.173  0.6788 -0.3391 -0.7652
  232MOL    H3237454   6.777   2.701   7.233 -0.8936  2.4704 -0.2627
  232MOL    H3337455   6.877   2.795   7.181  0.4131 -0.4402 -1.6642
  232MOL    C3437456   6.993   2.867   0.139  0.2791  0.4937 -0.5547
  232MOL    C3537457   7.136   2.824   0.100 -0.6011 -0.3128 -0.3787
  232MOL    N3637458   7.217   2.935   0.049 -0.1148 -0.0096  0.0122
  232MOL    H3737459   6.965   2.953   0.077 -1.1031  2.0852  2.1649
  232MOL    H3837460   6.984   2.913   0.238  0.9871 -0.5553 -0.0037
  232MOL    H3937461   7.124   2.754   0.017  0.5212 -1.2335  0.2252
  232MOL    H4037462   0.022   2.892   0.005 -0.3383 -0.1656 -0.2472
  232MOL    H4137463   7.167   2.976   7.247 -1.6926 -1.2264  0.3518
  232MOL    C4237464   7.210   2.744   0.214 -0.5377  0.1510  0.2715
  232MOL    C4337465   7.159   2.603   0.251 -0.3653  1.0813  0.1535
  232MOL    N4437466   7.176   2.511   0.145 -0.1331  0.2082 -0.0071
  232MOL    H4537467   0.040   2.739   0.190 -0.0726  1.6579  1.9211
  232MOL    H4637468   7.206   2.808   0.302  2.2003  0.3640  0.2856
  232MOL    H4737469   7.052   2.608   0.271  0.0884  1.4964  2.7076
  232MOL    H4837470   7.161   2.425   0.195  0.0696  0.5047  0.5713
  232MOL    H4937471   7.103   2.522   0.076  0.1494 -1.6756 -0.6201
  232MOL    C5037472   7.215   2.553   0.378  0.7210  0.6171 -0.0292
  232MOL    C5137473   7.157   2.609   0.512 -0.3061 -0.7268 -1.3056
  232MOL    N5237474   7.045   2.517   0.550 -0.7322 -0.0978 -0.1604
  232MOL    H5337475   7.202   2.445   0.388  2.5493  0.3357 -0.4631
  232MOL    H5437476   0.048   2.568   0.375  0.6855  0.8096 -0.3007
  232MOL    H5537477   7.118   2.709   0.494  0.1479 -0.8840 -3.2437
  232MOL    H5637478   6.995   2.543   0.633 -1.5271  2.8607 -1.4842
  232MOL    H5737479   6.976   2.525   0.476 -0.8876  2.0040  0.1694
  232MOL    C5837480   7.270   2.613   0.627 -0.7300  0.0605 -0.1836
  232MOL    C5937481   0.086   2.744   0.621  0.5660 -0.2895 -0.2763
  232MOL    N6037482   0.197   2.736   0.524  0.8315  0.1605 -0.2555
  232MOL    H6137483   7.224   2.610   0.726 -0.4503  3.9090  0.1314
  232MOL    H6237484   0.063   2.528   0.624 -0.2387  0.3784  1.5421
  232MOL    H6337485   0.136   2.746   0.717  0.1094 -0.3526 -0.0342
  232MOL    H6437486   0.160   2.731   0.430 -0.1098  1.1246  0.0529
  232MOL    H6537487   0.245   2.649   0.544  0.6528  0.1388  0.0802
  232MOL    C6637488   0.020   2.883   0.602  0.2404 -0.2162 -0.3702
  232MOL    C6737489   7.195   2.910   0.722 -0.4551  0.3876 -0.4485
  232MOL    N6837490   7.275   2.965   0.839 -0.2882 -0.3551  0.5959
  232MOL    H6937491   0.103   2.954   0.591  1.2961 -1.0901  1.5895
  232MOL    H7037492   7.238   2.887   0.510 -2.6931  2.5625  1.4957
  232MOL    H7137493   7.140   2.826   0.765  2.4107 -0.5804  1.4550
  232MOL    H7237494   7.226   2.976   0.926  0.3968  1.0988  0.8132
  232MOL    H7337495   0.029   3.060   0.819 -1.5247 -0.1965 -0.5431
  232MOL    C7437496   7.102   3.035   0.685  0.5209  0.1210  0.3090
  232MOL    C7537497   6.987   2.999   0.585 -0.2739 -0.6210 -0.0719
  232MOL    N7637498   6.932   2.866   0.602 -0.2652 -0.6993  0.9423
  232MOL    H7737499   7.048   3.073   0.772 -0.1375  0.0199 -0.0525
  232MOL    H7837500   7.165   3.114   0.647  0.3718  0.3331  0.5013
  232MOL    H7937501   7.017   2.991   0.481 -0.5373  1.4110 -0.3250
  232MOL    H8037502   6.864   2.846   0.531  0.4508  0.3316 -0.0484
  232MOL    H8137503   7.007   2.803   0.577  0.6452  0.6896  0.0888
  232MOL    C8237504   6.878   3.114   0.580  0.1534  0.8075  0.3231
  232MOL    C8337505   6.916   3.250   0.529 -0.5796 -0.2909  0.3573
  232MOL    N8437506   6.900   3.247   0.384  0.5340  0.4519  0.4854
  232MOL    H8537507   6.782   3.090   0.533  0.8315 -0.9739 -0.2163
  232MOL    H8637508   6.851   3.128   0.684  1.4304  1.2690  0.5997
  232MOL    H8737509   7.020   3.271   0.554 -0.2313 -2.6978  1.0386
  232MOL    H8837510   6.978   3.196   0.345  1.6161  0.4173  2.6041
  232MOL    H8937511   6.905   3.338   0.341  1.5268 -0.2116 -0.8219
  232MOL    C9037512   6.814   3.366   0.579 -0.1484  0.2722 -0.0239
  232MOL    C9137513   6.850   3.450   0.703 -0.3922 -0.6167 -0.0230
  232MOL    N9237514   6.815   3.365   0.814 -1.1262 -0.0168 -1.0739
  232MOL    H9337515   6.816   3.445   0.504 -2.9328 -0.3129 -0.7464
  232MOL    H9437516   6.712   3.330   0.574 -0.0426  0.0570 -0.6829
  232MOL    H9537517   6.789   3.539   0.693  1.6422  1.1114  2.0898
  232MOL    H9637518   6.750   3.296   0.779 -1.5395 -0.7945  1.1280
  232MOL    H9737519   6.759   3.424   0.875  1.1619  1.0510  0.0560
  232MOL    C9837520   7.003   3.503   0.713 -0.0707 -0.7295 -0.2295
  232MOL    C9937521   7.043   3.613   0.609  0.8659  0.0245 -0.1584
  232MOL   N10037522   6.999   3.745   0.639  0.0220 -0.0786 -0.6048
  232MOL   H10137523   7.014   3.534   0.817  1.1782 -0.7723 -0.3467
  232MOL   H10237524   7.070   3.417   0.710  0.0872 -0.6014 -0.3763
  232MOL   H10337525   7.000   3.578   0.516  0.6955  1.4077 -0.6077
  232MOL   H10437526   6.928   3.769   0.571 -0.5449  1.5746  0.5437
  232MOL   H10537527   6.948   3.749   0.726 -1.1546  0.6607 -1.3125
  232MOL   C10637528   7.197   3.615   0.576  0.2481  0.2179  0.1641
  232MOL   C10737529   7.258   3.506   0.486  0.4421  0.3071  0.6270
  232MOL   N10837530   7.215   3.506   0.339 -0.2541 -0.4256  0.4270
  232MOL   H10937531   7.220   3.715   0.541 -1.4659  0.8460  0.7925
  232MOL   H11037532   7.249   3.613   0.672 -2.3539 -0.1839  1.6220
  232MOL   H11137533   7.221   3.410   0.520  0.9397  0.2711  1.0748
  232MOL   H11237534   7.255   3.584   0.289  2.0537  0.1864  3.1088
  232MOL   H11337535   7.248   3.428   0.284 -0.0427  0.9616 -1.4672
  232MOL   C11437536   0.140   3.509   0.489 -0.9670  0.1142  0.2040
  232MOL   C11537537   0.206   3.454   0.618  0.4951 -0.5057 -0.2222
  232MOL   N11637538   0.145   3.328   0.658 -0.3260 -0.1971  0.2426
  232MOL   H11737539   0.177   3.442   0.412  0.0968  1.4770 -0.5190
  232MOL   H11837540   0.176   3.609   0.460  0.4330 -0.5826 -0.5346
  232MOL   H11937541   0.174   3.515   0.703  0.1471 -0.3517 -0.4622
  232MOL   H12037542   0.193   3.289   0.738 -0.4780  2.1504  1.5361
  232MOL   H12137543   0.155   3.260   0.584  2.7317  1.8795 -1.3719
  232MOL   C12237544   0.348   3.428   0.637 -1.2071  0.0596  0.3225
  232MOL   C12337545   0.431   3.555   0.605 -0.0403  0.5877 -0.0534
  232MOL   N12437546   0.409   3.652   0.718  0.3791 -0.0443 -0.4345
  232MOL   H12537547   0.372   3.402   0.741  0.8766 -1.1414 -0.4186
  232MOL   H12637548   0.376   3.339   0.580  0.2677  1.5074 -1.2717
  232MOL   H12737549   0.397   3.607   0.515 -2.1165 -0.3618  0.1518
  232MOL   H12837550   0.459   3.607   0.793 -0.9197  0.4700  0.7606
  232MOL   H12937551   0.437   3.748   0.704 -1.2340  0.2860 -1.5541
  232MOL   C13037552   0.590   3.536   0.604  0.3146  0.1031 -0.1075
  232MOL   C13137553   0.653   3.523   0.467  0.4280  0.0952  0.2950
  232MOL   N13237554   0.800   3.538   0.465  0.0790 -0.1972 -0.2344
  232MOL   H13337555   0.633   3.620   0.659 -0.8968  0.2918  0.5673
  232MOL   H13437556   0.612   3.446   0.661 -1.8852 -0.0880  0.4576
  232MOL   H13537557   0.611   3.602   0.406  2.3659 -0.0558 -1.2878
  232MOL   H13637558   0.821   3.550   0.366  1.1457  0.6060  0.0739
  232MOL   H13737559   0.816   3.632   0.499  0.5321 -0.8105  1.2891
  232MOL   C13837560   0.623   3.388   0.409  0.3170 -0.6322 -0.4453
  232MOL   C13937561   0.684   3.374   0.262  0.6920 -0.5179 -0.1026
  232MOL   N14037562   0.633   3.241   0.218 -0.3838  0.4647 -0.3523
  232MOL   H14137563   0.657   3.309   0.475 -0.0003  0.4583  1.0553
  232MOL   H14237564   0.516   3.365   0.411 -0.0979  1.2326  0.9188
  232MOL   H14337565   0.793   3.366   0.262  0.7675  0.3955 -0.8671
  232MOL   H14437566   0.705   3.175   0.245 -1.2286  0.8382  3.0584
  232MOL   H14537567   0.559   3.219   0.283  1.3151 -0.3929  1.3345
  232MOL   C14637568   0.636   3.482   0.158 -0.5627  0.5186 -0.0060
  232MOL   C14737569   0.490   3.535   0.160 -0.3947  0.2966  0.5109
  232MOL   N14837570   0.497   3.651   0.071  0.3967 -0.7008  0.2289
  232MOL   H14937571   0.697   3.567   0.187  1.0404 -0.9593  1.0743
  232MOL   H15037572   0.667   3.446   0.060 -1.6731 -2.2333  0.5867
  232MOL   H15137573   0.467   3.571   0.260 -2.1521  0.6184  0.0074
  232MOL   H15237574   0.526   3.732   0.124 -0.5949 -1.0568  1.3263
  232MOL   H15337575   0.416   3.672   0.014 -0.1559 -2.2607  0.4230
  232MOL   C15437576   0.389   3.427   0.113 -0.2428  0.4941  0.7365
  232MOL   C15537577   0.249   3.483   0.083 -0.7316 -0.6924  0.4597
  232MOL   N15637578   0.163   3.371   0.055 -0.2656 -0.2495 -0.0053
  232MOL   H15737579   0.419   3.369   0.026 -1.7416  1.5477 -0.5068
  232MOL   H15837580   0.380   3.346   0.185  1.4120 -1.5427 -1.2677
  232MOL   H15937581   0.251   3.546   7.270  3.2675  0.0120  0.9487
  232MOL   H16037582   0.138   3.319   0.138 -2.6025 -1.0761 -1.1683
  232MOL   H16137583   0.205   3.298   7.274 -0.4691 -1.3697  1.2456
  232MOL   H16237584   0.209   3.555   0.155  0.9706  1.3837 -0.6084
  233MOL     C137585   3.066   0.759   0.545 -0.3899  0.7972  0.0076
  233MOL     C237586   3.118   0.672   0.428 -0.0597  0.1610 -0.1055
  233MOL     N337587   3.246   0.615   0.473  0.0414 -0.8159  0.3744
  233MOL     H437588   2.971   0.811   0.529 -0.4407  0.5864 -0.3769
  233MOL     H537589   3.141   0.834   0.568  2.0735 -0.7900 -2.5660
  233MOL     H637590   3.133   0.740   0.344  0.0116 -1.0529 -1.0959
  233MOL     H737591   3.241   0.594   0.572 -1.5419 -0.5453  0.3588
  233MOL     H837592   3.316   0.688   0.466 -0.0183 -0.5362  2.5282
  233MOL     H937593   3.041   0.698   0.633  0.4234  1.8768  1.0012
  233MOL    C1037594   3.018   0.556   0.394 -0.3808  0.7918 -0.6146
  233MOL    C1137595   2.940   0.570   0.261  0.4953  0.7658 -0.1758
  233MOL    N1237596   2.843   0.466   0.240 -0.1175 -0.1326 -0.5120
  233MOL    H1337597   3.072   0.463   0.381 -0.6083  0.8540 -2.1468
  233MOL    H1437598   2.951   0.531   0.476 -0.5145 -0.8791 -1.2152
  233MOL    H1537599   3.023   0.565   0.191 -0.6830 -1.9747 -1.4539
  233MOL    H1637600   2.880   0.377   0.270 -1.9695 -1.0583 -0.8406
  233MOL    H1737601   2.811   0.449   0.145 -0.1317 -0.6465 -0.4213
  233MOL    C1837602   2.867   0.708   0.243  0.2958 -0.0654 -0.0641
  233MOL    C1937603   2.825   0.748   0.101 -0.2839  0.1055 -0.2416
  233MOL    N2037604   2.680   0.775   0.098  0.5636  0.5379 -0.3264
  233MOL    H2137605   2.787   0.698   0.316  1.8785  0.4797  1.7805
  233MOL    H2237606   2.937   0.787   0.270  2.8332 -1.8269 -1.3297
  233MOL    H2337607   2.846   0.656   0.047  0.0672  1.0977 -1.8574
  233MOL    H2437608   2.634   0.700   0.049  1.5256  1.7065 -3.1048
  233MOL    H2537609   2.642   0.775   0.192 -1.0881 -1.4050 -0.9513
  233MOL    C2637610   2.907   0.856   0.019 -0.4308  0.2494  0.5341
  233MOL    C2737611   2.879   0.863   7.141 -0.0397  0.1473 -0.4515
  233MOL    N2837612   2.896   1.003   7.103  0.3429  0.1000  0.7693
  233MOL    H2937613   2.898   0.956   0.060 -1.8029 -0.1843  1.3246
  233MOL    H3037614   3.015   0.852   0.030 -0.1066 -1.6330 -2.8108
  233MOL    H3137615   2.778   0.824   7.129 -0.2424 -0.2908  2.4378
  233MOL    H3237616   2.856   1.069   7.168 -0.0600 -0.1269  0.7520
  233MOL    H3337617   2.841   1.013   7.018  0.2660 -0.2913  0.7724
  233MOL    C3437618   2.985   0.771   7.072  0.0288  0.8752 -0.3027
  233MOL    C3537619   2.978   0.612   7.107 -0.6930 -0.2811  0.7118
  233MOL    N3637620   2.859   0.563   7.047  0.4869 -0.1991 -0.1164
  233MOL    H3737621   2.962   0.798   6.969 -1.1732 -0.0961 -0.2832
  233MOL    H3837622   3.086   0.812   7.080  0.1375  1.1468 -2.7459
  233MOL    H3937623   2.983   0.582   7.211 -1.5439 -4.0849 -0.2540
  233MOL    H4037624   2.819   0.486   7.099 -1.8603 -0.0887 -1.7184
  233MOL    H4137625   2.784   0.629   7.063  0.3193 -0.1531 -1.0810
  233MOL    C4237626   3.105   0.547   7.045  0.4977  0.1793 -0.0990
  233MOL    C4337627   3.233   0.576   7.135 -0.5437  0.7688 -0.3363
  233MOL    N4437628   3.229   0.504   7.261  0.0416 -0.9642  0.0901
  233MOL    H4537629   3.080   0.442   7.030 -2.2491  0.7724  0.1074
  233MOL    H4637630   3.115   0.583   6.943 -3.6284  1.3394 -0.1498
  233MOL    H4737631   3.236   0.681   7.161 -1.3625  0.5758  0.5668
  233MOL    H4837632   3.195   0.412   7.235 -0.3098 -0.9524  0.4977
  233MOL    H4937633   3.161   0.530   0.055 -1.2179 -3.4495 -0.1540
  233MOL    C5037634   3.368   0.549   7.080 -0.3167 -0.8628  0.0199
  233MOL    C5137635   3.423   0.661   6.984 -0.1396  0.1806  0.3848
  233MOL    N5237636   3.568   0.662   7.005  0.1119  0.1667  0.0507
  233MOL    H5337637   3.443   0.545   7.159  0.5735  1.0434 -0.6798
  233MOL    H5437638   3.369   0.448   7.039  1.6742 -0.1385 -1.8433
  233MOL    H5537639   3.380   0.756   7.016 -0.1293  0.7338 -1.2107
  233MOL    H5637640   3.591   0.681   7.102 -1.3704  0.5780  0.3299
  233MOL    H5737641   3.601   0.745   6.958 -0.5034  1.0893  1.2166
  233MOL    C5837642   3.391   0.633   6.833  0.2372  0.7370  0.4281
  233MOL    C5937643   3.336   0.738   6.741  0.1421 -0.3590  0.0057
  233MOL    N6037644   3.302   0.674   6.617 -0.2778 -0.1259  0.3199
  233MOL    H6137645   3.478   0.578   6.796 -1.3490  0.1152 -2.5129
  233MOL    H6237646   3.308   0.563   6.840 -1.6933  3.1584  2.9455
  233MOL    H6337647   3.420   0.801   6.712 -0.2085  0.2241  0.2647
  233MOL    H6437648   3.316   0.741   6.543 -0.1847  0.4905  0.8862
  233MOL    H6537649   3.372   0.605   6.595 -0.7404 -1.3396  2.5662
  233MOL    C6637650   3.218   0.817   6.803  0.7360  0.2376  0.0199
  233MOL    C6737651   3.195   0.959   6.748  0.5404 -0.1127 -0.1388
  233MOL    N6837652   3.066   1.006   6.789  0.1824 -0.2662  0.0766
  233MOL    H6937653   3.126   0.758   6.796  1.3436 -0.8918  1.2171
  233MOL    H7037654   3.227   0.837   6.910 -7.3824  3.7086  0.4459
  233MOL    H7137655   3.189   0.950   6.640 -0.3613 -0.1981 -0.0855
  233MOL    H7237656   3.073   1.055   6.877  1.0267  2.1207 -1.2630
  233MOL    H7337657   3.044   1.084   6.729  1.0440 -1.1452 -1.4068
  233MOL    C7437658   3.307   1.061   6.785 -0.3156  0.2378  0.5895
  233MOL    C7537659   3.354   1.148   6.666 -0.1272 -0.2365  0.2420
  233MOL    N7637660   3.259   1.263   6.658 -0.1351  0.3008 -0.1793
  233MOL    H7737661   3.287   1.118   6.876 -1.6790 -1.9655  1.7051
  233MOL    H7837662   3.388   0.998   6.821 -0.3568 -1.3508 -1.9594
  233MOL    H7937663   3.348   1.089   6.574 -0.6703 -0.7837  0.6327
  233MOL    H8037664   3.294   1.323   6.585 -2.5169  0.5840 -1.1266
  233MOL    H8137665   3.169   1.225   6.630 -0.3764 -0.1507  1.1735
  233MOL    C8237666   3.496   1.206   6.682  0.5013  0.0863  0.4058
  233MOL    C8337667   3.611   1.108   6.675 -0.3281 -0.6483 -0.4117
  233MOL    N8437668   3.689   1.146   6.560  0.0030  0.1412 -0.3227
  233MOL    H8537669   3.506   1.298   6.625  0.5447  0.6958  1.3970
  233MOL    H8637670   3.492   1.250   6.781  0.7046  1.8965 -0.3777
  233MOL    H8737671   3.579   1.005   6.657  2.1694 -1.6729  0.8491
  233MOL    H8837672   3.735   1.064   6.523  1.7451  0.4808  1.0294
  233MOL    H8937673   3.628   1.181   6.488 -0.0898  0.5692 -0.0320
  233MOL    C9037674   3.712   1.103   6.793  0.0075 -0.6197  0.0516
  233MOL    C9137675   3.657   1.049   6.935  0.3085  0.4765  0.0011
  233MOL    N9237676   3.730   0.930   6.964  0.0830  0.2623  0.7283
  233MOL    H9337677   3.802   1.050   6.761  0.9105  1.2747 -0.6330
  233MOL    H9437678   3.746   1.206   6.806 -3.8137  0.7507 -0.3013
  233MOL    H9537679   3.549   1.033   6.926 -0.0214  2.8572 -0.4762
  233MOL    H9637680   3.708   0.897   7.057 -1.5197 -1.9347 -0.3887
  233MOL    H9737681   3.825   0.963   6.967  0.1865  0.4357 -2.8330
  233MOL    C9837682   3.652   1.151   7.053  0.5064 -0.2524 -0.8245
  233MOL    C9937683   3.608   1.102   7.195 -0.0893  0.2777  0.4277
  233MOL   N10037684   3.627   1.221   7.271 -0.6126 -0.0286  0.2829
  233MOL   H10137685   3.758   1.173   7.062  0.2900  0.2598  0.5199
  233MOL   H10237686   3.593   1.239   7.028  0.2976 -0.1795 -0.0975
  233MOL   H10337687   3.676   1.033   7.246 -1.1305 -1.6847 -0.7954
  233MOL   H10437688   3.606   1.207   0.093  0.8389  1.0937  0.7596
  233MOL   H10537689   3.554   1.284   7.242  0.5461  1.2389  0.1001
  233MOL   C10637690   3.468   1.053   7.195  0.0118 -0.1401  0.3470
  233MOL   C10737691   3.418   0.976   0.038 -0.2063 -0.4247 -0.5800
  233MOL   N10837692   3.280   0.961   0.017  0.1489  0.7206  0.4020
  233MOL   H10937693   3.401   1.136   7.172  2.1309  1.7739  0.9078
  233MOL   H11037694   3.452   0.984   7.112  2.1399 -2.8697  2.1396
  233MOL   H11137695   3.444   1.038   0.124 -1.5330 -0.1173 -0.3825
  233MOL   H11237696   3.247   0.897   7.223  0.9274  1.1953 -0.4144
  233MOL   H11337697   3.246   1.052   7.264 -0.7310 -0.0128 -0.9346
  233MOL   C11437698   3.484   0.834   0.048 -0.5967  0.3614 -0.7080
  233MOL   C11537699   3.447   0.749   0.174 -0.1062 -0.0790 -0.6939
  233MOL   N11637700   3.472   0.611   0.142  0.4209  0.4026  0.1254
  233MOL   H11737701   3.455   0.789   7.229 -1.5707  0.0696 -0.2708
  233MOL   H11837702   3.592   0.824   0.036 -0.7944 -0.0017 -2.3546
  233MOL   H11937703   3.339   0.762   0.187 -0.1132 -0.5901 -0.2136
  233MOL   H12037704   3.435   0.553   0.216  1.1072 -0.6368 -0.3405
  233MOL   H12137705   3.400   0.594   0.073 -1.7997  0.3787  2.4152
  233MOL   C12237706   3.520   0.785   0.309 -0.0837  0.9912 -0.1395
  233MOL   C12337707   3.464   0.919   0.381  0.8963 -0.2900 -0.6842
  233MOL   N12437708   3.379   0.872   0.486  0.2746 -0.3107 -0.3092
  233MOL   H12537709   3.521   0.693   0.367  0.8466  0.5848 -0.7956
  233MOL   H12637710   3.625   0.801   0.287 -0.1400 -1.2668 -2.2270
  233MOL   H12737711   3.409   0.983   0.313 -0.8326 -1.3591 -0.3215
  233MOL   H12837712   3.359   0.945   0.552  0.8186 -0.4488  0.0121
  233MOL   H12937713   3.295   0.847   0.436 -0.2006  1.0258 -0.1840
  233MOL   C13037714   3.579   1.001   0.443 -0.5133 -0.1456  0.1592
  233MOL   C13137715   3.648   1.087   0.337  0.5657 -0.1589  0.4054
  233MOL   N13237716   3.569   1.208   0.316  0.2705  0.6676 -0.2654
  233MOL   H13337717   3.548   1.068   0.523  0.1887 -0.9113  1.0897
  233MOL   H13437718   3.648   0.927   0.484  1.5984 -0.0328 -2.9869
  233MOL   H13537719   3.637   1.037   0.241 -1.2069  1.0388 -0.0459
  233MOL   H13637720   3.641   1.277   0.299  1.1944 -0.1820  0.1188
  233MOL   H13737721   3.541   1.223   0.412 -2.0232  1.7295 -1.0936
  233MOL   C13837722   3.797   1.117   0.371  0.6563 -0.6135  0.1596
  233MOL   C13937723   3.893   1.110   0.253 -0.9404  0.2585  0.4504
  233MOL   N14037724   4.020   1.164   0.294 -0.0412  0.0928 -0.5472
  233MOL   H14137725   3.803   1.216   0.415  1.0452 -0.8464  0.6431
  233MOL   H14237726   3.840   1.052   0.448 -1.2704 -0.6987  1.1966
  233MOL   H14337727   3.858   1.170   0.169 -0.6597  0.0854  0.2063
  233MOL   H14437728   4.006   1.238   0.362 -1.7039  0.5951 -1.4196
  233MOL   H14537729   4.073   1.199   0.215  2.5550 -1.9979  0.2028
  233MOL   C14637730   3.927   0.963   0.210 -0.1159 -0.9032 -0.3316
  233MOL   C14737731   4.017   0.947   0.083 -0.2975  0.8638 -0.3432
  233MOL   N14837732   4.055   0.804   0.071 -0.1233 -0.0367  0.1263
  233MOL   H14937733   3.981   0.917   0.293  1.4989 -0.6063 -1.1855
  233MOL   H15037734   3.834   0.906   0.205  0.3816 -1.5760 -2.8982
  233MOL   H15137735   4.112   0.999   0.098  1.0972 -1.3356 -1.3534
  233MOL   H15237736   4.134   0.789   0.010  0.6841  0.4264  1.0353
  233MOL   H15337737   4.082   0.769   0.162  1.5258 -1.2491 -0.8003
  233MOL   C15437738   3.952   1.004   7.234  0.1169  0.3368 -0.0077
  233MOL   C15537739   4.061   1.027   7.129  0.2486 -0.9589  0.0998
  233MOL   N15637740   4.009   1.080   6.999 -0.1264  0.6148 -0.3627
  233MOL   H15737741   3.872   0.938   7.200  0.4654 -0.2072  0.2305
  233MOL   H15837742   3.908   1.102   7.254  1.4307  0.7767  0.8164
  233MOL   H15937743   4.129   0.942   7.117  0.5620 -0.5272 -1.2242
  233MOL   H16037744   3.962   1.165   7.026 -0.1930  0.7530 -0.9213
  233MOL   H16137745   4.095   1.109   6.955  0.0664  0.1901 -0.2640
  233MOL   H16237746   4.139   1.094   7.167  1.7742 -3.6531  1.9300
  234MOL     C137747   0.995   6.453   1.991 -0.7038 -0.1353 -0.3259
  234MOL     C237748   0.974   6.501   1.848 -0.3518  0.1236 -0.3672
  234MOL     N337749   0.966   6.646   1.844  0.1549  0.1263  0.5126
  234MOL     H437750   0.920   6.491   2.060  0.6837  0.7702  0.7150
  234MOL     H537751   1.097   6.463   2.031 -0.6007 -1.6141 -0.1863
  234MOL     H637752   0.876   6.463   1.819 -0.6933  0.2375  0.6291
  234MOL     H737753   0.943   6.672   1.750 -1.2188 -1.1127  0.5022
  234MOL     H837754   0.885   6.681   1.894  2.5631  2.9555  2.6055
  234MOL     H937755   0.979   6.345   1.995  1.8434 -0.4950  1.8231
  234MOL    C1037756   1.080   6.452   1.749 -0.1382  0.8124  0.2495
  234MOL    C1137757   1.030   6.368   1.631  1.4241 -0.0103 -0.1769
  234MOL    N1237758   1.145   6.337   1.547  0.1547 -0.4680 -0.6944
  234MOL    H1337759   1.142   6.531   1.707 -0.2718  1.2079  0.7820
  234MOL    H1437760   1.148   6.396   1.812 -0.1426 -0.7114 -1.0658
  234MOL    H1537761   0.956   6.423   1.572  1.8522  1.1796  0.3760
  234MOL    H1637762   1.177   6.421   1.502  1.5001 -0.0689  0.9406
  234MOL    H1737763   1.108   6.279   1.473  1.1131 -1.3409 -0.5102
  234MOL    C1837764   0.979   6.240   1.689 -0.0599  0.4426  0.3849
  234MOL    C1937765   0.884   6.166   1.598 -0.4042 -0.0887  0.2028
  234MOL    N2037766   0.859   6.032   1.648  0.5190  0.2602  0.1305
  234MOL    H2137767   1.060   6.175   1.724 -1.1288  0.6990  3.4501
  234MOL    H2237768   0.922   6.267   1.777  0.8024  0.1174  1.0497
  234MOL    H2337769   0.930   6.169   1.500  1.7354  0.1131  1.1965
  234MOL    H2437770   0.871   6.021   1.748  0.5732 -1.4689 -0.0532
  234MOL    H2537771   0.764   6.005   1.627  0.5342  0.8671 -0.7190
  234MOL    C2637772   0.744   6.227   1.577  0.4523  0.0343  0.3623
  234MOL    C2737773   0.674   6.171   1.450  0.0738 -0.2565 -0.1269
  234MOL    N2837774   0.533   6.180   1.479  0.7226 -0.2669  0.0460
  234MOL    H2937775   0.685   6.197   1.663 -1.7726 -0.2702 -1.2307
  234MOL    H3037776   0.741   6.336   1.573 -2.8101 -0.0100  0.2312
  234MOL    H3137777   0.681   6.064   1.431  0.3211 -0.0660 -1.1135
  234MOL    H3237778   0.517   6.114   1.554  2.4175 -0.6375  0.1152
  234MOL    H3337779   0.505   6.272   1.511  2.2169 -0.7663  2.9942
  234MOL    C3437780   0.711   6.254   1.321 -0.4096  0.3049 -0.8091
  234MOL    C3537781   0.848   6.296   1.284 -0.1933  0.1879 -0.6206
  234MOL    N3637782   0.925   6.173   1.262 -0.2499 -0.5905 -0.3971
  234MOL    H3737783   0.670   6.210   1.230  2.3808 -1.6150 -1.1829
  234MOL    H3837784   0.658   6.348   1.338 -0.4345 -0.1181  1.6455
  234MOL    H3937785   0.888   6.362   1.362  0.3082  2.1740 -2.5254
  234MOL    H4037786   0.868   6.108   1.210 -2.1680 -0.5003  1.5368
  234MOL    H4137787   1.006   6.187   1.202  0.5773  0.2502  0.8938
  234MOL    C4237788   0.864   6.380   1.163  0.2380 -0.9031  0.0695
  234MOL    C4337789   0.838   6.536   1.185 -0.4616 -0.3933  0.6468
  234MOL    N4437790   0.949   6.589   1.264 -0.1599 -0.2979  0.6543
  234MOL    H4537791   0.961   6.366   1.116  0.4574  1.8643 -0.3931
  234MOL    H4637792   0.776   6.354   1.103 -1.2069 -2.4731  2.7944
  234MOL    H4737793   0.749   6.555   1.244 -1.2915 -1.0124 -0.4013
  234MOL    H4837794   1.030   6.555   1.214  0.2404 -1.0847  1.8073
  234MOL    H4937795   0.950   6.689   1.253 -0.2396 -0.2428  1.1561
  234MOL    C5037796   0.819   6.602   1.050 -0.1941  0.1621 -0.0140
  234MOL    C5137797   0.677   6.589   0.976 -0.3160  0.2272  0.1027
  234MOL    N5237798   0.583   6.632   1.069  0.8683 -0.1688 -0.1230
  234MOL    H5337799   0.825   6.711   1.045 -2.0045  0.2413 -0.7992
  234MOL    H5437800   0.899   6.576   0.980 -2.4300  0.7024 -2.8915
  234MOL    H5537801   0.655   6.484   0.958  0.5068  0.4948 -2.6658
  234MOL    H5637802   0.497   6.619   1.018  0.5920  1.3669 -0.0817
  234MOL    H5737803   0.585   6.732   1.086 -3.1710 -0.1299  0.5978
  234MOL    C5837804   0.677   6.673   0.843  0.5114  0.3892  0.5726
  234MOL    C5937805   0.791   6.639   0.743  0.6315 -0.0280 -0.2752
  234MOL    N6037806   0.742   6.655   0.609  0.4034  0.2320  0.4175
  234MOL    H6137807   0.580   6.666   0.795  2.0857 -0.9078 -2.5632
  234MOL    H6237808   0.697   6.779   0.858  1.1974  0.2266  0.8538
  234MOL    H6337809   0.822   6.536   0.759 -2.6408 -0.7560  1.7718
  234MOL    H6437810   0.813   6.621   0.546  0.1699  1.4620 -0.5370
  234MOL    H6537811   0.673   6.582   0.600  0.8034 -0.1974  0.8332
  234MOL    C6637812   0.918   6.736   0.763  0.3215 -0.1202  0.4263
  234MOL    C6737813   1.055   6.685   0.712 -0.5343 -0.2765 -0.3167
  234MOL    N6837814   1.154   6.795   0.714 -0.5982 -0.4580 -0.2174
  234MOL    H6937815   0.890   6.833   0.721 -2.7610  0.2728  3.2025
  234MOL    H7037816   0.940   6.765   0.865 -0.3475  0.3532  0.4373
  234MOL    H7137817   1.053   6.655   0.608  1.6354 -0.2103 -0.4012
  234MOL    H7237818   1.167   6.800   0.814  0.4114  0.1581 -0.3790
  234MOL    H7337819   1.104   6.879   0.690 -1.8708 -1.0065  0.4401
  234MOL    C7437820   1.112   6.574   0.807  0.7556 -0.7888 -0.2377
  234MOL    C7537821   1.247   6.497   0.767  0.6241 -0.0324 -0.3029
  234MOL    N7637822   1.262   6.391   0.880  0.2837  0.1219 -0.0951
  234MOL    H7737823   1.129   6.618   0.905  0.4631  0.6973 -0.8353
  234MOL    H7837824   1.038   6.496   0.826 -1.4224  1.4342  0.5892
  234MOL    H7937825   1.333   6.563   0.767  0.1216  0.6648  1.5098
  234MOL    H8037826   1.297   6.443   0.959 -0.9813 -0.2531  0.7296
  234MOL    H8137827   1.349   6.343   0.864  1.1302  1.7183 -0.4170
  234MOL    C8237828   1.227   6.413   0.639  0.9200  0.1283 -0.7040
  234MOL    C8337829   1.340   6.330   0.593  0.8080 -0.6570 -0.4118
  234MOL    N8437830   1.321   6.301   0.451  0.1053  0.0304  0.5566
  234MOL    H8537831   1.139   6.354   0.664  2.4094 -1.7374  0.1850
  234MOL    H8637832   1.191   6.487   0.567  1.5726  1.0904 -0.0473
  234MOL    H8737833   1.329   6.232   0.640  1.0136 -0.4508  0.0765
  234MOL    H8837834   1.223   6.280   0.442  0.5253 -1.5038 -0.7389
  234MOL    H8937835   1.326   6.379   0.386 -1.3518 -0.3234 -0.0106
  234MOL    C9037836   1.478   6.398   0.611 -0.3713 -0.2595 -0.5366
  234MOL    C9137837   1.558   6.360   0.735  0.2910 -0.5309 -0.2983
  234MOL    N9237838   1.579   6.217   0.738 -0.1686 -0.0831 -0.0091
  234MOL    H9337839   1.555   6.372   0.539  0.4374  0.6472 -0.0120
  234MOL    H9437840   1.469   6.507   0.606 -4.8348 -0.4380  1.2647
  234MOL    H9537841   1.494   6.382   0.821 -0.0777 -2.2265 -0.1268
  234MOL    H9637842   1.602   6.190   0.643  1.5560 -1.1457  0.7009
  234MOL    H9737843   1.651   6.186   0.800  0.6099  1.7329  0.0107
  234MOL    C9837844   1.706   6.422   0.744  0.7189  0.2843 -0.3483
  234MOL    C9937845   1.702   6.580   0.764  0.7861 -0.2020 -0.6189
  234MOL   N10037846   1.594   6.619   0.859 -0.1158  0.3396 -0.2127
  234MOL   H10137847   1.766   6.367   0.817 -0.4714  0.7321  0.9834
  234MOL   H10237848   1.759   6.408   0.650  0.8925  1.7156 -0.4729
  234MOL   H10337849   1.678   6.642   0.678 -3.0967  0.2773  0.7325
  234MOL   H10437850   1.521   6.656   0.800 -1.6935 -0.2220  1.3294
  234MOL   H10537851   1.638   6.697   0.906 -0.3951 -0.4826  1.4321
  234MOL   C10637852   1.841   6.627   0.811  0.3523 -0.0378  0.1463
  234MOL   C10737853   1.936   6.683   0.708 -0.0006  0.3805 -0.3259
  234MOL   N10837854   2.067   6.718   0.765 -0.0256  0.3407 -0.1276
  234MOL   H10937855   1.824   6.705   0.885 -0.0850 -0.4579  0.4872
  234MOL   H11037856   1.886   6.544   0.865 -1.1439 -0.2232  1.1051
  234MOL   H11137857   1.904   6.784   0.681  2.6916  1.1790 -0.7551
  234MOL   H11237858   2.120   6.789   0.717  0.2937  0.6704  0.6985
  234MOL   H11337859   2.120   6.632   0.762  0.4798  0.6238  0.4780
  234MOL   C11437860   1.965   6.588   0.585 -0.0096  0.4395 -0.1002
  234MOL   C11537861   2.055   6.631   0.468 -0.2836 -0.1022 -0.8528
  234MOL   N11637862   2.110   6.516   0.410  0.5875  0.1782 -0.0977
  234MOL   H11737863   1.998   6.491   0.621 -0.5128 -0.2811 -1.5639
  234MOL   H11837864   1.875   6.556   0.533 -0.1127  0.9368 -0.2337
  234MOL   H11937865   2.139   6.691   0.503 -0.1619 -0.1037 -1.1420
  234MOL   H12037866   2.186   6.543   0.350 -0.4975 -1.6835 -2.3718
  234MOL   H12137867   2.048   6.490   0.335  2.2692  1.8846 -2.1354
  234MOL   C12237868   1.992   6.711   0.359 -0.4593 -0.2557  0.5480
  234MOL   C12337869   2.094   6.822   0.303  0.4583  0.0473 -0.0161
  234MOL   N12437870   2.047   6.853   0.167 -0.0218  0.0779  0.3092
  234MOL   H12537871   1.947   6.649   0.281 -1.1730  3.0506 -1.8076
  234MOL   H12637872   1.904   6.760   0.400 -0.2873  0.0254  0.5818
  234MOL   H12737873   2.186   6.764   0.297  0.4200 -0.0464  0.3030
  234MOL   H12837874   2.130   6.894   0.126 -0.6233 -1.0645 -2.1573
  234MOL   H12937875   2.044   6.765   0.118 -0.9004  1.3974 -2.0959
  234MOL   C13037876   2.114   6.954   0.392 -0.4293 -0.0315  0.1121
  234MOL   C13137877   2.240   7.037   0.332 -0.1817 -0.1979 -0.0432
  234MOL   N13237878   2.228   7.169   0.385  1.1078 -0.0196 -0.6210
  234MOL   H13337879   2.026   7.017   0.383  0.4836  1.3721  0.8044
  234MOL   H13437880   2.117   6.928   0.498 -0.9031  0.6190  0.2889
  234MOL   H13537881   2.220   7.040   0.225 -2.3321 -1.7300  0.2831
  234MOL   H13637882   2.231   7.177   0.486  2.8990  1.6217 -0.7646
  234MOL   H13737883   2.136   7.202   0.360  0.7408  0.2519  1.0065
  234MOL   C13837884   2.376   6.979   0.363  0.4664  0.8521  0.4067
  234MOL   C13937885   2.431   6.881   0.255  0.1951  0.2764  0.2539
  234MOL   N14037886   2.489   6.964   0.154 -0.0504  0.5079  0.5125
  234MOL   H14137887   2.439   7.065   0.383  1.0934  0.2381  1.0732
  234MOL   H14237888   2.361   6.919   0.453 -2.8960 -1.8528 -1.8195
  234MOL   H14337889   2.343   6.825   0.223 -0.3144  0.8031  0.7212
  234MOL   H14437890   2.555   6.904   0.105 -2.2192 -1.0318 -0.5753
  234MOL   H14537891   2.423   6.988   0.081  0.5341 -0.8995 -0.5074
  234MOL   C14637892   2.531   6.775   0.300 -0.1975 -0.2014 -0.0857
  234MOL   C14737893   2.485   6.663   0.393  0.5611  0.4094 -0.4046
  234MOL   N14837894   2.393   6.577   0.316 -1.2173  0.3200 -0.0939
  234MOL   H14937895   2.586   6.729   0.218 -1.2295 -0.4615 -0.6301
  234MOL   H15037896   2.609   6.829   0.355 -0.2664  1.5391 -1.6519
  234MOL   H15137897   2.417   6.696   0.472 -0.1742 -0.0877 -0.8330
  234MOL   H15237898   2.433   6.552   0.226 -0.4578  1.7059 -0.1690
  234MOL   H15337899   2.393   6.491   0.369  2.2466 -1.0916 -2.1565
  234MOL   C15437900   2.594   6.573   0.451 -0.7095  0.0495  0.0083
  234MOL   C15537901   2.714   6.634   0.533 -0.3610 -0.2536  0.3241
  234MOL   N15637902   2.790   6.530   0.598 -0.5724 -0.3173 -0.3119
  234MOL   H15737903   2.544   6.505   0.520  1.0509 -1.1775  0.1097
  234MOL   H15837904   2.638   6.512   0.372 -0.9496  0.2146 -0.2536
  234MOL   H15937905   2.673   6.699   0.610  0.9580 -0.1997  1.0018
  234MOL   H16037906   2.872   6.513   0.542  1.2495 -0.0713  2.2075
  234MOL   H16137907   2.828   6.562   0.686 -0.8858  0.8743 -0.6015
  234MOL   H16237908   2.779   6.706   0.483 -0.2614 -0.7591 -0.2809
  235MOL     C137909   0.692   2.793   6.533  0.2777  0.3029  0.1200
  235MOL     C237910   0.777   2.840   6.414  0.6273  0.2531 -0.1403
  235MOL     N337911   0.795   2.985   6.416 -0.3616  0.0030 -0.0509
  235MOL     H437912   0.696   2.685   6.518 -2.9772  0.2416 -0.7519
  235MOL     H537913   0.586   2.817   6.524  0.1713 -0.3859 -0.6120
  235MOL     H637914   0.717   2.821   6.325  1.8752 -1.2451 -0.7002
  235MOL     H737915   0.843   3.019   6.334 -0.0101 -0.0157  0.1470
  235MOL     H837916   0.706   3.027   6.391 -1.0735  0.0886  2.5246
  235MOL     H937917   0.729   2.802   6.635 -0.4078 -1.9066  0.5911
  235MOL    C1037918   0.917   2.775   6.402 -0.4109  0.5773  0.1597
  235MOL    C1137919   0.952   2.701   6.273  0.3056  0.1672  0.1819
  235MOL    N1237920   1.095   2.658   6.260  0.7106  0.1780 -0.4362
  235MOL    H1337921   1.000   2.846   6.411 -0.3622  0.2456  2.5637
  235MOL    H1437922   0.941   2.712   6.487  0.9205 -1.1426 -1.4599
  235MOL    H1537923   0.947   2.786   6.205 -0.0239  2.2477  2.7328
  235MOL    H1637924   1.151   2.727   6.308 -1.6383  1.3224  0.7544
  235MOL    H1737925   1.118   2.578   6.318  0.1988  1.3691  1.4774
  235MOL    C1837926   0.857   2.579   6.246 -0.5381 -0.5073 -0.0828
  235MOL    C1937927   0.873   2.521   6.107 -0.0322 -0.1084 -0.6147
  235MOL    N2037928   0.807   2.391   6.111  0.1511 -0.5070 -0.5954
  235MOL    H2137929   0.881   2.511   6.327 -0.6544  0.1032  0.4703
  235MOL    H2237930   0.753   2.603   6.270 -0.1598 -0.1770  1.2968
  235MOL    H2337931   0.974   2.485   6.083 -1.0248 -2.6753 -1.0975
  235MOL    H2437932   0.836   2.335   6.191 -3.7085 -2.4787 -0.4593
  235MOL    H2537933   0.838   2.331   6.036 -0.8590 -2.9912  0.9054
  235MOL    C2637934   0.812   2.614   5.993  0.5410  0.4680 -0.4743
  235MOL    C2737935   0.884   2.612   5.857  0.6134 -0.1862  0.2187
  235MOL    N2837936   0.898   2.472   5.816  0.0058  0.3584 -0.0357
  235MOL    H2937937   0.705   2.596   5.983  0.3791  1.9850 -1.7739
  235MOL    H3037938   0.810   2.720   6.021 -1.5420  0.4863 -0.6174
  235MOL    H3137939   0.984   2.653   5.868  1.5017 -1.9419 -1.1495
  235MOL    H3237940   0.966   2.431   5.879 -2.1068 -2.0127  0.7958
  235MOL    H3337941   0.814   2.420   5.838 -0.3983  0.9103 -0.2413
  235MOL    C3437942   0.801   2.693   5.750  0.5191  0.1077 -0.2052
  235MOL    C3537943   0.866   2.676   5.608  0.0601 -1.0914  0.3533
  235MOL    N3637944   0.760   2.681   5.508  0.0362 -0.0215  0.0386
  235MOL    H3737945   0.699   2.655   5.746  0.3787  0.2941  1.3067
  235MOL    H3837946   0.796   2.796   5.785  0.4834 -0.2563  0.8815
  235MOL    H3937947   0.917   2.580   5.597  2.2070 -0.0032  0.4361
  235MOL    H4037948   0.732   2.586   5.490  1.7833 -0.4140 -0.6787
  235MOL    H4137949   0.792   2.714   5.418  1.4560 -0.7335  0.2708
  235MOL    C4237950   0.978   2.772   5.566 -0.6931 -0.0997 -0.0879
  235MOL    C4337951   1.046   2.746   5.425  0.2664 -0.5578  0.2402
  235MOL    N4437952   1.076   2.877   5.378 -0.0582  0.0353 -0.6662
  235MOL    H4537953   0.937   2.873   5.573 -0.1634  0.1059  0.0645
  235MOL    H4637954   1.057   2.764   5.641  1.1337 -1.4473 -2.0923
  235MOL    H4737955   0.972   2.708   5.355 -0.9811  0.8072  0.7856
  235MOL    H4837956   1.130   2.875   5.293 -0.9398  2.8052 -1.3582
  235MOL    H4937957   1.148   2.910   5.441 -0.4284 -0.4621  0.0230
  235MOL    C5037958   1.166   2.655   5.432 -0.1596  0.6787 -0.5561
  235MOL    C5137959   1.201   2.559   5.312 -0.0663  0.0016  0.8005
  235MOL    N5237960   1.332   2.511   5.338 -0.0617 -0.1376  0.0168
  235MOL    H5337961   1.251   2.712   5.469 -0.3487  1.1759 -0.8874
  235MOL    H5437962   1.158   2.597   5.524 -0.5220 -1.2643 -1.7860
  235MOL    H5537963   1.200   2.611   5.216  3.0630 -1.3199 -0.0020
  235MOL    H5637964   1.383   2.594   5.313 -0.3749  0.9877  2.8388
  235MOL    H5737965   1.371   2.439   5.279  0.1723 -2.3785  2.7346
  235MOL    C5837966   1.114   2.430   5.316 -0.1459 -0.5037  0.1048
  235MOL    C5937967   0.984   2.431   5.225  0.0310  0.9648  0.5341
  235MOL    N6037968   1.023   2.424   5.083 -0.8078 -0.1348 -0.0747
  235MOL    H6137969   1.175   2.341   5.297  0.1398 -0.3416  0.2632
  235MOL    H6237970   1.096   2.408   5.421 -1.8284 -0.1840 -0.1083
  235MOL    H6337971   0.923   2.520   5.237  0.4417  1.6117 -1.9077
  235MOL    H6437972   1.020   2.330   5.047  0.1872  0.1748 -0.9864
  235MOL    H6537973   0.955   2.471   5.025  0.2095  0.9300 -0.4364
  235MOL    C6637974   0.901   2.306   5.256  0.1778 -0.2339 -0.6388
  235MOL    C6737975   0.829   2.300   5.403  0.2318 -0.1541 -0.1530
  235MOL    N6837976   0.724   2.401   5.414  0.0145  0.0191  0.1101
  235MOL    H6937977   0.815   2.310   5.189 -1.8153 -0.8704  1.7950
  235MOL    H7037978   0.951   2.212   5.233 -1.9553 -1.2851 -1.0621
  235MOL    H7137979   0.919   2.315   5.462 -0.4800  1.8824  0.4494
  235MOL    H7237980   0.668   2.405   5.330  1.3092 -0.3475 -0.7878
  235MOL    H7337981   0.668   2.372   5.493  2.4860  0.3610  2.0525
  235MOL    C7437982   0.770   2.160   5.419 -0.3212 -0.4853  0.1082
  235MOL    C7537983   0.875   2.052   5.462 -0.0387  0.2412  0.1738
  235MOL    N7637984   0.912   2.069   5.605  0.0891  0.1697 -1.4341
  235MOL    H7737985   0.692   2.171   5.494 -1.8371 -3.0834 -1.0106
  235MOL    H7837986   0.721   2.137   5.324  0.6136  4.6450 -1.8044
  235MOL    H7937987   0.965   2.064   5.402  0.3125 -1.1946  0.4139
  235MOL    H8037988   0.834   2.112   5.653  2.1325  2.4474 -0.0543
  235MOL    H8137989   0.988   2.134   5.610  0.7676 -0.4162 -3.7439
  235MOL    C8237990   0.820   1.908   5.445 -0.6053 -0.5739  0.7957
  235MOL    C8337991   0.804   1.871   5.292 -0.0939 -0.1249 -0.2609
  235MOL    N8437992   0.932   1.821   5.235 -0.1032 -0.1774  0.3721
  235MOL    H8537993   0.882   1.839   5.503  0.1985 -0.3684  0.1906
  235MOL    H8637994   0.722   1.920   5.490 -0.0040  1.4707  1.6095
  235MOL    H8737995   0.777   1.960   5.236 -0.4978 -0.2104 -0.1999
  235MOL    H8837996   0.951   1.826   5.136  1.7093 -0.3803  0.7054
  235MOL    H8937997   1.001   1.884   5.271 -0.3854 -0.2138  0.9782
  235MOL    C9037998   0.703   1.756   5.275  0.0810  0.5161  0.3090
  235MOL    C9137999   0.654   1.761   5.130 -0.2594 -0.0244  0.4732
  235MOL    N9238000   0.713   1.662   5.045 -0.1490  0.4415  0.4074
  235MOL    H9338001   0.739   1.657   5.304 -0.9579  0.3920  1.2125
  235MOL    H9438002   0.612   1.773   5.332  0.5450  1.3903  0.7939
  235MOL    H9538003   0.682   1.847   5.069 -0.6887  0.1165  0.4746
  235MOL    H9638004   0.810   1.662   5.071 -0.4631  0.6911  1.6238
  235MOL    H9738005   0.673   1.571   5.066  2.3823 -0.3089  2.1849
  235MOL    C9838006   0.505   1.744   5.128  1.0613  0.3934  0.2550
  235MOL    C9938007   0.419   1.866   5.167  0.2384 -0.4435 -0.6651
  235MOL   N10038008   0.435   1.971   5.069 -0.7348  0.2743  0.4246
  235MOL   H10138009   0.477   1.720   5.025  1.7917 -0.2801  0.2121
  235MOL   H10238010   0.472   1.657   5.185  1.3900  1.0871  1.5244
  235MOL   H10338011   0.469   1.921   5.247  1.1257  2.0960 -2.9143
  235MOL   H10438012   0.535   1.988   5.064 -0.1893 -2.4177  1.4739
  235MOL   H10538013   0.402   2.058   5.110  0.5298  1.2738 -0.6085
  235MOL   C10638014   0.268   1.840   5.186  0.3634 -1.1340 -0.5725
  235MOL   C10738015   0.224   1.811   5.343 -0.4507  0.2229  0.0684
  235MOL   N10838016   0.087   1.852   5.372  0.0142  0.8899  0.8492
  235MOL   H10938017   0.222   1.927   5.138 -0.4050 -1.9375 -1.3089
  235MOL   H11038018   0.245   1.760   5.115  0.5473 -2.5668  0.9610
  235MOL   H11138019   0.281   1.860   5.422  0.7556 -2.0615  0.6544
  235MOL   H11238020   0.022   1.802   5.314  1.4580 -0.3947  0.2925
  235MOL   H11338021   0.080   1.823   5.469  0.4012  1.7774  1.1454
  235MOL   C11438022   0.240   1.662   5.371 -0.8320 -0.4103 -0.6423
  235MOL   C11538023   0.242   1.618   5.516 -0.5578 -0.7411  0.2706
  235MOL   N11638024   0.230   1.471   5.503 -0.1349 -0.1221  0.4857
  235MOL   H11738025   0.170   1.604   5.311 -1.7585 -0.1255  0.1346
  235MOL   H11838026   0.342   1.637   5.343 -0.2501  0.0834  0.9702
  235MOL   H11938027   0.149   1.636   5.568 -1.3522 -0.2845 -1.2691
  235MOL   H12038028   0.141   1.431   5.477 -0.2711  0.9939 -0.8366
  235MOL   H12138029   0.250   1.425   5.591 -0.6040 -2.4100 -0.5487
  235MOL   C12238030   0.365   1.667   5.595 -0.7225 -0.3387  0.2517
  235MOL   C12338031   0.379   1.634   5.750 -0.2603  0.7248 -0.2042
  235MOL   N12438032   0.507   1.681   5.787  0.1394  0.0412  0.5254
  235MOL   H12538033   0.458   1.642   5.543 -0.5067 -0.4218  0.6710
  235MOL   H12638034   0.366   1.774   5.576 -1.7033 -0.5454 -0.9771
  235MOL   H12738035   0.384   1.525   5.762 -0.9168  0.8178  0.9455
  235MOL   H12838036   0.563   1.599   5.770  0.7451  0.6985 -0.7457
  235MOL   H12938037   0.526   1.691   5.886  0.2861 -0.1046  0.5128
  235MOL   C13038038   0.266   1.703   5.838  0.2984 -0.4371 -0.0400
  235MOL   C13138039   0.268   1.667   5.991  0.4337  0.6827  0.3270
  235MOL   N13238040   0.153   1.739   6.040  0.7971 -0.0604 -0.1860
  235MOL   H13338041   0.286   1.810   5.828  0.3645 -0.3101  1.3388
  235MOL   H13438042   0.178   1.668   5.784  1.2164 -3.4721  0.3656
  235MOL   H13538043   0.363   1.706   6.028  0.6085  0.9138 -0.3665
  235MOL   H13638044   0.160   1.839   6.053 -1.0475 -0.1044  1.3645
  235MOL   H13738045   0.137   1.703   6.133  0.5304  0.4458 -0.0346
  235MOL   C13838046   0.244   1.515   6.028  0.3324 -0.2256 -0.0253
  235MOL   C13938047   0.217   1.483   6.176  1.2099  0.4194  0.3924
  235MOL   N14038048   0.177   1.343   6.189  0.1574  0.4749 -0.0803
  235MOL   H14138049   0.160   1.490   5.963 -0.3380  1.6072  0.0960
  235MOL   H14238050   0.333   1.457   6.004 -0.0067 -1.0769  0.7594
  235MOL   H14338051   0.134   1.539   6.221  1.2599 -0.0751  1.1070
  235MOL   H14438052   0.087   1.329   6.146 -0.3961  0.4250  1.0650
  235MOL   H14538053   0.251   1.287   6.150  1.1166  2.2751 -0.9171
  235MOL   C14638054   0.345   1.507   6.268 -0.2094 -0.1848  0.1224
  235MOL   C14738055   0.319   1.513   6.426  0.7634  0.0838 -0.0153
  235MOL   N14838056   0.451   1.500   6.494  0.3591  0.2002  0.4148
  235MOL   H14938057   0.417   1.430   6.240  0.4842  0.2055  0.8100
  235MOL   H15038058   0.394   1.603   6.248 -1.2570  0.4155  0.3811
  235MOL   H15138059   0.263   1.420   6.440  0.0838  0.5930  0.7371
  235MOL   H15238060   0.458   1.413   6.545 -2.5756 -0.5337 -0.3799
  235MOL   H15338061   0.532   1.503   6.433 -0.4184  1.4443 -0.5871
  235MOL   C15438062   0.258   1.641   6.475 -0.2095 -0.0955 -0.0834
  235MOL   C15538063   0.173   1.632   6.601  0.5130  0.4219 -0.1425
  235MOL   N15638064   0.099   1.758   6.613  0.5744 -0.0447  0.3659
  235MOL   H15738065   0.331   1.722   6.478 -0.1393 -0.1161 -1.0202
  235MOL   H15838066   0.183   1.665   6.400  0.5538 -1.6997 -1.3901
  235MOL   H15938067   0.240   1.625   6.686  1.0567  0.9397 -0.5204
  235MOL   H16038068   0.168   1.832   6.608  1.8420 -1.3769 -2.3529
  235MOL   H16138069   0.073   1.761   6.711  0.1163 -0.6869  0.2657
  235MOL   H16238070   0.111   1.543   6.594 -1.3622  1.6045  0.8331
  236MOL     C138071   2.382   0.593   3.525 -0.7235 -0.1436 -0.3143
  236MOL     C238072   2.296   0.478   3.479  0.2328 -0.1488 -0.2964
  236MOL     N338073   2.248   0.511   3.350 -0.6019 -0.1243  0.2772
  236MOL     H438074   2.344   0.693   3.544 -0.3851 -0.1918  0.7043
  236MOL     H538075   2.460   0.628   3.457  0.2613 -0.3603  0.6674
  236MOL     H638076   2.212   0.486   3.547  0.2025 -1.5457 -0.1533
  236MOL     H738077   2.175   0.577   3.370 -0.9842 -0.3895 -0.2503
  236MOL     H838078   2.202   0.434   3.304  0.0461  1.9596 -4.2370
  236MOL     H938079   2.428   0.572   3.622 -2.2991 -0.7915  0.3028
  236MOL    C1038080   2.350   0.339   3.472 -0.4774  0.3109  0.4595
  236MOL    C1138081   2.360   0.280   3.606  0.2345 -0.0186 -0.6925
  236MOL    N1238082   2.228   0.268   3.674 -0.3833  0.3374  0.0572
  236MOL    H1338083   2.286   0.277   3.409  2.4672 -0.8846 -1.4446
  236MOL    H1438084   2.446   0.329   3.421 -1.0336 -0.9247 -0.3810
  236MOL    H1538085   2.420   0.356   3.657  1.4735 -0.6401 -1.2056
  236MOL    H1638086   2.161   0.216   3.618 -0.0663  0.1991 -0.1928
  236MOL    H1738087   2.192   0.358   3.704  0.8998  0.1470  2.2531
  236MOL    C1838088   2.440   0.148   3.616 -0.2396 -0.0115 -0.0690
  236MOL    C1938089   2.483   0.096   3.755 -0.2314  0.4704  0.2141
  236MOL    N2038090   2.513   7.228   3.742 -0.5501  0.0949  0.1530
  236MOL    H2138091   2.372   0.074   3.574  0.1976 -1.3660  1.5554
  236MOL    H2238092   2.523   0.141   3.545  1.0530 -1.4115  1.5100
  236MOL    H2338093   2.398   0.093   3.822  0.9913 -0.6190  1.7581
  236MOL    H2438094   2.582   7.218   3.669 -1.0498 -1.5348 -0.1002
  236MOL    H2538095   2.553   7.193   3.828 -0.1922 -0.0306 -0.0630
  236MOL    C2638096   2.613   0.166   3.802  0.3057 -0.0077  0.0772
  236MOL    C2738097   2.580   0.289   3.881  0.1930  0.5199  0.9062
  236MOL    N2838098   2.610   0.256   4.022 -0.2219  0.6810  0.0353
  236MOL    H2938099   2.664   0.099   3.871  0.1448  1.9988  2.1874
  236MOL    H3038100   2.673   0.194   3.716 -1.3755  1.4674 -0.6422
  236MOL    H3138101   2.475   0.314   3.870  0.5527  1.8160  0.4337
  236MOL    H3238102   2.551   0.285   4.099 -0.7220 -0.5992  0.1608
  236MOL    H3338103   2.596   0.156   4.014 -1.1733  0.6333  1.9100
  236MOL    C3438104   2.669   0.407   3.838 -0.2907  0.6667 -1.5683
  236MOL    C3538105   2.643   0.534   3.924 -0.3650 -0.3780 -0.5926
  236MOL    N3638106   2.767   0.619   3.914 -0.3764 -0.6404  0.6772
  236MOL    H3738107   2.767   0.366   3.864 -1.1791 -0.2880  0.4159
  236MOL    H3838108   2.656   0.431   3.733 -3.5716 -0.6307 -1.5155
  236MOL    H3938109   2.633   0.507   4.029  1.3344 -0.2284 -0.3908
  236MOL    H4038110   2.853   0.567   3.908  0.2636  0.4857 -0.1842
  236MOL    H4138111   2.764   0.652   3.818  1.8799 -1.1191  0.4188
  236MOL    C4238112   2.520   0.614   3.883  0.1256 -0.2925 -0.2353
  236MOL    C4338113   2.487   0.736   3.972 -0.1904 -0.0687  0.1148
  236MOL    N4438114   2.385   0.824   3.914 -0.2460  0.1862  0.3918
  236MOL    H4538115   2.531   0.641   3.778 -2.6373  0.5500 -0.3528
  236MOL    H4638116   2.426   0.559   3.894  0.6531 -1.0237  0.6497
  236MOL    H4738117   2.578   0.796   3.980 -0.7992  0.7601  0.9932
  236MOL    H4838118   2.393   0.840   3.815  0.2478  0.9477  0.5499
  236MOL    H4938119   2.386   0.912   3.965 -2.3340  0.4821 -0.0443
  236MOL    C5038120   2.434   0.703   4.120 -0.6213  0.2611 -0.3067
  236MOL    C5138121   2.416   0.823   4.218  0.3321  0.2506  0.0776
  236MOL    N5238122   2.386   0.765   4.346 -0.2501  0.0072  0.0494
  236MOL    H5338123   2.333   0.664   4.110 -0.1747 -1.0444  0.1568
  236MOL    H5438124   2.501   0.631   4.165 -0.1973 -0.1832 -1.6205
  236MOL    H5538125   2.331   0.879   4.181  0.8376  0.8379 -0.2034
  236MOL    H5638126   2.334   0.828   4.404  0.2494 -0.3639  0.9007
  236MOL    H5738127   2.317   0.691   4.339 -1.2567  0.9140  0.3179
  236MOL    C5838128   2.539   0.913   4.235 -0.7599 -0.2865 -0.4054
  236MOL    C5938129   2.549   1.028   4.129  0.1355 -0.0610 -0.0676
  236MOL    N6038130   2.456   1.131   4.169  0.0640  0.0930 -0.6947
  236MOL    H6138131   2.531   0.953   4.336 -1.0841 -0.1104 -0.4998
  236MOL    H6238132   2.634   0.861   4.249 -1.4470 -1.4225  0.1701
  236MOL    H6338133   2.527   1.000   4.026  0.4868  0.9916 -0.4319
  236MOL    H6438134   2.496   1.205   4.225 -2.3192  1.8905 -1.2628
  236MOL    H6538135   2.385   1.093   4.230 -0.9014  1.8282 -0.6831
  236MOL    C6638136   2.690   1.085   4.114 -0.3293  0.5959  0.4450
  236MOL    C6738137   2.710   1.214   4.023 -0.9037 -0.5503 -0.0613
  236MOL    N6838138   2.830   1.287   4.073 -0.0650  0.2942 -0.4601
  236MOL    H6938139   2.716   1.110   4.217  1.8495 -1.0610  0.3279
  236MOL    H7038140   2.750   0.998   4.088 -2.5542 -0.1336 -2.4835
  236MOL    H7138141   2.622   1.277   4.036 -1.4561 -0.9895 -1.6536
  236MOL    H7238142   2.913   1.268   4.018 -1.5194 -0.5383 -2.4448
  236MOL    H7338143   2.806   1.385   4.073  1.0239  0.5640  0.3320
  236MOL    C7438144   2.741   1.188   3.874  0.5525  0.8165 -0.0836
  236MOL    C7538145   2.628   1.110   3.807  0.1847 -0.1043 -0.2881
  236MOL    N7638146   2.495   1.169   3.829  0.4277  0.2054  0.0212
  236MOL    H7738147   2.739   1.289   3.835  1.1638 -0.3004 -3.1440
  236MOL    H7838148   2.838   1.144   3.852  0.7494  0.8260  0.7281
  236MOL    H7938149   2.624   1.009   3.849  0.5149  0.7893  1.9918
  236MOL    H8038150   2.491   1.186   3.928 -1.8731  2.2143 -0.3513
  236MOL    H8138151   2.483   1.263   3.794 -1.1796  0.2557  0.6891
  236MOL    C8238152   2.643   1.093   3.652  0.1877 -0.0825  0.7434
  236MOL    C8338153   2.551   0.974   3.610 -0.0238 -0.1373 -0.4375
  236MOL    N8438154   2.408   1.001   3.620  0.3691  0.0139 -0.4299
  236MOL    H8538155   2.616   1.168   3.578 -1.7384 -1.9080 -0.4712
  236MOL    H8638156   2.743   1.052   3.640 -0.5910 -1.8874  0.3134
  236MOL    H8738157   2.565   0.888   3.675 -0.0053  0.3084  0.1553
  236MOL    H8838158   2.407   1.044   3.711  0.0763 -0.3970 -0.2355
  236MOL    H8938159   2.383   1.079   3.561  1.3530  0.9788  0.4272
  236MOL    C9038160   2.582   0.929   3.460  0.7832 -0.1963 -0.5470
  236MOL    C9138161   2.676   0.798   3.450  0.6999 -0.5012 -0.2184
  236MOL    N9238162   2.662   0.744   3.319  0.4125  0.3421  0.2164
  236MOL    H9338163   2.491   0.900   3.408  0.2079  0.5282  0.0314
  236MOL    H9438164   2.614   1.014   3.400 -1.0833  0.7261 -0.2734
  236MOL    H9538165   2.626   0.720   3.508 -2.6173  0.1969 -1.9797
  236MOL    H9638166   2.569   0.736   3.283  1.3803 -0.7528 -2.1111
  236MOL    H9738167   2.690   0.647   3.331 -1.0972 -0.0102  1.0516
  236MOL    C9838168   2.831   0.821   3.481  0.5921  0.1074  0.0278
  236MOL    C9938169   2.875   0.799   3.628  0.3995 -0.5428  0.8715
  236MOL   N10038170   2.842   0.658   3.660 -0.8073  0.2376  0.3188
  236MOL   H10138171   2.902   0.760   3.426  0.7126 -0.3503  0.6796
  236MOL   H10238172   2.859   0.924   3.465 -0.0735  0.6467  2.1015
  236MOL   H10338173   2.817   0.856   3.701 -1.6915  0.3430 -1.3841
  236MOL   H10438174   2.758   0.630   3.612 -0.1379 -1.7346  0.2330
  236MOL   H10538175   2.917   0.596   3.634 -0.8543  0.8168 -1.2313
  236MOL   C10638176   3.027   0.822   3.645 -0.8684 -0.2624  0.0343
  236MOL   C10738177   3.064   0.968   3.667 -1.2825 -0.4402  0.0996
  236MOL   N10838178   3.056   0.987   3.808  0.7424 -0.1533 -0.3434
  236MOL   H10938179   3.072   0.763   3.725  0.6807  0.8169 -0.0241
  236MOL   H11038180   3.076   0.785   3.555 -0.0913  0.1034  0.3063
  236MOL   H11138181   3.007   1.042   3.611 -2.0575  0.2041  1.7173
  236MOL   H11238182   3.133   0.939   3.852 -1.0152 -0.7327  2.2117
  236MOL   H11338183   2.966   0.946   3.831  1.2644 -0.6092  0.9258
  236MOL   C11438184   3.214   1.008   3.641  0.0475  0.2241 -0.5565
  236MOL   C11538185   3.225   1.071   3.502  0.9703 -0.1857 -0.0226
  236MOL   N11638186   3.358   1.137   3.499  0.0586  0.0960  0.3689
  236MOL   H11738187   3.239   1.082   3.716 -0.0028 -1.1396  0.8310
  236MOL   H11838188   3.288   0.929   3.653 -0.1571 -0.1516 -1.7460
  236MOL   H11938189   3.154   1.153   3.497  0.3654 -0.6628  0.6731
  236MOL   H12038190   3.362   1.208   3.427  0.3487  0.9340  1.1905
  236MOL   H12138191   3.432   1.078   3.466  0.0834  0.6463 -0.5790
  236MOL   C12238192   3.212   0.976   3.387  1.0069  0.9165  0.6529
  236MOL   C12338193   3.219   1.050   3.250  0.2947 -0.4107 -0.4254
  236MOL   N12438194   3.211   0.947   3.140 -0.0079  0.0040 -1.3037
  236MOL   H12538195   3.286   0.897   3.395  0.2067 -0.2297 -2.3840
  236MOL   H12638196   3.115   0.925   3.393  0.9479  0.8967 -0.3580
  236MOL   H12738197   3.306   1.116   3.247 -1.0405  1.4048 -0.0907
  236MOL   H12838198   3.304   0.911   3.155  0.7844  2.5742  0.1348
  236MOL   H12938199   3.155   0.868   3.169 -0.1679  1.2627  2.0301
  236MOL   C13038200   3.095   1.142   3.231 -0.0762 -0.3485  0.9048
  236MOL   C13138201   3.111   1.254   3.126  0.1802 -0.4528 -0.5179
  236MOL   N13238202   3.127   1.188   2.997  0.1107 -0.1318 -0.0992
  236MOL   H13338203   3.012   1.077   3.204  0.1858  0.2390 -1.4469
  236MOL   H13438204   3.072   1.193   3.325  0.7201  1.8912 -0.0773
  236MOL   H13538205   3.202   1.304   3.159 -1.0968  1.0865  0.7449
  236MOL   H13638206   3.189   1.109   3.002 -1.0107 -1.0883 -0.8254
  236MOL   H13738207   3.036   1.149   2.974  0.6684 -1.6313  0.2222
  236MOL   C13838208   2.998   1.360   3.120 -0.4515 -0.0907  0.2851
  236MOL   C13938209   2.997   1.437   3.253 -0.1966  0.0068  0.3165
  236MOL   N14038210   2.989   1.584   3.212  0.2861  0.0884 -0.2103
  236MOL   H14138211   3.010   1.421   3.031  0.8909 -0.2899  0.3102
  236MOL   H14238212   2.908   1.301   3.102  0.0953 -0.2919 -1.9489
  236MOL   H14338213   3.088   1.412   3.308  0.2716  1.8450  0.4305
  236MOL   H14438214   3.076   1.619   3.175 -0.5785  1.4973 -0.9743
  236MOL   H14538215   2.962   1.649   3.286 -0.4757 -1.4722  0.9130
  236MOL   C14638216   2.874   1.411   3.348  0.3856  0.4343 -0.5038
  236MOL   C14738217   2.884   1.445   3.498 -0.0668  1.3218 -0.4668
  236MOL   N14838218   2.751   1.440   3.557 -0.0612 -0.4261  0.7072
  236MOL   H14938219   2.789   1.464   3.305  0.8569  2.1171  0.5798
  236MOL   H15038220   2.852   1.305   3.338  0.4727  0.1859  1.6537
  236MOL   H15138221   2.917   1.549   3.498 -1.6292  1.8315 -0.4761
  236MOL   H15238222   2.727   1.345   3.585  2.0675 -1.3696 -0.5553
  236MOL   H15338223   2.755   1.503   3.636 -0.7701  1.0947 -0.4535
  236MOL   C15438224   2.993   1.351   3.563  0.2928 -0.3336 -0.2622
  236MOL   C15538225   3.019   1.398   3.710 -0.1538 -0.2227  0.5236
  236MOL   N15638226   3.129   1.327   3.771 -0.2644  0.9023  0.1644
  236MOL   H15738227   2.970   1.245   3.573  2.2903 -0.8839 -1.2652
  236MOL   H15838228   3.091   1.363   3.517  0.9543 -1.1984  0.8790
  236MOL   H15938229   2.934   1.378   3.775 -0.9671 -1.6505 -0.9325
  236MOL   H16038230   3.112   1.228   3.781  2.2062  0.5299  0.9890
  236MOL   H16138231   3.216   1.330   3.719 -0.6418 -1.8169 -0.7304
  236MOL   H16238232   3.041   1.504   3.714 -0.5487 -0.0746 -0.8764
  237MOL     C138233   4.876   7.166   0.812 -0.1300  0.3985 -0.2811
  237MOL     C238234   4.915   7.239   0.939  0.1667  0.6075  0.7418
  237MOL     N338235   4.858   7.167   1.055  0.4666 -0.8818 -0.2434
  237MOL     H438236   4.916   7.065   0.803 -0.8174 -0.0043  1.0013
  237MOL     H538237   4.893   7.217   0.718 -0.3208  1.2085  0.1246
  237MOL     H638238   4.871   0.063   0.951 -2.3224  0.1208 -3.2418
  237MOL     H738239   4.759   7.146   1.049 -0.3204  1.3863  3.5713
  237MOL     H838240   4.906   7.079   1.067  1.3880 -0.1446  1.5592
  237MOL     H938241   4.767   7.163   0.807 -0.2666  0.4198  1.9291
  237MOL    C1038242   5.067   7.251   0.949  0.1038  0.3219  0.1519
  237MOL    C1138243   5.108   0.089   1.048 -0.2482  0.2738  0.0913
  237MOL    N1238244   5.112   0.027   1.179 -0.9142 -0.4429  0.4937
  237MOL    H1338245   5.115   7.158   0.980  0.6682  0.8162  0.7700
  237MOL    H1438246   5.116   0.000   0.854 -0.1164  2.6987  0.6319
  237MOL    H1538247   5.032   0.167   1.054 -0.8558 -0.2506 -0.9230
  237MOL    H1638248   5.110   0.105   1.243 -0.4882 -0.9665  1.1543
  237MOL    H1738249   5.032   7.242   1.193  0.3035 -2.1067  0.4456
  237MOL    C1838250   5.236   0.158   1.010  0.2723 -0.6885 -0.4729
  237MOL    C1938251   5.203   0.297   0.955  0.4468 -0.5318  0.5809
  237MOL    N2038252   5.323   0.379   0.970 -0.3729  0.4834 -0.3927
  237MOL    H2138253   5.309   0.165   1.091  1.4930  0.4647 -1.6512
  237MOL    H2238254   5.287   0.099   0.934  1.3283  0.7837 -0.9140
  237MOL    H2338255   5.129   0.342   1.021 -2.4386 -0.5733 -2.5081
  237MOL    H2438256   5.327   0.454   0.902 -0.3557  1.2314  0.4178
  237MOL    H2538257   5.402   0.322   0.942 -1.0170 -0.4508 -0.3194
  237MOL    C2638258   5.151   0.303   0.812  0.4674 -0.8967  0.1946
  237MOL    C2738259   5.111   0.442   0.757 -0.1166 -0.1550 -0.0307
  237MOL    N2838260   5.075   0.419   0.618  0.1875  0.7095  0.2203
  237MOL    H2938261   5.239   0.280   0.752  3.5546  0.2444  4.0428
  237MOL    H3038262   5.075   0.228   0.790  0.3290 -0.8840  0.6354
  237MOL    H3138263   5.199   0.505   0.770 -2.1399  2.4552  1.6585
  237MOL    H3238264   5.092   0.509   0.575  0.8226  1.1605  1.4013
  237MOL    H3338265   5.143   0.354   0.582  1.4563 -0.0574  3.7825
  237MOL    C3438266   4.980   0.497   0.815 -0.4682  0.5341  0.8151
  237MOL    C3538267   5.002   0.635   0.886  0.1745  0.4057  0.5097
  237MOL    N3638268   5.095   0.631   0.999 -0.5717  0.2276  0.0117
  237MOL    H3738269   4.899   0.500   0.741  1.6715 -2.3316 -1.7948
  237MOL    H3838270   4.945   0.416   0.879  0.0252  0.7191  1.3168
  237MOL    H3938271   4.911   0.662   0.939 -1.8551 -1.9258 -1.6274
  237MOL    H4038272   5.038   0.635   1.082  2.4780 -0.3587  2.2216
  237MOL    H4138273   5.160   0.554   1.003 -0.5672  0.2265 -0.0708
  237MOL    C4238274   5.038   0.752   0.791  0.7818 -0.2407 -0.1667
  237MOL    C4338275   4.937   0.792   0.682  0.2651  0.3136  0.4215
  237MOL    N4438276   4.860   0.906   0.730 -0.4248  0.1122  0.0280
  237MOL    H4538277   5.059   0.837   0.856 -0.1903  1.1037 -1.5738
  237MOL    H4638278   5.141   0.735   0.760  1.3252  1.5367  0.6043
  237MOL    H4738279   4.860   0.715   0.671  0.6077  0.1525 -0.9676
  237MOL    H4838280   4.909   0.944   0.809  0.8862 -0.2106 -0.6098
  237MOL    H4938281   4.777   0.866   0.771 -0.9041  0.9336 -0.1240
  237MOL    C5038282   5.002   0.806   0.547 -0.5446  0.5343 -0.0375
  237MOL    C5138283   4.920   0.743   0.437  0.0948  0.1687  0.7222
  237MOL    N5238284   4.801   0.818   0.398 -0.8048  0.1830 -0.0102
  237MOL    H5338285   5.022   0.912   0.528  1.5166 -0.3134 -2.8421
  237MOL    H5438286   5.102   0.765   0.544 -0.3850  0.6643  2.2108
  237MOL    H5538287   4.884   0.648   0.475 -0.2061  0.6195  1.5785
  237MOL    H5638288   4.834   0.902   0.352 -0.8617  0.2227  0.0208
  237MOL    H5738289   4.787   0.860   0.489 -1.8709  0.8509 -0.4753
  237MOL    C5838290   4.999   0.723   0.298  0.4966 -0.4785 -0.0189
  237MOL    C5938291   5.124   0.630   0.299  1.2901 -0.3300 -0.4470
  237MOL    N6038292   5.136   0.549   0.177 -0.0882  0.4428 -0.6664
  237MOL    H6138293   4.926   0.698   0.220  0.4744  0.4318 -0.3019
  237MOL    H6238294   5.034   0.821   0.266  1.5190 -0.1022  2.1779
  237MOL    H6338295   5.119   0.562   0.385 -0.9213 -1.7236 -1.6241
  237MOL    H6438296   5.080   0.466   0.187  0.5199 -0.1219 -1.8266
  237MOL    H6538297   5.230   0.513   0.178  0.0814  0.6954 -3.0962
  237MOL    C6638298   5.260   0.703   0.308  0.4654 -0.3786  0.1876
  237MOL    C6738299   5.383   0.628   0.366 -0.3324  0.3991 -0.2727
  237MOL    N6838300   5.510   0.681   0.330 -0.1818 -0.0510 -0.1000
  237MOL    H6938301   5.277   0.749   0.210 -1.8009  0.7476  0.2902
  237MOL    H7038302   5.244   0.796   0.363  1.6191 -0.1305  0.1040
  237MOL    H7138303   5.378   0.527   0.327 -3.9895  0.1908  0.5070
  237MOL    H7238304   5.568   0.599   0.322 -1.9077 -1.1968 -1.2088
  237MOL    H7338305   5.512   0.719   0.236  1.4218  1.7604  0.6323
  237MOL    C7438306   5.375   0.626   0.524  1.6203  0.1846  0.4215
  237MOL    C7538307   5.494   0.567   0.607  0.3141 -0.3055 -0.8231
  237MOL    N7638308   5.487   0.620   0.744 -0.2002 -0.2612 -0.4545
  237MOL    H7738309   5.353   0.729   0.554  0.7988  0.0647  0.2150
  237MOL    H7838310   5.279   0.579   0.544  0.4470  2.0366 -0.7709
  237MOL    H7938311   5.589   0.606   0.571  0.3085  1.5066  1.0268
  237MOL    H8038312   5.580   0.600   0.777 -1.0671 -2.1383  0.8871
  237MOL    H8138313   5.499   0.720   0.730 -1.5332  0.1820  1.4557
  237MOL    C8238314   5.499   0.418   0.621 -0.6423  0.3042  0.0117
  237MOL    C8338315   5.558   0.347   0.493  0.7023 -0.0981 -1.1374
  237MOL    N8438316   5.703   0.369   0.487 -0.1592 -0.1702  0.2352
  237MOL    H8538317   5.569   0.396   0.702  0.0718  3.2859  0.2683
  237MOL    H8638318   5.398   0.383   0.642 -0.2979 -1.4217 -1.1370
  237MOL    H8738319   5.520   0.385   0.398 -0.2723 -0.5403 -0.9336
  237MOL    H8838320   5.744   0.341   0.398  5.1996  3.4844  1.3022
  237MOL    H8938321   5.722   0.468   0.490 -0.0323 -0.1902  0.0925
  237MOL    C9038322   5.540   0.199   0.499  0.2761 -0.3366  0.0883
  237MOL    C9138323   5.420   0.136   0.422 -0.5184 -0.5374 -0.7035
  237MOL    N9238324   5.441   7.270   0.406 -0.5557  0.2165  0.0091
  237MOL    H9338325   5.620   0.163   0.434  0.2588 -0.6750  0.2506
  237MOL    H9438326   5.555   0.160   0.600 -0.7678 -1.4794 -0.1849
  237MOL    H9538327   5.422   0.181   0.323  2.9411  1.7582  0.3201
  237MOL    H9638328   5.492   7.241   0.324  0.4964  3.0846 -0.4156
  237MOL    H9738329   5.350   7.230   0.392 -0.0435 -0.5261 -1.2317
  237MOL    C9838330   5.277   0.167   0.484  0.6185  0.0646 -0.1952
  237MOL    C9938331   5.154   0.113   0.405 -0.0800  0.4836 -0.2992
  237MOL   N10038332   5.031   0.111   0.488 -0.0943  0.4641 -0.4321
  237MOL   H10138333   5.279   0.125   0.584 -1.3284  0.0159 -0.1594
  237MOL   H10238334   5.252   0.272   0.499 -3.0603 -0.6103 -1.0250
  237MOL   H10338335   5.165   0.009   0.373 -0.6420  0.2294  0.3011
  237MOL   H10438336   4.953   0.100   0.425 -1.0113  0.4330  0.6987
  237MOL   H10538337   5.008   0.198   0.533 -1.9127 -0.5632  0.7033
  237MOL   C10638338   5.119   0.190   0.279  0.3622 -1.1778  0.1226
  237MOL   C10738339   5.050   0.111   0.161 -0.1774  0.6505 -0.6294
  237MOL   N10838340   5.009   0.207   0.068  0.7003 -0.1595  0.0826
  237MOL   H10938341   5.051   0.272   0.302 -2.1173 -2.6801 -1.5649
  237MOL   H11038342   5.201   0.250   0.241 -0.8090  1.7665  2.0649
  237MOL   H11138343   4.964   0.053   0.194  1.2031 -2.3386 -1.9853
  237MOL   H11238344   4.939   0.156   0.016 -0.7643  0.8851  1.0098
  237MOL   H11338345   4.969   0.274   0.132 -0.6046  0.4976 -1.3830
  237MOL   C11438346   5.144   7.269   0.109 -0.1856 -0.1509 -0.7526
  237MOL   C11538347   5.067   7.151   0.051  0.3516  0.0410  0.2169
  237MOL   N11638348   5.166   7.063   7.266  0.1492 -0.0416 -0.1670
  237MOL   H11738349   5.209   0.035   0.032  1.3064  1.2821  1.2336
  237MOL   H11838350   5.214   7.241   0.187 -1.1068 -0.0505  0.1151
  237MOL   H11938351   5.001   7.185   7.247  3.1733  2.5089 -1.1596
  237MOL   H12038352   5.211   7.000   0.055  0.0395  0.0207 -0.0283
  237MOL   H12138353   5.237   7.126   7.228  0.1587 -0.5695 -1.0433
  237MOL   C12238354   4.981   7.067   0.152  0.7066  0.1595  0.6515
  237MOL   C12338355   4.885   6.978   0.090  0.0169 -0.0613  0.0669
  237MOL   N12438356   4.943   6.849   0.070  0.4149 -0.2270 -0.0599
  237MOL   H12538357   5.047   7.021   0.226  0.6466  0.2101  0.7371
  237MOL   H12638358   4.919   7.137   0.207  0.0969  0.0086  0.1587
  237MOL   H12738359   4.853   7.017   7.270 -0.5952  0.4117  0.4615
  237MOL   H12838360   4.947   6.802   0.160  1.4682 -0.2604 -0.1183
  237MOL   H12938361   5.041   6.861   0.047  0.0201  0.7439 -1.3000
  237MOL   C13038362   4.750   6.961   0.168 -0.0778  0.2702 -0.2024
  237MOL   C13138363   4.632   7.040   0.111  0.5586 -0.0947 -0.4341
  237MOL   N13238364   4.503   6.979   0.143  0.0275  0.2448 -0.1360
  237MOL   H13338365   4.719   6.856   0.165  3.3962 -0.8496  0.9589
  237MOL   H13438366   4.763   6.991   0.271  0.1340  0.4563 -0.2831
  237MOL   H13538367   4.649   7.043   0.003  0.9476  0.4748 -0.3591
  237MOL   H13638368   4.503   6.879   0.160  0.3967 -0.1659 -2.4868
  237MOL   H13738369   4.434   6.989   0.070 -0.6945  1.3291  0.6880
  237MOL   C13838370   4.624   7.185   0.165 -0.5660  0.9285 -1.0419
  237MOL   C13938371   4.540   0.014   0.079 -0.4568  0.1565  0.1595
  237MOL   N14038372   4.465   0.108   0.169 -0.2705 -1.3026  0.0758
  237MOL   H14138373   4.588   7.180   0.268  0.5538  0.2366 -0.6805
  237MOL   H14238374   4.726   7.223   0.173 -0.8985  1.7055 -0.3868
  237MOL   H14338375   4.457   7.233   0.038  0.5376 -2.5810  1.7465
  237MOL   H14438376   4.405   0.049   0.225 -0.1620  1.2943  3.0428
  237MOL   H14538377   4.400   0.144   0.101  1.0280 -1.4861 -1.2946
  237MOL   C14638378   4.602   0.085   7.234 -0.1234  0.1615 -0.2025
  237MOL   C14738379   4.651   7.269   7.124 -0.8153 -1.0083  0.2531
  237MOL   N14838380   4.546   7.183   7.072  0.5530  0.4184 -0.5532
  237MOL   H14938381   4.519   0.147   7.202 -0.3345 -0.5763 -1.1080
  237MOL   H15038382   4.685   0.137   0.006  0.8650 -0.8108 -0.8270
  237MOL   H15138383   4.731   7.204   7.158 -0.8812  0.3430  3.1232
  237MOL   H15238384   4.577   7.114   7.005 -0.6290  0.9600 -1.6660
  237MOL   H15338385   4.530   7.118   7.148 -1.9500  0.9229 -0.6053
  237MOL   C15438386   4.710   0.073   6.999  0.1421 -0.3455  0.5830
  237MOL   C15538387   4.846   0.134   7.018 -0.3496  0.1418  0.8026
  237MOL   N15638388   4.911   0.183   6.892  0.3458  0.8305 -0.5319
  237MOL   H15738389   4.726   0.010   6.912  1.5617  1.4656 -0.5150
  237MOL   H15838390   4.644   0.150   6.957  0.5146 -1.0071 -1.2636
  237MOL   H15938391   4.920   0.065   7.060 -0.3355 -0.1874  0.2396
  237MOL   H16038392   4.922   0.103   6.831  0.3421 -0.5546  1.2109
  237MOL   H16138393   4.849   0.243   6.840 -1.2757 -0.2827  0.0631
  237MOL   H16238394   4.842   0.224   7.080  2.2369  0.2864  0.8339
  238MOL     C138395   5.446   6.075   5.100 -0.6784  0.3884 -0.1514
  238MOL     C238396   5.394   6.174   4.996  0.7323  0.0839  0.4027
  238MOL     N338397   5.508   6.202   4.916  0.0824 -0.4847 -0.3139
  238MOL     H438398   5.363   6.051   5.166 -1.1234 -0.2323 -0.9281
  238MOL     H538399   5.528   6.112   5.162 -0.9984 -1.6246  1.5292
  238MOL     H638400   5.361   6.271   5.032 -0.8247 -0.5627  0.7560
  238MOL     H738401   5.586   6.251   4.959  1.2358 -1.4390 -1.2893
  238MOL     H838402   5.536   6.120   4.864 -1.3897 -1.6387  0.6742
  238MOL     H938403   5.486   5.980   5.064 -1.0943  0.1100  0.1212
  238MOL    C1038404   5.277   6.112   4.921  0.2917  0.7062  0.0838
  238MOL    C1138405   5.140   6.130   4.989 -0.3077 -0.3592  0.1122
  238MOL    N1238406   5.082   6.250   4.932  0.6613 -0.3093 -0.3296
  238MOL    H1338407   5.271   6.158   4.822  2.9080  0.4516 -0.2258
  238MOL    H1438408   5.297   6.007   4.897 -0.9009  0.9111 -1.9174
  238MOL    H1538409   5.154   6.129   5.097 -0.5130 -0.1257  0.1401
  238MOL    H1638410   5.013   6.280   5.000 -1.0748  0.3244 -2.3378
  238MOL    H1738411   5.142   6.331   4.922 -0.6903  0.6680 -0.6846
  238MOL    C1838412   5.042   6.015   4.942  0.1745 -0.1792  0.4798
  238MOL    C1938413   4.993   5.928   5.057 -0.3886 -0.4086  0.9000
  238MOL    N2038414   4.893   5.848   4.994 -0.5506  0.4041  0.4237
  238MOL    H2138415   4.966   6.060   4.878 -0.5142 -1.3432  0.4460
  238MOL    H2238416   5.103   5.954   4.874  0.3897  0.4096  0.1464
  238MOL    H2338417   4.964   5.987   5.144  2.4856  1.5967  0.5743
  238MOL    H2438418   4.830   5.819   5.068 -0.6684 -1.4080 -0.3581
  238MOL    H2538419   4.937   5.759   4.977  1.0160  1.2656 -0.0731
  238MOL    C2638420   5.092   5.835   5.116 -0.3085 -0.3927 -0.4819
  238MOL    C2738421   5.086   5.790   5.263  0.2391 -0.6213 -0.0534
  238MOL    N2838422   5.185   5.683   5.272 -0.1782  0.4085  0.2150
  238MOL    H2938423   5.098   5.748   5.051  0.2222 -1.3837  0.8604
  238MOL    H3038424   5.193   5.876   5.104  0.0003 -0.3812  1.8799
  238MOL    H3138425   4.989   5.743   5.279  0.5710 -0.4380  2.7345
  238MOL    H3238426   5.187   5.673   5.372  1.0174 -1.2815  0.0283
  238MOL    H3338427   5.135   5.600   5.243  0.8225  0.0411 -0.4583
  238MOL    C3438428   5.114   5.905   5.365  0.1418  0.2723 -0.2689
  238MOL    C3538429   5.061   5.865   5.509  0.0463 -0.0422 -0.5157
  238MOL    N3638430   5.127   5.740   5.551  0.1187 -0.2374  0.1485
  238MOL    H3738431   5.222   5.923   5.358  0.1954  0.3824  0.7035
  238MOL    H3838432   5.070   6.001   5.338  2.0667  0.4964 -2.7838
  238MOL    H3938433   4.954   5.848   5.507 -0.0578  0.3508  0.7677
  238MOL    H4038434   5.088   5.664   5.498 -1.6542  0.8642 -0.1405
  238MOL    H4138435   5.108   5.721   5.649 -0.1721  0.1633  0.1661
  238MOL    C4238436   5.115   5.958   5.625  0.0720 -0.3335 -0.0592
  238MOL    C4338437   5.057   6.103   5.614 -0.2467  0.2555 -0.6094
  238MOL    N4438438   4.914   6.117   5.590  0.7432  0.1380 -0.3267
  238MOL    H4538439   5.095   5.920   5.725 -0.7714 -0.8161 -0.4056
  238MOL    H4638440   5.224   5.958   5.614  0.1252  2.0174  0.2221
  238MOL    H4738441   5.097   6.164   5.533  1.0018 -0.5519 -0.6105
  238MOL    H4838442   4.893   6.209   5.627  0.1889 -0.2502  0.3341
  238MOL    H4938443   4.888   6.122   5.493 -1.1230 -0.6737  0.1279
  238MOL    C5038444   5.084   6.187   5.747  0.1539 -0.0764 -0.4094
  238MOL    C5138445   5.226   6.225   5.781  0.2405  0.0947  0.0886
  238MOL    N5238446   5.255   6.361   5.737  0.0691  0.4566  0.3826
  238MOL    H5338447   5.025   6.279   5.754  1.5799  0.7828  0.3585
  238MOL    H5438448   5.043   6.134   5.833 -1.6548  2.2063  0.1890
  238MOL    H5538449   5.288   6.158   5.721 -2.1144 -4.4281  2.4451
  238MOL    H5638450   5.213   6.379   5.647 -1.2107 -0.5242  0.7747
  238MOL    H5738451   5.198   6.409   5.804 -1.7019  0.7757 -1.3014
  238MOL    C5838452   5.266   6.214   5.928 -0.1803 -0.3255 -0.2165
  238MOL    C5938453   5.279   6.070   5.987 -0.0336  0.2019  0.4004
  238MOL    N6038454   5.394   6.010   5.923  0.2537 -0.5894 -0.6081
  238MOL    H6138455   5.364   6.261   5.931 -0.7383  0.8339 -0.0174
  238MOL    H6238456   5.200   6.274   5.991 -0.8514 -1.7199  0.4384
  238MOL    H6338457   5.185   6.020   5.965 -1.9423  2.8722  2.1289
  238MOL    H6438458   5.480   6.062   5.933 -0.8383  1.2170 -0.2626
  238MOL    H6538459   5.415   5.927   5.976  0.1784 -0.2391 -0.0300
  238MOL    C6638460   5.311   6.072   6.139  0.5923 -0.3257  0.2175
  238MOL    C6738461   5.197   6.095   6.243  0.0689 -0.4862  0.2795
  238MOL    N6838462   5.097   5.984   6.241  0.3383  0.1744  0.3358
  238MOL    H6938463   5.342   5.970   6.162  1.6935 -0.0362  0.0442
  238MOL    H7038464   5.392   6.139   6.168 -0.6072  1.2616 -0.0286
  238MOL    H7138465   5.135   6.180   6.214 -0.8174 -1.6923 -1.4317
  238MOL    H7238466   5.139   5.902   6.282  0.6621 -0.1679 -0.6715
  238MOL    H7338467   5.075   5.946   6.150  1.5750 -1.2167  0.5957
  238MOL    C7438468   5.247   6.138   6.383  0.5682  1.0111  0.2036
  238MOL    C7538469   5.281   6.285   6.395 -0.3391  0.1601  0.3113
  238MOL    N7638470   5.171   6.369   6.446 -0.5508 -0.1490  0.2451
  238MOL    H7738471   5.170   6.115   6.458  0.6392  0.4028  0.0922
  238MOL    H7838472   5.334   6.077   6.407  3.4083  3.8176 -2.4935
  238MOL    H7938473   5.296   6.330   6.296 -0.6832  0.4357  0.3841
  238MOL    H8038474   5.186   6.465   6.421 -0.7003 -0.4560 -1.0352
  238MOL    H8138475   5.080   6.352   6.407 -1.5393 -0.6852  2.6780
  238MOL    C8238476   5.413   6.310   6.470  0.1175 -0.4262 -0.1352
  238MOL    C8338477   5.535   6.264   6.396 -0.5716 -0.8953 -1.2317
  238MOL    N8438478   5.580   6.365   6.304  0.0009  0.7205  0.2298
  238MOL    H8538479   5.408   6.414   6.500  0.9189  0.5179 -3.0603
  238MOL    H8638480   5.407   6.255   6.564  1.0047  0.8542  0.6808
  238MOL    H8738481   5.507   6.168   6.354  0.7798 -2.5376  1.4541
  238MOL    H8838482   5.654   6.329   6.246  0.0860  2.0007 -0.4784
  238MOL    H8938483   5.507   6.403   6.245  0.7511  0.7395 -0.7005
  238MOL    C9038484   5.653   6.251   6.494 -0.5594  0.5696  1.0963
  238MOL    C9138485   5.734   6.126   6.468 -0.6323 -0.5333 -0.0319
  238MOL    N9238486   5.864   6.131   6.530  0.5061  0.5753 -0.3049
  238MOL    H9338487   5.725   6.333   6.488  1.0758 -0.9699 -1.3254
  238MOL    H9438488   5.617   6.246   6.596 -0.3824  2.9475  1.3021
  238MOL    H9538489   5.744   6.114   6.360 -1.1048 -0.8116 -0.0455
  238MOL    H9638490   5.931   6.182   6.474  1.5298 -0.8872 -0.4435
  238MOL    H9738491   5.906   6.039   6.531 -0.8897 -0.0896  2.2800
  238MOL    C9838492   5.658   5.994   6.516 -0.0804  0.4355  0.6383
  238MOL    C9938493   5.665   5.871   6.426  0.8191 -0.2481 -0.4164
  238MOL   N10038494   5.636   5.751   6.502 -0.6092  0.3920  0.3334
  238MOL   H10138495   5.690   5.963   6.615  1.3394 -0.8478 -0.1997
  238MOL   H10238496   5.551   6.017   6.522  0.2464  2.2011 -0.1759
  238MOL   H10338497   5.768   5.869   6.388  0.4743  1.2725 -1.4840
  238MOL   H10438498   5.700   5.739   6.579 -0.7942  0.6792  0.5337
  238MOL   H10538499   5.647   5.668   6.446 -2.6628 -0.6538  1.4345
  238MOL   C10638500   5.581   5.878   6.294 -0.4925 -0.0843  0.0691
  238MOL   C10738501   5.625   5.789   6.172 -0.4526  0.5440 -0.4198
  238MOL   N10838502   5.515   5.776   6.074  0.1411 -0.0726  0.0575
  238MOL   H10938503   5.472   5.869   6.299 -0.5819  0.5701 -0.5815
  238MOL   H11038504   5.599   5.978   6.255 -1.3166  0.0513  0.0213
  238MOL   H11138505   5.644   5.687   6.206  2.6046  0.8976 -0.9618
  238MOL   H11238506   5.536   5.713   5.998  0.4472  1.2066 -0.9379
  238MOL   H11338507   5.453   5.719   6.129 -0.0888  0.0704 -0.0539
  238MOL   C11438508   5.746   5.854   6.095 -1.1485 -0.2301 -0.2100
  238MOL   C11538509   5.827   5.739   6.023 -0.4928 -0.5463 -0.3777
  238MOL   N11638510   5.906   5.788   5.912 -0.9998 -0.7300 -0.1384
  238MOL   H11738511   5.712   5.921   6.016  1.7146  2.1198  0.4692
  238MOL   H11838512   5.807   5.908   6.168 -1.7760 -0.0693  0.2017
  238MOL   H11938513   5.750   5.675   5.979 -0.1360 -0.7709 -0.6840
  238MOL   H12038514   5.971   5.859   5.943 -0.0449 -0.9872 -1.4846
  238MOL   H12138515   5.851   5.838   5.844 -0.0727  2.2000  1.2073
  238MOL   C12238516   5.924   5.656   6.121  0.3048 -0.0263  0.2049
  238MOL   C12338517   5.947   5.512   6.069 -0.0699 -0.1310 -0.7816
  238MOL   N12438518   6.064   5.514   5.978 -1.0252  0.2309 -0.1992
  238MOL   H12538519   6.022   5.702   6.133  0.9254 -0.7396 -1.8914
  238MOL   H12638520   5.884   5.649   6.222 -0.7777  3.2928  0.0605
  238MOL   H12738521   5.863   5.480   6.008 -1.5625  2.9812 -0.4663
  238MOL   H12838522   6.040   5.597   5.925 -0.2771  2.3982  2.7259
  238MOL   H12938523   6.142   5.544   6.034 -1.2501  0.6952 -0.1314
  238MOL   C13038524   5.984   5.399   6.172  0.2141 -0.2393 -0.6546
  238MOL   C13138525   5.946   5.256   6.122 -0.5163  0.1338  0.6226
  238MOL   N13238526   6.017   5.158   6.197  0.1359 -0.3465  0.4898
  238MOL   H13338527   6.085   5.395   6.211  0.9299 -0.7588 -2.5115
  238MOL   H13438528   5.927   5.417   6.263  0.8745  0.1143 -0.3088
  238MOL   H13538529   5.979   5.237   6.020 -1.1297 -1.5219  0.7193
  238MOL   H13638530   6.112   5.191   6.205  0.2762 -0.5748 -0.2222
  238MOL   H13738531   6.018   5.065   6.158  0.1526 -0.2847  0.3447
  238MOL   C13838532   5.806   5.229   6.149  0.6825 -0.2936 -0.0346
  238MOL   C13938533   5.749   5.104   6.090  0.5560 -1.0618  1.0522
  238MOL   N14038534   5.615   5.074   6.129 -0.7561 -0.5863 -0.4965
  238MOL   H14138535   5.781   5.226   6.255 -1.7582  0.4829 -0.5424
  238MOL   H14238536   5.744   5.317   6.129  0.1247 -0.0973  2.3849
  238MOL   H14338537   5.800   5.016   6.131 -1.9098 -3.2129 -0.3144
  238MOL   H14438538   5.584   4.988   6.085  1.3614 -2.1845  1.0210
  238MOL   H14538539   5.622   5.041   6.224  0.2220 -0.4659 -0.5216
  238MOL   C14638540   5.744   5.096   5.936  0.3467 -0.0135 -0.0901
  238MOL   C14738541   5.745   5.229   5.860 -0.0172 -0.1674 -0.3121
  238MOL   N14838542   5.781   5.221   5.721  0.1558  0.2401 -0.6754
  238MOL   H14938543   5.835   5.045   5.902 -0.1753 -0.9694 -0.0528
  238MOL   H15038544   5.662   5.029   5.910  1.4984 -1.2170 -0.7194
  238MOL   H15138545   5.829   5.292   5.892  0.0168 -0.2310 -0.2756
  238MOL   H15238546   5.803   5.314   5.689 -1.6270  0.7948 -0.3315
  238MOL   H15338547   5.694   5.200   5.674  0.5688  0.9593 -1.7842
  238MOL   C15438548   5.605   5.299   5.864  0.4468 -0.1075 -0.0075
  238MOL   C15538549   5.596   5.441   5.791  0.0583  0.6467 -0.2784
  238MOL   N15638550   5.455   5.470   5.786  0.5119 -0.2356 -0.1875
  238MOL   H15738551   5.530   5.236   5.816 -0.6425  0.6161  0.7379
  238MOL   H15838552   5.571   5.310   5.967  0.7822 -0.8331  0.1850
  238MOL   H15938553   5.641   5.431   5.692  1.0001 -0.0898  0.2158
  238MOL   H16038554   5.401   5.408   5.726 -0.1751  0.4611 -0.2848
  238MOL   H16138555   5.451   5.554   5.731 -0.9523  1.3321  2.2350
  238MOL   H16238556   5.652   5.514   5.849  0.0797 -0.9848  1.8405
  239MOL     C138557   6.208   6.468   7.104  0.0756 -0.4931  0.2436
  239MOL     C238558   6.345   6.485   7.170  0.2639  0.3614  0.4214
  239MOL     N338559   6.411   6.601   7.103  0.0747  0.6549  0.6173
  239MOL     H438560   6.167   6.560   7.063  1.4564  0.5808  1.2489
  239MOL     H538561   6.132   6.427   7.171  0.0208  1.7779  1.6368
  239MOL     H638562   6.410   6.399   7.153 -0.7472 -0.5540  1.1206
  239MOL     H738563   6.416   6.578   7.005 -3.4270  4.6860 -0.6167
  239MOL     H838564   6.506   6.598   7.135  0.3296  1.2202 -0.0743
  239MOL     H938565   6.224   6.396   7.023 -0.1359 -2.0577  1.5689
  239MOL    C1038566   6.337   6.507   0.048  0.0728 -0.4090 -0.7023
  239MOL    C1138567   6.344   6.376   0.129 -0.9605 -0.0866  0.8703
  239MOL    N1238568   6.405   6.401   0.263  0.3369  0.0301 -0.4580
  239MOL    H1338569   6.423   6.560   0.089 -2.0547  2.1416  0.5649
  239MOL    H1438570   6.252   6.565   0.083  1.5237  1.1737  0.2339
  239MOL    H1538571   6.413   6.303   0.087 -0.1823  1.8908 -1.4090
  239MOL    H1638572   6.360   6.477   0.312 -3.4908 -1.0477 -2.1036
  239MOL    H1738573   6.392   6.317   0.318 -1.0390  0.7882  0.4303
  239MOL    C1838574   6.200   6.323   0.155  0.1840 -0.1644 -0.4235
  239MOL    C1938575   6.203   6.171   0.151 -0.2018  0.2519  0.1776
  239MOL    N2038576   6.071   6.109   0.156 -0.3598  0.8347 -0.4732
  239MOL    H2138577   6.153   6.350   0.250  3.4174  1.4491  0.8212
  239MOL    H2238578   6.131   6.360   0.079 -0.6159 -0.1133  0.3178
  239MOL    H2338579   6.255   6.135   0.239  0.1124  0.0602 -0.0873
  239MOL    H2438580   6.080   6.016   0.193  2.5775  0.9053 -0.9069
  239MOL    H2538581   6.023   6.108   0.067  1.3897  2.4157 -1.4791
  239MOL    C2638582   6.281   6.098   0.034  0.1088 -0.2554 -0.3720
  239MOL    C2738583   6.408   6.026   0.079  0.0744 -0.5833 -0.4513
  239MOL    N2838584   6.369   5.888   0.116 -0.1082  0.9596  0.0920
  239MOL    H2938585   6.211   6.032   7.257 -0.8405  1.1523 -0.9187
  239MOL    H3038586   6.311   6.170   7.234 -1.3520  0.3514 -0.3837
  239MOL    H3138587   6.448   6.088   0.160 -1.0554  0.3089 -0.5520
  239MOL    H3238588   6.293   5.895   0.182  1.1843  1.2971  1.5795
  239MOL    H3338589   6.444   5.860   0.178  1.0129  1.6899 -0.9052
  239MOL    C3438590   6.522   6.018   7.251 -0.2686 -0.0570  0.4139
  239MOL    C3538591   6.658   5.986   0.036 -0.2518  0.5851  0.5291
  239MOL    N3638592   6.745   5.983   7.195  0.2020  0.0756 -0.1499
  239MOL    H3738593   6.487   5.950   7.174 -2.5020  0.4842  0.9017
  239MOL    H3838594   6.526   6.116   7.204 -2.4090 -0.8523 -1.4840
  239MOL    H3938595   6.653   5.882   0.069 -1.6531  0.5346  0.2042
  239MOL    H4038596   6.711   5.929   7.117 -0.5598 -1.8178  1.4481
  239MOL    H4138597   6.761   6.075   7.156  0.3306  0.6852  1.3234
  239MOL    C4238598   6.725   6.083   0.135 -1.4201 -0.4079  0.4958
  239MOL    C4338599   6.727   6.031   0.281 -0.6952  0.4090 -0.8456
  239MOL    N4438600   6.822   5.918   0.285 -0.2354  0.1479  0.2593
  239MOL    H4538601   6.826   6.108   0.102 -1.0923  0.2598  1.9648
  239MOL    H4638602   6.685   6.184   0.124  3.1864  1.1887 -3.3108
  239MOL    H4738603   6.633   5.996   0.323 -0.3000 -0.0669 -0.3398
  239MOL    H4838604   6.917   5.942   0.310  0.2116 -0.7150 -0.5916
  239MOL    H4938605   6.828   5.886   0.189  0.0571  1.2972 -0.1181
  239MOL    C5038606   6.758   6.139   0.385 -0.7000  0.4992 -0.1408
  239MOL    C5138607   6.668   6.261   0.393 -0.7185  0.1686  0.0183
  239MOL    N5238608   6.574   6.248   0.506 -0.3621  1.1995 -0.0842
  239MOL    H5338609   6.764   6.083   0.478  1.8259 -1.2364 -1.2997
  239MOL    H5438610   6.857   6.175   0.358 -0.7663  0.7804 -0.0086
  239MOL    H5538611   6.610   6.281   0.303 -1.5192  0.8305  0.6716
  239MOL    H5638612   6.492   6.302   0.482 -1.3526  0.4482  1.5012
  239MOL    H5738613   6.531   6.157   0.507 -0.9897  1.4928 -0.0036
  239MOL    C5838614   6.759   6.385   0.413 -0.2028  0.0437 -0.3831
  239MOL    C5938615   6.815   6.427   0.277  0.0500  0.0319  0.2721
  239MOL    N6038616   6.710   6.476   0.185  0.0347  0.1486  0.6450
  239MOL    H6138617   6.698   6.469   0.446 -1.2020 -0.7201 -0.2612
  239MOL    H6238618   6.833   6.360   0.489  1.4531 -2.2177 -2.6231
  239MOL    H6338619   6.849   6.340   0.222  1.7714 -0.2893  1.8047
  239MOL    H6438620   6.660   6.554   0.226 -3.8087 -1.5828 -0.5533
  239MOL    H6538621   6.632   6.412   0.184 -0.0079  0.1952  0.8773
  239MOL    C6638622   6.924   6.547   0.278  0.2693  0.6186  0.6574
  239MOL    C6738623   7.073   6.502   0.289 -0.2574 -0.6169  0.3650
  239MOL    N6838624   7.155   6.621   0.284  0.0217  0.1321  0.3173
  239MOL    H6938625   6.914   6.612   0.191 -2.3284  1.5419  1.5996
  239MOL    H7038626   6.903   6.603   0.368 -4.3616  1.2719 -0.7259
  239MOL    H7138627   7.114   6.449   0.203  1.1819  1.1574 -0.0737
  239MOL    H7238628   7.246   6.586   0.311 -0.4279 -1.8923 -0.6607
  239MOL    H7338629   7.135   6.685   0.359  0.5895  1.1168 -0.3655
  239MOL    C7438630   7.115   6.427   0.416  0.5653  0.1961 -0.5906
  239MOL    C7538631   7.246   6.360   0.402 -0.3805  0.6410  0.2351
  239MOL    N7638632   0.025   6.322   0.531  0.1106 -0.1293  0.7000
  239MOL    H7738633   7.124   6.486   0.507  0.5162  0.8237 -0.9948
  239MOL    H7838634   7.042   6.349   0.440  0.9029  0.4213  1.2602
  239MOL    H7938635   0.037   6.440   0.371  0.7244 -0.6200 -0.6520
  239MOL    H8038636   0.007   6.394   0.599  1.1389  0.1833  0.6508
  239MOL    H8138637   7.246   6.251   0.578  0.5025 -1.0643 -0.2381
  239MOL    C8238638   7.266   6.244   0.298  0.1893  0.0055 -0.2164
  239MOL    C8338639   7.150   6.143   0.275  0.0653  0.0669 -0.1234
  239MOL    N8438640   7.074   6.181   0.161  0.3167 -0.0104 -0.0889
  239MOL    H8538641   0.018   6.293   0.204  2.0366 -0.8627 -0.1291
  239MOL    H8638642   0.081   6.195   0.334  0.5995  1.6149  0.9881
  239MOL    H8738643   7.082   6.150   0.359 -0.0924 -0.7642 -0.1711
  239MOL    H8838644   7.039   6.273   0.182 -2.4392 -0.9775 -0.2868
  239MOL    H8938645   7.121   6.185   0.072  0.9856 -0.6280  0.2270
  239MOL    C9038646   7.185   5.994   0.267 -0.0031 -0.5288 -0.2018
  239MOL    C9138647   7.228   5.944   0.412  0.4235 -0.5175  0.2960
  239MOL    N9238648   7.120   5.908   0.498  0.2173  0.7098 -0.4744
  239MOL    H9338649   7.107   5.935   0.218 -1.2416 -0.0028  1.1144
  239MOL    H9438650   7.263   5.985   0.192  0.1091  0.0517 -0.1585
  239MOL    H9538651   0.001   6.032   0.453 -0.7896  1.5286 -2.5196
  239MOL    H9638652   7.064   5.832   0.462  1.4328  0.8619 -2.8189
  239MOL    H9738653   7.155   5.897   0.592  1.0959  1.4128 -0.7181
  239MOL    C9838654   0.042   5.820   0.406  0.9940 -0.0174 -0.4196
  239MOL    C9938655   0.184   5.847   0.353 -0.0621  0.2393 -0.3109
  239MOL   N10038656   0.283   5.835   0.453 -0.2698  0.5556  0.0038
  239MOL   H10138657   0.049   5.786   0.509  0.3303  0.4001 -0.2304
  239MOL   H10238658   7.261   5.740   0.358  0.1379  1.4456 -1.9398
  239MOL   H10338659   0.194   5.949   0.317 -0.5568  0.6278  0.6471
  239MOL   H10438660   0.373   5.805   0.417 -1.4916 -0.9577 -1.8870
  239MOL   H10538661   0.296   5.929   0.486 -0.8362  0.9663 -0.9298
  239MOL   C10638662   0.226   5.751   0.242 -0.3384  0.6559 -0.1539
  239MOL   C10738663   0.138   5.765   0.113  0.2334  0.1570  0.2880
  239MOL   N10838664   0.172   5.884   0.041  0.1005 -0.5184 -0.2560
  239MOL   H10938665   0.334   5.763   0.229 -0.5599  1.8365 -1.0462
  239MOL   H11038666   0.202   5.650   0.274 -1.1518  0.6902 -0.6386
  239MOL   H11138667   0.031   5.771   0.136  0.0127  2.2246 -1.1275
  239MOL   H11238668   0.135   5.965   0.090  1.8788  1.6297 -2.3880
  239MOL   H11338669   0.269   5.908   0.055 -0.4741  1.5100  0.4503
  239MOL   C11438670   0.155   5.646   0.014  0.8039  0.4929 -0.2774
  239MOL   C11538671   0.094   5.512   0.048  0.2306  0.0541  0.5713
  239MOL   N11638672   7.222   5.514   0.044 -0.3973  0.6619  0.4151
  239MOL   H11738673   0.109   5.664   7.193  0.6349 -1.2750 -0.5496
  239MOL   H11838674   0.261   5.643   7.265  0.8579  2.5749 -0.3790
  239MOL   H11938675   0.120   5.488   0.151 -1.9356  0.3681  1.2093
  239MOL   H12038676   7.188   5.553   7.232  1.0903  0.7330 -0.1457
  239MOL   H12138677   7.206   5.589   0.109 -0.1722 -0.2351  1.5064
  239MOL   C12238678   0.145   5.405   7.230 -0.3317  1.1302 -0.2183
  239MOL   C12338679   0.294   5.367   7.236  0.6399 -0.6089 -0.1584
  239MOL   N12438680   0.325   5.286   0.077  0.9685  0.0323  0.9344
  239MOL   H12538681   0.098   5.310   7.253  1.2233  0.4237  0.1110
  239MOL   H12638682   0.113   5.426   7.128  3.3378 -1.6938 -2.0970
  239MOL   H12738683   0.347   5.461   7.249 -0.3405 -0.1369  0.5205
  239MOL   H12838684   0.287   5.193   0.067  1.7249 -0.3616  1.7028
  239MOL   H12938685   0.302   5.322   0.168 -0.4439 -0.5928  0.8417
  239MOL   C13038686   0.338   5.287   7.111  0.3987  0.7039 -0.5164
  239MOL   C13138687   0.342   5.360   6.977 -0.7814 -0.0328  0.1047
  239MOL   N13238688   0.475   5.359   6.926  0.3360  0.0112 -0.0185
  239MOL   H13338689   0.441   5.258   7.131 -0.0319 -0.8173 -0.4784
  239MOL   H13438690   0.288   5.191   7.106  2.1131 -0.3114  1.1269
  239MOL   H13538691   0.324   5.467   6.991  0.4879  0.6762 -3.1039
  239MOL   H13638692   0.465   5.418   6.845 -0.4127  2.9049  2.1163
  239MOL   H13738693   0.518   5.427   6.987 -3.5029  2.1392  0.5155
  239MOL   C13838694   0.257   5.299   6.863  0.6359  0.9965  0.8984
  239MOL   C13938695   0.106   5.333   6.860  0.6642 -0.4743 -0.0750
  239MOL   N14038696   0.067   5.331   6.718 -0.2733  0.2462 -0.5581
  239MOL   H14138697   0.302   5.328   6.768  0.1660  0.2577  0.4425
  239MOL   H14238698   0.271   5.191   6.862  0.9073  1.0385 -0.4473
  239MOL   H14338699   0.093   5.438   6.887 -4.3616 -1.0613  0.1877
  239MOL   H14438700   0.037   5.241   6.682  2.3570  0.1969 -2.7990
  239MOL   H14538701   0.139   5.372   6.661 -0.7477  0.7786 -0.7840
  239MOL   C14638702   0.012   5.244   6.946 -0.1837  0.1198  0.2673
  239MOL   C14738703   7.165   5.306   7.005 -0.1590  0.2326 -0.2767
  239MOL   N14838704   7.075   5.357   6.905  0.3036 -0.6123 -0.6406
  239MOL   H14938705   7.258   5.156   6.889  0.2886  1.4934 -2.1702
  239MOL   H15038706   0.082   5.209   7.023 -0.5486 -0.6052  0.2703
  239MOL   H15138707   7.193   5.391   7.068  1.4224  0.6750 -1.5682
  239MOL   H15238708   7.043   5.448   6.936  0.6738 -1.0166  0.9789
  239MOL   H15338709   7.136   5.372   6.826 -1.2035  3.0072 -1.2667
  239MOL   C15438710   7.080   5.207   7.093 -0.2320 -0.3656 -0.5826
  239MOL   C15538711   7.156   5.114   7.191 -0.8951  0.6553 -0.4644
  239MOL   N15638712   7.077   5.006   7.254 -0.4348  0.3588  0.2536
  239MOL   H15738713   7.004   5.255   7.155  0.1619 -1.0088  0.4030
  239MOL   H15838714   7.018   5.151   7.023  0.3013 -1.7870  0.0783
  239MOL   H15938715   7.197   5.169   7.276 -0.0093  0.6084 -0.8584
  239MOL   H16038716   7.000   5.046   0.030 -0.0892 -1.4640  2.2908
  239MOL   H16138717   7.118   4.956   0.057 -2.3554 -3.1138 -0.8177
  239MOL   H16238718   7.229   5.058   7.132 -1.0255  1.2463 -1.1944
  240MOL     C138719   1.257   4.965   1.826  0.1111 -0.6484  0.2158
  240MOL     C238720   1.318   4.866   1.722  0.5165 -0.2763 -0.0988
  240MOL     N338721   1.235   4.754   1.709  0.3216  0.2486 -0.2422
  240MOL     H438722   1.149   4.974   1.814 -0.3962 -2.3439  3.0921
  240MOL     H538723   1.302   5.064   1.819 -0.7196 -0.3175 -0.7208
  240MOL     H638724   1.416   4.829   1.754  0.2781 -0.7217  0.1037
  240MOL     H738725   1.289   4.682   1.663  2.9932  2.7078 -1.1277
  240MOL     H838726   1.237   4.710   1.800 -4.2336 -0.8050 -0.5701
  240MOL     H938727   1.272   4.936   1.930 -0.8340 -0.4997  0.4035
  240MOL    C1038728   1.332   4.939   1.588 -0.1460 -0.9366  0.3011
  240MOL    C1138729   1.442   5.048   1.566  0.2565 -0.1213  0.2738
  240MOL    N1238730   1.576   4.997   1.606  0.6618 -0.3191 -1.0452
  240MOL    H1338731   1.328   4.869   1.505 -3.2849 -0.4100 -0.0489
  240MOL    H1438732   1.242   4.997   1.567  0.7936  0.2561 -0.5014
  240MOL    H1538733   1.416   5.136   1.625  0.0942 -1.2931  1.9903
  240MOL    H1638734   1.571   4.966   1.702 -0.6847  0.9816 -0.6934
  240MOL    H1738735   1.634   5.078   1.622 -0.0311  0.0005 -0.1492
  240MOL    C1838736   1.451   5.109   1.425 -1.2109  0.6708  0.0218
  240MOL    C1938737   1.351   5.227   1.398  0.0236  0.1225  0.9262
  240MOL    N2038738   1.396   5.323   1.302  0.1668 -0.4220  0.2324
  240MOL    H2138739   1.551   5.149   1.410 -1.6382  2.5118  1.9847
  240MOL    H2238740   1.436   5.035   1.346 -1.7669  0.9658 -0.1533
  240MOL    H2338741   1.332   5.284   1.489 -1.9643  0.0220  0.5931
  240MOL    H2438742   1.332   5.399   1.321 -0.2992 -0.5933 -0.6326
  240MOL    H2538743   1.483   5.359   1.339  2.1862 -4.5087 -0.2660
  240MOL    C2638744   1.204   5.186   1.364 -0.7678 -0.7014 -0.0678
  240MOL    C2738745   1.082   5.274   1.421  1.1100  0.0216  0.5166
  240MOL    N2838746   0.966   5.268   1.333  0.1790 -0.5571  0.3022
  240MOL    H2938747   1.199   5.203   1.256 -0.3583  0.8763  0.1512
  240MOL    H3038748   1.195   5.079   1.381 -1.3568 -0.6933 -0.3225
  240MOL    H3138749   1.114   5.378   1.430 -2.0753  1.0370  0.7797
  240MOL    H3238750   0.987   5.306   1.242  0.8170 -0.7875  0.3467
  240MOL    H3338751   0.897   5.333   1.369 -0.6849 -1.5083  0.3520
  240MOL    C3438752   1.039   5.227   1.563  0.4893  0.0507 -0.4121
  240MOL    C3538753   0.945   5.327   1.645 -0.8229 -0.4006 -0.2569
  240MOL    N3638754   0.922   5.265   1.774  0.7958 -0.2331  0.1574
  240MOL    H3738755   1.009   5.123   1.576  2.1833 -0.4562 -0.5516
  240MOL    H3838756   1.131   5.227   1.622  0.2557 -1.7718 -0.0340
  240MOL    H3938757   0.853   5.321   1.586 -0.5659  2.1330 -0.9797
  240MOL    H4038758   0.885   5.171   1.763  0.7266 -0.2818  0.8116
  240MOL    H4138759   0.858   5.317   1.833  2.1544  1.2562  0.3529
  240MOL    C4238760   1.005   5.473   1.655 -0.1935  0.0719 -0.1733
  240MOL    C4338761   0.913   5.588   1.612  0.6832 -0.9052 -0.3320
  240MOL    N4438762   0.915   5.607   1.466  0.5026 -0.3508  0.6313
  240MOL    H4538763   1.028   5.504   1.756 -2.0579  0.6941  0.0853
  240MOL    H4638764   1.101   5.477   1.604  0.1049 -1.4036  0.2241
  240MOL    H4738765   0.952   5.686   1.639  2.2789 -0.7745 -2.8952
  240MOL    H4838766   0.924   5.706   1.448 -1.1249  0.6827  4.9995
  240MOL    H4938767   0.999   5.566   1.427  0.7072 -2.6175  3.3011
  240MOL    C5038768   0.765   5.580   1.646 -0.0214 -0.2177 -0.7339
  240MOL    C5138769   0.736   5.600   1.803 -0.1213  0.2908  0.5458
  240MOL    N5238770   0.767   5.738   1.828 -0.3597  0.3112  0.3397
  240MOL    H5338771   0.717   5.651   1.580  0.4444  0.2582 -0.5647
  240MOL    H5438772   0.736   5.478   1.619  1.2844 -0.9518  0.4897
  240MOL    H5538773   0.807   5.536   1.857 -0.8070 -0.5468  0.4612
  240MOL    H5638774   0.862   5.745   1.796  0.4152 -0.5394  2.3414
  240MOL    H5738775   0.768   5.756   1.928  1.2723  0.8835  0.2256
  240MOL    C5838776   0.593   5.574   1.846  0.0064  0.0572 -0.4844
  240MOL    C5938777   0.534   5.433   1.814 -0.3460  0.5200 -0.0004
  240MOL    N6038778   0.526   5.363   1.936  0.6230 -0.1445  0.4958
  240MOL    H6138779   0.575   5.613   1.946 -1.7936 -1.3384 -0.2307
  240MOL    H6238780   0.536   5.642   1.783  0.0762 -0.7042 -1.3850
  240MOL    H6338781   0.608   5.381   1.754 -1.3318  1.0877 -1.7235
  240MOL    H6438782   0.516   5.266   1.911  2.5868 -0.4582  0.8397
  240MOL    H6538783   0.434   5.378   1.975 -0.8758  1.1409 -3.3520
  240MOL    C6638784   0.390   5.442   1.754 -0.2361 -0.1873 -0.1591
  240MOL    C6738785   0.343   5.299   1.714  0.0771  0.5261 -0.0166
  240MOL    N6838786   0.195   5.305   1.697  0.8024  0.5458 -0.3508
  240MOL    H6938787   0.328   5.496   1.825 -0.3184  0.6272 -0.8464
  240MOL    H7038788   0.390   5.503   1.664  1.0279  0.4555  0.2516
  240MOL    H7138789   0.369   5.228   1.792 -1.8937 -0.0872  0.1036
  240MOL    H7238790   0.168   5.365   1.621  0.2551  0.3277 -0.3274
  240MOL    H7338791   0.158   5.358   1.774 -0.7257 -0.6231 -0.2556
  240MOL    C7438792   0.402   5.234   1.590 -0.5640 -0.0723 -0.3599
  240MOL    C7538793   0.467   5.096   1.612 -0.3253 -0.0221 -0.0309
  240MOL    N7638794   0.444   5.005   1.501 -0.5488  0.0366  0.2063
  240MOL    H7738795   0.322   5.223   1.517 -0.3432 -1.9859 -0.3277
  240MOL    H7838796   0.466   5.311   1.546  0.1299  0.6561  1.8591
  240MOL    H7938797   0.412   5.049   1.694 -0.7376 -0.6586 -0.6603
  240MOL    H8038798   0.500   5.040   1.425  0.0266 -0.1183  0.5499
  240MOL    H8138799   0.347   5.002   1.474 -0.1535  0.1266 -1.2369
  240MOL    C8238800   0.617   5.094   1.639  0.1058  0.8597  0.2384
  240MOL    C8338801   0.650   4.989   1.742 -0.6387 -0.3072  0.0420
  240MOL    N8438802   0.793   4.966   1.733 -0.2170 -0.5018 -0.2982
  240MOL    H8538803   0.690   5.088   1.558  3.0801  1.9082  2.7103
  240MOL    H8638804   0.632   5.191   1.687 -3.6466  1.0344  1.2109
  240MOL    H8738805   0.595   4.896   1.724 -0.4743 -0.5415  0.7335
  240MOL    H8838806   0.812   4.870   1.758 -1.2413 -1.0294 -1.4650
  240MOL    H8938807   0.811   4.968   1.633  1.1027 -0.0604 -0.0558
  240MOL    C9038808   0.606   5.021   1.884  0.4679  0.7218 -0.0995
  240MOL    C9138809   0.581   4.904   1.986 -0.0755  0.6874  0.3343
  240MOL    N9238810   0.615   4.959   2.120 -0.1502 -0.2752 -0.3652
  240MOL    H9338811   0.673   5.095   1.927 -0.1950 -0.7973  3.7397
  240MOL    H9438812   0.516   5.082   1.882  1.3575  2.1750  2.1045
  240MOL    H9538813   0.648   4.819   1.977  0.2428  1.1242 -1.5634
  240MOL    H9638814   0.617   4.887   2.191  2.1081 -0.1398 -0.2360
  240MOL    H9738815   0.714   4.981   2.114 -0.8292  2.6969 -1.3309
  240MOL    C9838816   0.439   4.842   1.983 -0.9391 -0.7130  0.0721
  240MOL    C9938817   0.404   4.709   2.050 -0.1987 -1.0540  0.5940
  240MOL   N10038818   0.358   4.738   2.185 -0.2046 -0.2866  0.3069
  240MOL   H10138819   0.364   4.918   2.002 -0.1875  0.3867 -1.2847
  240MOL   H10238820   0.428   4.831   1.875  1.0533 -1.1229 -0.1133
  240MOL   H10338821   0.495   4.652   2.039  0.6194  0.1392  1.0722
  240MOL   H10438822   0.258   4.756   2.186 -0.4241 -1.1048 -2.1570
  240MOL   H10538823   0.409   4.820   2.212  1.3307 -1.2486  0.3675
  240MOL   C10638824   0.292   4.620   1.996  0.6110 -0.2789  0.5871
  240MOL   C10738825   0.311   4.478   2.053  0.0622  0.1836 -0.0622
  240MOL   N10838826   0.195   4.400   2.022  0.7461  0.5748 -0.4459
  240MOL   H10938827   0.190   4.659   2.002  0.5370 -0.2519 -0.7561
  240MOL   H11038828   0.299   4.618   1.887 -3.1689 -0.7810  0.3068
  240MOL   H11138829   0.327   4.498   2.159 -0.8464  1.5319 -0.1801
  240MOL   H11238830   0.180   4.315   2.075  3.0472  0.0390 -0.5780
  240MOL   H11338831   0.203   4.378   1.923 -0.1722 -0.7550 -0.2381
  240MOL   C11438832   0.426   4.397   1.980  0.0542  0.4467  0.5162
  240MOL   C11538833   0.548   4.382   2.070 -0.3121 -0.4626 -0.1792
  240MOL   N11638834   0.550   4.256   2.146  0.6604 -0.2406 -0.4046
  240MOL   H11738835   0.393   4.298   1.949  0.6528  0.7604 -1.2341
  240MOL   H11838836   0.459   4.442   1.886 -2.2970  1.4421  0.1351
  240MOL   H11938837   0.556   4.462   2.143  0.4501 -0.6677 -0.0312
  240MOL   H12038838   0.642   4.236   2.183  0.6582  0.3354 -0.0971
  240MOL   H12138839   0.482   4.257   2.220  1.4277 -0.0841  0.3095
  240MOL   C12238840   0.673   4.375   1.981  0.5567 -0.7439  0.6029
  240MOL   C12338841   0.712   4.517   1.931  0.3210  0.2484 -0.3208
  240MOL   N12438842   0.758   4.594   2.044 -0.5498  0.4455 -0.5288
  240MOL   H12538843   0.765   4.337   2.025  0.7953  1.1225  1.7795
  240MOL   H12638844   0.653   4.313   1.893  1.8712 -0.0376 -0.2000
  240MOL   H12738845   0.633   4.570   1.878 -1.1808  0.2001  1.7825
  240MOL   H12838846   0.798   4.675   1.998  0.1826  0.1925 -0.3463
  240MOL   H12938847   0.836   4.548   2.089  1.4704  2.4352 -1.8393
  240MOL   C13038848   0.818   4.506   1.821  0.6269  0.4489 -0.1057
  240MOL   C13138849   0.862   4.638   1.754  0.5783 -0.5548  0.1093
  240MOL   N13238850   0.954   4.717   1.832 -0.5638  0.2156  0.1267
  240MOL   H13338851   0.905   4.453   1.860  1.8713  3.9097  2.0883
  240MOL   H13438852   0.780   4.437   1.746 -0.2085  0.0991  0.6285
  240MOL   H13538853   0.777   4.704   1.738  2.4795  2.4590  1.9498
  240MOL   H13638854   1.020   4.765   1.773  2.3737  0.1333  3.2023
  240MOL   H13738855   1.026   4.654   1.862 -1.2113 -1.0521 -0.9304
  240MOL   C13838856   0.924   4.607   1.622 -0.0379 -0.0786  0.5323
  240MOL   C13938857   0.946   4.738   1.535  0.5469  0.1953  0.5280
  240MOL   N14038858   1.072   4.740   1.478 -0.4331 -1.1495 -0.2514
  240MOL   H14138859   1.011   4.545   1.640 -0.3455  0.2430  3.2571
  240MOL   H14238860   0.857   4.547   1.559 -0.7584  2.0095 -0.7426
  240MOL   H14338861   0.942   4.832   1.589 -0.6696  0.2576  0.3325
  240MOL   H14438862   1.063   4.807   1.403 -2.6296 -2.2805 -1.0198
  240MOL   H14538863   1.137   4.774   1.548 -0.5955 -2.3260  0.4802
  240MOL   C14638864   0.850   4.759   1.419 -0.1103  0.4570  0.3302
  240MOL   C14738865   0.828   4.896   1.363  0.0313 -0.7172 -0.4943
  240MOL   N14838866   0.947   4.947   1.294  0.1054  0.4781  0.0839
  240MOL   H14938867   0.853   4.683   1.341  0.1544  1.4388 -0.6184
  240MOL   H15038868   0.761   4.731   1.475 -0.1869  2.8503  1.4797
  240MOL   H15138869   0.825   4.959   1.452  3.4484  1.2432 -1.6777
  240MOL   H15238870   0.944   4.906   1.202  0.8803  0.3606  0.1146
  240MOL   H15338871   0.939   5.047   1.291  1.1830  0.5907  0.8500
  240MOL   C15438872   0.703   4.908   1.275  0.6144  0.5730  0.0613
  240MOL   C15538873   0.676   5.050   1.240 -0.3373  0.3093 -0.2840
  240MOL   N15638874   0.541   5.045   1.179 -0.2187 -0.2558 -0.4196
  240MOL   H15738875   0.716   4.838   1.193  1.6657  0.6300  0.1759
  240MOL   H15838876   0.611   4.862   1.311  1.3602 -2.8976 -2.2465
  240MOL   H15938877   0.740   5.080   1.158 -0.0941  2.7185  0.7531
  240MOL   H16038878   0.508   4.981   1.108 -1.7088 -0.8180  0.7469
  240MOL   H16138879   0.506   5.130   1.137 -0.7917 -0.8785 -1.2140
  240MOL   H16238880   0.699   5.132   1.308 -2.3035  1.2152 -0.6637
  241MOL     C138881   4.743   2.395   2.813  0.7915  0.3746  0.3140
  241MOL     C238882   4.666   2.361   2.940  0.3097 -0.0508 -0.2420
  241MOL     N338883   4.766   2.289   3.015  0.3312 -0.0407  0.3934
  241MOL     H438884   4.753   2.311   2.744  0.1637  1.9279 -1.7112
  241MOL     H538885   4.843   2.426   2.844  0.7119  1.7653 -0.7908
  241MOL     H638886   4.574   2.305   2.927  0.4039  0.4040 -3.2733
  241MOL     H738887   4.758   2.190   2.996 -1.5551  0.6042 -2.6027
  241MOL     H838888   4.734   2.296   3.110  1.3180 -0.7854  0.7877
  241MOL     H938889   4.682   2.474   2.770  0.2565  0.5292  1.3371
  241MOL    C1038890   4.630   2.484   3.025  0.3580  0.1289  0.0242
  241MOL    C1138891   4.520   2.575   2.970  0.2790 -0.2786  0.4879
  241MOL    N1238892   4.392   2.510   2.935 -0.1049  0.1256  0.6941
  241MOL    H1338893   4.609   2.461   3.130 -0.4708 -1.5297 -0.4938
  241MOL    H1438894   4.723   2.539   3.039 -0.7564  2.0836 -0.0456
  241MOL    H1538895   4.575   2.614   2.884 -2.2858  1.1639 -0.5370
  241MOL    H1638896   4.424   2.429   2.883 -2.4931 -0.6842  0.3992
  241MOL    H1738897   4.326   2.562   2.878  1.7464  0.6334 -1.0406
  241MOL    C1838898   4.477   2.694   3.060  0.3193  0.1799  0.0545
  241MOL    C1938899   4.599   2.785   3.094  0.1968 -0.6090  0.4592
  241MOL    N2038900   4.610   2.881   2.985 -0.4409 -0.3038  0.3510
  241MOL    H2138901   4.395   2.750   3.015  0.9034 -0.8297 -2.3499
  241MOL    H2238902   4.434   2.647   3.149  1.1931  0.1306  0.4505
  241MOL    H2338903   4.692   2.727   3.087  0.1652 -0.6603  0.4719
  241MOL    H2438904   4.521   2.930   2.983 -0.7790 -0.9503 -0.8051
  241MOL    H2538905   4.613   2.825   2.901 -1.0537 -0.7171  0.5996
  241MOL    C2638906   4.602   2.851   3.229  0.2604  0.0316 -0.3605
  241MOL    C2738907   4.608   2.756   3.347  0.3448  0.2265  0.1381
  241MOL    N2838908   4.742   2.715   3.388  0.0488  0.5314 -0.1744
  241MOL    H2938909   4.684   2.922   3.235  1.0934 -0.9748  0.4824
  241MOL    H3038910   4.512   2.912   3.235  0.5024  0.2671  1.3230
  241MOL    H3138911   4.558   2.661   3.328 -0.1914 -0.3371  3.8487
  241MOL    H3238912   4.722   2.654   3.466 -1.7828  0.3948 -0.7290
  241MOL    H3338913   4.788   2.797   3.424  0.6004  0.1390  0.0177
  241MOL    C3438914   4.521   2.816   3.465 -0.8380  0.0410  0.0798
  241MOL    C3538915   4.490   2.716   3.578 -0.6171 -0.2079  0.1846
  241MOL    N3638916   4.416   2.795   3.675  0.2643  0.1473  0.7634
  241MOL    H3738917   4.564   2.908   3.505  1.3932 -0.9023 -0.0982
  241MOL    H3838918   4.430   2.848   3.414  0.8260  1.8849 -1.8241
  241MOL    H3938919   4.582   2.689   3.629  0.4855  1.5946 -0.8003
  241MOL    H4038920   4.383   2.741   3.754 -0.5370 -1.8373 -0.8879
  241MOL    H4138921   4.475   2.866   3.716 -1.4624  1.8648  0.2867
  241MOL    C4238922   4.398   2.601   3.534  0.5192 -0.2382 -0.0118
  241MOL    C4338923   4.357   2.509   3.661  0.3006 -0.0472  0.4824
  241MOL    N4438924   4.271   2.415   3.606  0.1966  0.2947  0.3445
  241MOL    H4538925   4.315   2.646   3.480 -0.5796 -2.3080 -0.1030
  241MOL    H4638926   4.459   2.543   3.464  0.8793 -0.9848  0.9132
  241MOL    H4738927   4.296   2.566   3.731  0.0982 -1.3944  1.4275
  241MOL    H4838928   4.210   2.468   3.545 -1.0508 -1.5968 -0.0968
  241MOL    H4938929   4.209   2.390   3.682 -1.5016 -1.0341 -1.4273
  241MOL    C5038930   4.472   2.430   3.722 -0.0911  0.2432 -0.1955
  241MOL    C5138931   4.450   2.419   3.870  0.3016 -0.3845  0.2730
  241MOL    N5238932   4.516   2.300   3.908 -0.3501 -0.3772  0.3202
  241MOL    H5338933   4.472   2.331   3.676  3.2260  0.5371 -0.9026
  241MOL    H5438934   4.569   2.478   3.711  0.4648 -0.2825  2.0953
  241MOL    H5538935   4.343   2.415   3.890  0.0822 -0.7917 -0.9018
  241MOL    H5638936   4.530   2.284   4.007 -0.8584  0.1681  0.4874
  241MOL    H5738937   4.465   2.222   3.868  0.1101 -1.7848  2.4041
  241MOL    C5838938   4.511   2.534   3.945  0.2466  0.2608  0.1275
  241MOL    C5938939   4.450   2.555   4.085  0.3940  0.0037  0.4088
  241MOL    N6038940   4.547   2.639   4.158  0.3128  0.0747  0.1032
  241MOL    H6138941   4.615   2.507   3.964 -0.1444 -0.0292  1.9263
  241MOL    H6238942   4.509   2.630   3.894  1.9128  0.1418 -0.1984
  241MOL    H6338943   4.434   2.456   4.129  2.2056 -0.1767  0.6970
  241MOL    H6438944   4.639   2.615   4.123  0.1735 -2.5472  1.3982
  241MOL    H6538945   4.551   2.603   4.252  0.2116 -1.1554 -0.3528
  241MOL    C6638946   4.309   2.617   4.074 -0.3024 -0.9443  0.1029
  241MOL    C6738947   4.245   2.646   4.214  0.0945 -0.0062  0.1079
  241MOL    N6838948   4.174   2.772   4.204  0.2639 -0.1350 -0.1135
  241MOL    H6938949   4.341   2.713   4.032 -1.3847 -1.2292 -1.4345
  241MOL    H7038950   4.231   2.574   4.011 -0.3780 -2.4787  1.2261
  241MOL    H7138951   4.327   2.671   4.281 -0.0578  0.0097  0.2901
  241MOL    H7238952   4.128   2.780   4.294  0.6756  0.8981  0.0078
  241MOL    H7338953   4.236   2.852   4.197  1.1319 -0.6178  1.6886
  241MOL    C7438954   4.154   2.532   4.265  0.3219 -0.2360  0.7493
  241MOL    C7538955   4.221   2.415   4.341  0.5932 -0.4988 -0.0142
  241MOL    N7638956   4.265   2.456   4.473 -0.1226  0.2050  0.0513
  241MOL    H7738957   4.087   2.577   4.339 -1.2639 -1.5947  0.1776
  241MOL    H7838958   4.078   2.511   4.190 -0.2131  0.1541  1.1754
  241MOL    H7938959   4.309   2.388   4.283  1.2873 -1.6557  1.5379
  241MOL    H8038960   4.353   2.503   4.458  0.4711 -1.2561 -1.2837
  241MOL    H8138961   4.197   2.515   4.518  0.7345  0.2982  1.2343
  241MOL    C8238962   4.119   2.301   4.354  0.8534 -0.3894 -0.6266
  241MOL    C8338963   4.127   2.201   4.237  0.0794 -0.5210  0.2493
  241MOL    N8438964   4.075   2.069   4.271 -0.6058 -0.8648 -0.0225
  241MOL    H8538965   4.145   2.245   4.444 -0.3074  1.3953  0.8381
  241MOL    H8638966   4.017   2.336   4.371  1.0130 -0.2887  0.1284
  241MOL    H8738967   4.232   2.178   4.220 -0.4414 -1.9591 -1.0896
  241MOL    H8838968   3.990   2.072   4.325 -0.5181 -0.4230  0.0964
  241MOL    H8938969   4.137   2.038   4.344 -2.0137 -1.5615  0.9140
  241MOL    C9038970   4.069   2.248   4.101  0.0416 -0.1674 -0.6480
  241MOL    C9138971   4.095   2.144   3.982  0.6536 -0.1938 -0.3774
  241MOL    N9238972   4.008   2.179   3.869 -0.1963  0.0407 -0.3422
  241MOL    H9338973   3.963   2.276   4.097  0.3669  1.1296 -0.4421
  241MOL    H9438974   4.125   2.338   4.076 -0.2418  0.2346  0.1377
  241MOL    H9538975   4.067   2.046   4.019  1.3711 -0.1018  0.4287
  241MOL    H9638976   3.916   2.146   3.897  0.2727 -0.9375  0.0747
  241MOL    H9738977   4.010   2.277   3.847  0.6174  0.0563 -0.1917
  241MOL    C9838978   4.237   2.132   3.923 -0.1042 -0.2817  0.4370
  241MOL    C9938979   4.264   2.013   3.830 -1.0383  0.1045  0.2179
  241MOL   N10038980   4.386   2.048   3.758  0.6087  0.0532  0.9668
  241MOL   H10138981   4.247   2.222   3.863 -0.6686  0.5282  1.5486
  241MOL   H10238982   4.323   2.154   3.985  0.6873  1.0053 -1.0723
  241MOL   H10338983   4.184   2.011   3.757  1.0620  1.2248 -2.1958
  241MOL   H10438984   4.388   2.136   3.709  0.4707  0.5276  1.7913
  241MOL   H10538985   4.406   1.986   3.681 -1.2224 -0.2139  0.6748
  241MOL   C10638986   4.277   1.873   3.900  0.2961 -0.6386 -0.4318
  241MOL   C10738987   4.261   1.740   3.822 -0.4088 -0.0861 -0.2570
  241MOL   N10838988   4.318   1.640   3.911  0.0654  0.1051  0.1248
  241MOL   H10938989   4.366   1.873   3.962 -1.4545  1.1054  2.1441
  241MOL   H11038990   4.195   1.886   3.971  0.8803  2.2867 -0.2130
  241MOL   H11138991   4.310   1.728   3.725  0.4372 -2.7638  0.4483
  241MOL   H11238992   4.410   1.664   3.946  0.2879  0.3536 -0.6238
  241MOL   H11338993   4.321   1.553   3.860 -1.9079  0.0924 -0.0286
  241MOL   C11438994   4.116   1.696   3.783  0.2368 -0.3123  0.0688
  241MOL   C11538995   4.030   1.791   3.689  0.2448 -1.0563 -0.3456
  241MOL   N11638996   4.107   1.840   3.566 -0.7613  0.1905 -0.1981
  241MOL   H11738997   4.133   1.602   3.730  1.0792  0.9373 -1.9655
  241MOL   H11838998   4.065   1.679   3.877 -1.4147  2.6744 -0.2294
  241MOL   H11938999   3.992   1.878   3.743 -0.3897 -1.6915  0.2470
  241MOL   H12039000   4.095   1.940   3.561 -0.1903  0.1662 -2.4592
  241MOL   H12139001   4.204   1.828   3.592 -1.4783  0.3924  2.7519
  241MOL   C12239002   3.906   1.717   3.637 -0.6072  0.1796  0.1566
  241MOL   C12339003   3.789   1.708   3.737 -0.7777 -0.7153  0.0063
  241MOL   N12439004   3.706   1.822   3.714  0.0336  0.0682  0.0059
  241MOL   H12539005   3.880   1.757   3.539 -0.0526 -0.9280 -0.4569
  241MOL   H12639006   3.930   1.614   3.610  2.7277  0.6793  0.9688
  241MOL   H12739007   3.833   1.721   3.835 -3.0961  0.4627  0.9284
  241MOL   H12839008   3.772   1.899   3.711 -0.6117  0.5937 -1.7759
  241MOL   H12939009   3.675   1.812   3.618  1.5301 -2.5461 -0.2694
  241MOL   C13039010   3.703   1.581   3.716 -0.2477 -0.1146  0.4233
  241MOL   C13139011   3.612   1.544   3.836  0.4703  0.0755  0.0792
  241MOL   N13239012   3.532   1.435   3.788 -0.1803 -0.4292 -0.2320
  241MOL   H13339013   3.649   1.606   3.625  0.4299  0.3103  0.1381
  241MOL   H13439014   3.762   1.494   3.688  0.8223  1.2324 -1.6389
  241MOL   H13539015   3.565   1.638   3.865 -0.8231 -0.1848 -1.1328
  241MOL   H13639016   3.580   1.364   3.734 -2.7868 -1.0984 -1.7806
  241MOL   H13739017   3.501   1.383   3.869  2.9023  2.0284  2.6958
  241MOL   C13839018   3.702   1.491   3.954 -0.2829 -0.1161 -0.0172
  241MOL   C13939019   3.626   1.441   4.077 -0.1773  0.0130  1.0222
  241MOL   N14039020   3.719   1.396   4.180 -0.5303  0.0020  0.1485
  241MOL   H14139021   3.758   1.404   3.920 -2.4345 -1.1604 -1.0154
  241MOL   H14239022   3.768   1.562   4.004 -0.5851 -0.6227  1.1145
  241MOL   H14339023   3.572   1.352   4.047 -2.9854  2.1593 -0.5330
  241MOL   H14439024   3.783   1.331   4.137 -0.8179  0.2981 -0.7365
  241MOL   H14539025   3.663   1.353   4.252 -0.4571  0.9638  0.7873
  241MOL   C14639026   3.524   1.535   4.138 -0.0295  0.0078 -0.3238
  241MOL   C14739027   3.429   1.476   4.237  0.0374  0.7051  0.6644
  241MOL   N14839028   3.394   1.561   4.340 -0.1896 -0.2171  0.0091
  241MOL   H14939029   3.585   1.610   4.189  0.8842  0.7115 -2.3995
  241MOL   H15039030   3.468   1.592   4.063 -2.0250  0.1326  1.2200
  241MOL   H15139031   3.483   1.392   4.280  0.1844 -0.4065 -1.6532
  241MOL   H15239032   3.485   1.591   4.373 -1.0740  0.7497  1.6758
  241MOL   H15339033   3.349   1.643   4.302  0.3796  1.9744  3.7355
  241MOL   C15439034   3.298   1.437   4.169  0.1389  0.0524 -0.4509
  241MOL   C15539035   3.305   1.310   4.084  0.0628  0.2038  0.3986
  241MOL   N15639036   3.166   1.272   4.060  0.5402  0.5575 -0.1286
  241MOL   H15739037   3.229   1.417   4.251  1.6068 -0.6061  0.6385
  241MOL   H15839038   3.263   1.514   4.099  0.1668  0.7875  0.3333
  241MOL   H15939039   3.361   1.235   4.138  1.0657 -0.0249 -0.9357
  241MOL   H16039040   3.174   1.173   4.039  0.9241  0.6050 -0.2157
  241MOL   H16139041   3.123   1.317   3.981 -0.2718  1.7228  0.9645
  241MOL   H16239042   3.349   1.321   3.985  0.5960 -2.3419  0.3271
  242MOL     C139043   2.785   4.810   4.104 -0.1512 -0.4074 -0.0521
  242MOL     C239044   2.905   4.861   4.183 -0.4783  0.9190 -0.5849
  242MOL     N339045   2.967   4.750   4.252 -0.5595 -0.5927 -0.1305
  242MOL     H439046   2.739   4.900   4.064  0.5294  0.8260  1.8606
  242MOL     H539047   2.718   4.760   4.174 -1.5589  2.1987  0.5268
  242MOL     H639048   2.861   4.923   4.261 -0.2919  0.1667  0.1203
  242MOL     H739049   3.032   4.802   4.309 -1.2096  0.0969 -0.0199
  242MOL     H839050   3.027   4.688   4.199 -0.3735  0.2865 -0.9572
  242MOL     H939051   2.810   4.743   4.022 -1.0557  0.6850 -1.2389
  242MOL    C1039052   3.002   4.945   4.092 -0.1575 -0.6222 -0.3894
  242MOL    C1139053   2.947   5.065   4.010  0.9386 -0.0698  0.0882
  242MOL    N1239054   2.870   5.150   4.095  0.1480  0.1668 -0.1934
  242MOL    H1339055   3.088   4.983   4.147  1.8050 -2.6768 -1.9182
  242MOL    H1439056   3.046   4.877   4.018 -1.4498 -3.9944  1.8162
  242MOL    H1539057   2.884   5.011   3.938 -0.2644  0.8382  0.4458
  242MOL    H1639058   2.807   5.088   4.143  2.1238 -0.3379  1.8001
  242MOL    H1739059   2.816   5.221   4.047 -0.5203 -0.7722 -0.8647
  242MOL    C1839060   3.057   5.152   3.943  0.0711 -0.0135  0.2384
  242MOL    C1939061   3.152   5.087   3.845 -0.6367 -0.2951 -0.0712
  242MOL    N2039062   3.085   5.039   3.721  0.5831 -0.0611  0.1531
  242MOL    H2139063   2.998   5.227   3.890 -2.2191  0.5131  3.3684
  242MOL    H2239064   3.109   5.202   4.025  0.6146  0.7907 -0.5793
  242MOL    H2339065   3.187   4.996   3.893 -0.3878  0.6012  1.4856
  242MOL    H2439066   3.131   4.958   3.684 -1.1106 -0.5557 -0.9267
  242MOL    H2539067   2.995   5.003   3.748  1.8562 -1.4519  2.7541
  242MOL    C2639068   3.274   5.160   3.786 -0.0551  0.4311 -0.7584
  242MOL    C2739069   3.376   5.167   3.897  0.1626 -0.2943  0.0577
  242MOL    N2839070   3.457   5.047   3.895  0.2789 -0.3392 -0.8109
  242MOL    H2939071   3.313   5.116   3.695 -1.9216  3.0190 -2.9082
  242MOL    H3039072   3.242   5.259   3.750  0.6766  1.2548  0.8118
  242MOL    H3139073   3.322   5.160   3.991 -1.5195  0.4324 -0.8390
  242MOL    H3239074   3.535   5.057   3.959 -0.4860  2.8434 -0.3064
  242MOL    H3339075   3.496   5.035   3.803  0.8545  0.4007 -0.6740
  242MOL    C3439076   3.467   5.297   3.916 -1.2055 -0.5354  0.0542
  242MOL    C3539077   3.394   5.437   3.905 -0.3322  0.0796  0.0609
  242MOL    N3639078   3.346   5.463   4.035  0.2216 -0.1813  0.2705
  242MOL    H3739079   3.533   5.295   4.003  2.7182 -2.6376 -2.8399
  242MOL    H3839080   3.534   5.300   3.830 -3.5107 -0.2666 -1.7824
  242MOL    H3939081   3.314   5.436   3.831 -0.2044 -3.4652 -0.0873
  242MOL    H4039082   3.419   5.435   4.098 -1.8304 -0.0257  2.7905
  242MOL    H4139083   3.276   5.393   4.056  0.6874 -0.9667 -0.7487
  242MOL    C4239084   3.485   5.558   3.867 -0.4333 -0.1550 -1.3611
  242MOL    C4339085   3.511   5.562   3.717  0.3635  0.0444  0.4526
  242MOL    N4439086   3.410   5.636   3.646 -0.0995 -0.1573 -0.6424
  242MOL    H4539087   3.432   5.649   3.894 -1.2547 -0.8887 -0.4693
  242MOL    H4639088   3.576   5.562   3.926 -1.9909  1.9263  1.0066
  242MOL    H4739089   3.514   5.460   3.677 -0.0997  1.0866 -2.3555
  242MOL    H4839090   3.431   5.626   3.547 -0.7246 -0.1380 -0.7747
  242MOL    H4939091   3.316   5.607   3.666  0.4714 -2.1018 -0.7015
  242MOL    C5039092   3.642   5.634   3.671  0.8261  0.2519  0.5015
  242MOL    C5139093   3.771   5.559   3.729  0.3556  0.6090  0.0237
  242MOL    N5239094   3.820   5.468   3.625 -0.7989 -0.4299 -0.5061
  242MOL    H5339095   3.649   5.643   3.562 -2.1428 -2.8341 -0.0427
  242MOL    H5439096   3.640   5.738   3.704 -0.9112  0.4540 -0.1909
  242MOL    H5539097   3.756   5.515   3.828  0.6382 -1.4635 -0.8388
  242MOL    H5639098   3.806   5.506   3.533 -0.1970  0.3376 -0.2825
  242MOL    H5739099   3.919   5.463   3.642 -0.9229  1.5766  0.9711
  242MOL    C5839100   3.877   5.672   3.747  0.5997  0.2606  0.4733
  242MOL    C5939101   3.874   5.753   3.883 -0.6053 -0.1186  0.2279
  242MOL    N6039102   3.918   5.680   3.999  0.3141  0.1899 -0.2502
  242MOL    H6139103   3.979   5.634   3.737  0.7360  0.6625  0.3276
  242MOL    H6239104   3.865   5.740   3.663 -0.7744  0.7307  1.0473
  242MOL    H6339105   3.770   5.776   3.905 -0.8397  0.3636 -1.3002
  242MOL    H6439106   3.846   5.613   4.020  0.8538 -0.1756  0.4700
  242MOL    H6539107   3.920   5.739   4.081  4.1002 -1.9005  1.2941
  242MOL    C6639108   3.952   5.883   3.867  0.5918 -0.7466 -0.6130
  242MOL    C6739109   3.906   5.997   3.972  0.7224 -0.0326 -0.2275
  242MOL    N6839110   4.007   6.108   3.974  0.4664  0.9691  1.0302
  242MOL    H6939111   4.060   5.870   3.881  0.6378 -0.0168 -0.2730
  242MOL    H7039112   3.937   5.921   3.766 -4.1032  0.3931  0.4136
  242MOL    H7139113   3.917   5.949   4.069  2.6629  1.1611  0.1798
  242MOL    H7239114   3.997   6.152   3.884  0.9763  2.2171  1.5631
  242MOL    H7339115   4.090   6.050   3.967  1.4731  2.6165 -1.0800
  242MOL    C7439116   3.764   6.055   3.943 -0.6503 -0.7128  1.6497
  242MOL    C7539117   3.663   6.053   4.062  1.0666  0.1660  0.2351
  242MOL    N7639118   3.545   6.117   4.003 -0.2328 -0.0909  0.0636
  242MOL    H7739119   3.765   6.160   3.912 -3.4618 -1.3196 -0.7154
  242MOL    H7839120   3.718   6.007   3.857  1.2524  0.1534  0.0987
  242MOL    H7939121   3.699   6.112   4.146 -0.9942  1.6377  0.1235
  242MOL    H8039122   3.463   6.106   4.061 -0.0172 -0.5074  0.2844
  242MOL    H8139123   3.519   6.062   3.923 -2.6617 -0.9264  1.3927
  242MOL    C8239124   3.610   5.904   4.104 -0.9722  0.0086  0.1125
  242MOL    C8339125   3.530   5.899   4.239 -0.1247  0.0835  0.3804
  242MOL    N8439126   3.482   5.762   4.256 -0.7616  0.2713 -0.2028
  242MOL    H8539127   3.555   5.855   4.024  1.8759 -0.4876 -1.6132
  242MOL    H8639128   3.694   5.836   4.112  0.9379  2.1418 -1.1209
  242MOL    H8739129   3.443   5.958   4.211 -0.6099 -1.9966 -2.6782
  242MOL    H8839130   3.406   5.755   4.322  1.0485  3.1814  2.3370
  242MOL    H8939131   3.453   5.732   4.164  1.3335 -1.4024 -0.3690
  242MOL    C9039132   3.607   5.938   4.366  0.1474  0.1287 -0.7195
  242MOL    C9139133   3.519   5.962   4.499  0.1449 -0.6199 -0.9246
  242MOL    N9239134   3.579   5.893   4.612  0.6429 -0.0829  0.1844
  242MOL    H9339135   3.682   5.861   4.386 -1.3063 -0.9292  0.8007
  242MOL    H9439136   3.664   6.026   4.335 -0.7155  0.9505  0.0348
  242MOL    H9539137   3.419   5.925   4.477 -0.1707  0.4687 -1.3304
  242MOL    H9639138   3.570   5.795   4.588 -2.8538  0.2829 -0.1427
  242MOL    H9739139   3.528   5.902   4.699 -1.7445 -0.7003 -1.1131
  242MOL    C9839140   3.495   6.110   4.533 -0.0402  0.1379 -0.2727
  242MOL    C9939141   3.378   6.182   4.457 -0.0597  0.5910 -0.3600
  242MOL   N10039142   3.304   6.268   4.553  0.1640 -0.3075  0.2231
  242MOL   H10139143   3.490   6.120   4.641 -1.2970  0.9384 -0.3927
  242MOL   H10239144   3.587   6.168   4.520 -0.0892  0.1315 -0.6790
  242MOL   H10339145   3.310   6.101   4.435 -1.1789  1.4859 -0.2340
  242MOL   H10439146   3.258   6.348   4.513 -2.2047 -0.7563  1.9563
  242MOL   H10539147   3.242   6.213   4.611  0.2204  1.2621  1.7825
  242MOL   C10639148   3.434   6.252   4.333  0.3241  0.0830  0.1233
  242MOL   C10739149   3.331   6.313   4.232 -0.4885  0.6539  0.2836
  242MOL   N10839150   3.404   6.372   4.120 -0.4878  0.4851 -0.1358
  242MOL   H10939151   3.504   6.326   4.370  1.5894 -1.4631  0.8996
  242MOL   H11039152   3.497   6.176   4.286 -0.1641 -0.6319  0.6280
  242MOL   H11139153   3.278   6.390   4.288  0.0724  2.2662 -1.3469
  242MOL   H11239154   3.456   6.299   4.075 -0.5673 -0.5001  1.3233
  242MOL   H11339155   3.345   6.410   4.047 -0.5988  0.7768  0.1044
  242MOL   C11439156   3.220   6.214   4.183  0.4075 -0.0352 -0.3697
  242MOL   C11539157   3.115   6.284   4.095  0.4944  0.3224 -0.3840
  242MOL   N11639158   3.031   6.178   4.046 -0.0800  0.9524  0.3076
  242MOL   H11739159   3.262   6.125   4.136 -1.5087 -0.8881 -0.4984
  242MOL   H11839160   3.185   6.177   4.279  1.0873 -2.1549 -0.9160
  242MOL   H11939161   3.160   6.337   4.012  0.1059  1.0469 -0.1366
  242MOL   H12039162   3.091   6.131   3.980  0.4031  0.6576  0.9598
  242MOL   H12139163   2.964   6.205   3.975 -0.4245 -2.6437 -0.8241
  242MOL   C12239164   3.013   6.377   4.175  0.1964  0.0346  0.3666
  242MOL   C12339165   2.979   6.514   4.107 -0.0748  0.2977 -0.0917
  242MOL   N12439166   2.869   6.578   4.184 -0.7957  0.8110  0.0087
  242MOL   H12539167   2.917   6.330   4.192  0.2199 -0.2073 -0.1814
  242MOL   H12639168   3.054   6.398   4.275 -0.3207  0.4749  0.4865
  242MOL   H12739169   2.937   6.489   4.010 -0.0254 -2.0748  0.4836
  242MOL   H12839170   2.799   6.510   4.212 -0.7181 -0.1823 -2.0516
  242MOL   H12939171   2.897   6.635   4.262 -1.4981 -1.2575  1.8238
  242MOL   C13039172   3.084   6.620   4.094  0.5168  0.4457 -0.0951
  242MOL   C13139173   3.044   6.747   4.016 -0.3739  0.1231 -0.2209
  242MOL   N13239174   3.169   6.826   4.013 -0.1065 -1.1526  0.0605
  242MOL   H13339175   3.123   6.648   4.192 -4.1618  3.2264  1.1415
  242MOL   H13439176   3.160   6.571   4.033 -0.2932 -0.8581 -0.0744
  242MOL   H13539177   2.966   6.799   4.071 -0.1799  0.6635 -0.4576
  242MOL   H13639178   3.183   6.852   4.109  0.0257 -1.9742  0.2677
  242MOL   H13739179   3.150   6.916   3.971  1.0638  0.8799  3.7136
  242MOL   C13839180   3.009   6.728   3.869  0.1612 -0.2517  0.1492
  242MOL   C13939181   2.946   6.848   3.793  0.2875 -0.3726  0.1492
  242MOL   N14039182   2.923   6.809   3.649 -0.3901  0.2112  0.0335
  242MOL   H14139183   3.095   6.695   3.811 -0.5263  1.2854 -1.7876
  242MOL   H14239184   2.947   6.640   3.858 -0.1403 -0.0262  0.0408
  242MOL   H14339185   3.025   6.923   3.797  1.6389 -1.7854  1.0267
  242MOL   H14439186   2.922   6.891   3.590  0.0770 -0.0028 -0.2682
  242MOL   H14539187   2.999   6.763   3.601 -0.0414  1.3563 -0.5505
  242MOL   C14639188   2.804   6.901   3.857 -0.0569 -0.6149  0.3819
  242MOL   C14739189   2.792   7.043   3.913 -0.0844 -0.6256  0.0783
  242MOL   N14839190   2.656   7.068   3.956  0.1920  0.0855 -0.2363
  242MOL   H14939191   2.726   6.899   3.781 -1.4890 -0.2610  1.8174
  242MOL   H15039192   2.779   6.829   3.935  2.0983 -2.4936 -0.6234
  242MOL   H15139193   2.825   7.120   3.843 -0.5153  2.5045  3.1698
  242MOL   H15239194   2.595   7.020   3.891 -0.9425  0.2742  0.6614
  242MOL   H15339195   2.658   7.006   4.035 -1.1557 -1.2088 -1.1816
  242MOL   C15439196   2.878   7.070   4.036 -0.0817  0.2865  0.5040
  242MOL   C15539197   2.888   7.204   4.101  0.7992 -0.2579  1.0182
  242MOL   N15639198   2.982   7.219   4.208 -0.1682  0.1142 -0.0898
  242MOL   H15739199   2.838   7.005   4.113 -4.0739  2.0920  0.0860
  242MOL   H15839200   2.981   7.042   4.013 -0.3597 -1.4864  1.3067
  242MOL   H15939201   2.794   7.244   4.138  0.5248  0.3332 -0.2763
  242MOL   H16039202   2.949   7.194   4.300 -2.6589  2.2858 -0.3173
  242MOL   H16139203   3.010   0.039   4.224  1.2306 -0.2605 -0.2238
  242MOL   H16239204   2.923   7.268   4.020  0.1403  0.3266  1.1915
  243MOL     C139205   6.315   5.704   4.995  0.2263 -0.0852  0.5339
  243MOL     C239206   6.262   5.690   5.137  0.1682 -0.3113 -0.0812
  243MOL     N339207   6.125   5.644   5.102 -0.0415  0.6705  0.4731
  243MOL     H439208   6.331   5.609   4.946 -1.4375 -0.8885  1.5075
  243MOL     H539209   6.406   5.763   5.007  0.0203  0.1504  0.9479
  243MOL     H639210   6.255   5.790   5.180  1.2057 -0.2354 -0.0789
  243MOL     H739211   6.125   5.552   5.061 -0.4017  0.7396  0.3102
  243MOL     H839212   6.092   5.703   5.027 -0.9739  0.5325  0.7668
  243MOL     H939213   6.249   5.768   4.936 -0.3636 -1.6146 -0.4651
  243MOL    C1039214   6.348   5.607   5.235  0.7765 -0.0316  0.4077
  243MOL    C1139215   6.277   5.582   5.369 -0.2311 -0.1722  0.5111
  243MOL    N1239216   6.358   5.496   5.449  0.0198 -0.0814 -0.5288
  243MOL    H1339217   6.374   5.512   5.189  0.6796  0.1583 -0.0386
  243MOL    H1439218   6.452   5.639   5.246  1.6429 -2.2054 -1.3029
  243MOL    H1539219   6.174   5.551   5.352 -0.1658  1.0007 -2.2458
  243MOL    H1639220   6.356   5.523   5.546  2.3716  2.4678 -1.1312
  243MOL    H1739221   6.454   5.503   5.416 -0.5613  0.3637 -2.1334
  243MOL    C1839222   6.260   5.708   5.450 -0.1182  0.0326 -0.2751
  243MOL    C1939223   6.198   5.689   5.588  0.4332  0.3641 -0.3105
  243MOL    N2039224   6.227   5.796   5.673  0.7326  0.1719  0.2434
  243MOL    H2139225   6.349   5.770   5.453  0.5140 -0.9278  0.9082
  243MOL    H2239226   6.203   5.776   5.386  0.5387 -1.3533 -2.3979
  243MOL    H2339227   6.226   5.596   5.638 -0.0996  0.7886  0.7789
  243MOL    H2439228   6.321   5.791   5.709 -0.3251  1.8687  3.4490
  243MOL    H2539229   6.167   5.795   5.754 -2.0481  0.3955 -1.7315
  243MOL    C2639230   6.046   5.690   5.577  0.0270  0.1526 -0.2706
  243MOL    C2739231   5.973   5.553   5.550  0.1922  0.4727  0.3257
  243MOL    N2839232   5.967   5.478   5.677  0.7544 -0.1292  0.6835
  243MOL    H2939233   6.000   5.729   5.668  0.7497 -1.5166  0.8419
  243MOL    H3039234   6.015   5.765   5.504  1.3989 -0.4744 -1.5144
  243MOL    H3139235   6.032   5.498   5.476 -0.8243  0.0013 -0.1416
  243MOL    H3239236   6.058   5.437   5.689  1.1301  0.8507  1.2963
  243MOL    H3339237   5.955   5.534   5.761  3.4097  0.4693  0.6967
  243MOL    C3439238   5.828   5.566   5.505  0.0756 -0.2776  0.8274
  243MOL    C3539239   5.815   5.615   5.362  0.2818 -0.7786  0.5134
  243MOL    N3639240   5.887   5.530   5.270  0.3388  0.1397  0.2141
  243MOL    H3739241   5.791   5.464   5.499 -0.6822  0.0798 -0.7049
  243MOL    H3839242   5.783   5.631   5.580 -0.4826 -0.8840  1.0231
  243MOL    H3939243   5.848   5.718   5.351  0.8109 -1.1347 -1.4951
  243MOL    H4039244   5.835   5.520   5.184  2.5354  0.9994 -1.2335
  243MOL    H4139245   5.971   5.576   5.240  0.1824  0.5572  0.4093
  243MOL    C4239246   5.666   5.617   5.325  0.3388  0.2080 -0.8592
  243MOL    C4339247   5.588   5.743   5.363  0.2325  0.0674 -0.1544
  243MOL    N4439248   5.494   5.775   5.255 -0.7384  0.3791 -0.0788
  243MOL    H4539249   5.671   5.608   5.217  0.7020 -0.7321 -0.7745
  243MOL    H4639250   5.621   5.519   5.342  0.7207  0.3025  0.7882
  243MOL    H4739251   5.657   5.822   5.391  0.0269 -1.0221  3.6815
  243MOL    H4839252   5.411   5.807   5.303 -1.3636  0.3831 -1.1389
  243MOL    H4939253   5.465   5.683   5.226  1.0581 -0.5223  0.8974
  243MOL    C5039254   5.513   5.719   5.496  0.0382  0.9660  0.3247
  243MOL    C5139255   5.486   5.838   5.585  0.1053 -0.2000  0.7382
  243MOL    N5239256   5.396   5.791   5.689 -0.0189  0.4018 -0.2482
  243MOL    H5339257   5.416   5.674   5.472  1.0890 -1.1381 -0.0494
  243MOL    H5439258   5.565   5.643   5.553 -1.3234 -0.1526  0.1191
  243MOL    H5539259   5.445   5.920   5.527  3.2789  1.8029  1.1924
  243MOL    H5639260   5.307   5.772   5.644 -0.2861  1.4156 -0.1713
  243MOL    H5739261   5.372   5.871   5.745  0.2954 -0.4681  1.1381
  243MOL    C5839262   5.615   5.891   5.649 -0.1947 -0.0066 -0.0164
  243MOL    C5939263   5.605   6.040   5.682  0.3364  0.9170 -0.7143
  243MOL    N6039264   5.723   6.058   5.773  0.8293 -0.8873 -0.2084
  243MOL    H6139265   5.642   5.827   5.732 -0.3196  0.7594  0.6192
  243MOL    H6239266   5.703   5.888   5.585  0.0033 -0.7064  0.2876
  243MOL    H6339267   5.512   6.055   5.735 -0.9506 -0.0773 -2.6199
  243MOL    H6439268   5.813   6.056   5.727  1.6560 -3.5556  1.4086
  243MOL    H6539269   5.737   5.993   5.848  0.1109 -1.6557 -0.7348
  243MOL    C6639270   5.615   6.139   5.563  0.3840  0.2176 -0.1082
  243MOL    C6739271   5.515   6.261   5.570  0.0627  0.5747  0.5701
  243MOL    N6839272   5.536   6.326   5.695  0.4734 -0.1957  0.0402
  243MOL    H6939273   5.715   6.183   5.559  0.7835 -0.9169 -3.6000
  243MOL    H7039274   5.609   6.084   5.469  3.5184 -0.1198 -0.1450
  243MOL    H7139275   5.418   6.218   5.545  1.0477 -0.9179 -0.7398
  243MOL    H7239276   5.447   6.350   5.736  1.9328  1.8567  2.1759
  243MOL    H7339277   5.587   6.272   5.764 -0.1482 -1.3617 -0.4125
  243MOL    C7439278   5.557   6.372   5.470  0.3723  0.6978  0.9478
  243MOL    C7539279   5.445   6.479   5.459 -0.0683 -0.2807  0.5073
  243MOL    N7639280   5.504   6.613   5.445 -0.0129  0.0179 -0.3066
  243MOL    H7739281   5.651   6.423   5.493  0.3321  1.2223 -0.0523
  243MOL    H7839282   5.576   6.324   5.375 -0.7507  0.0080  1.0542
  243MOL    H7939283   5.390   6.500   5.551 -0.3611  0.2703  0.2076
  243MOL    H8039284   5.436   6.688   5.451  0.4320  0.5754 -1.8721
  243MOL    H8139285   5.570   6.643   5.515 -1.2234 -1.8320  1.6798
  243MOL    C8239286   5.350   6.441   5.339  0.1612  0.0153  0.6554
  243MOL    C8339287   5.230   6.539   5.323 -0.3192  0.7131  0.4561
  243MOL    N8439288   5.168   6.497   5.204 -0.0921 -0.4666 -0.4673
  243MOL    H8539289   5.416   6.416   5.255  1.4805  1.2058  1.3039
  243MOL    H8639290   5.318   6.339   5.360  0.4673 -0.2180  0.0127
  243MOL    H8739291   5.255   6.644   5.314 -0.0767  0.7922  1.9625
  243MOL    H8839292   5.225   6.500   5.120 -0.7359 -0.1102 -0.8923
  243MOL    H8939293   5.085   6.549   5.181  0.5100  0.5250 -0.4204
  243MOL    C9039294   5.126   6.529   5.435  0.6165  0.8478  0.7800
  243MOL    C9139295   5.025   6.644   5.441 -0.9034 -0.2740 -0.4058
  243MOL    N9239296   5.088   6.771   5.434 -0.0419  0.0618 -0.0711
  243MOL    H9339297   5.088   6.427   5.438 -1.2809  1.4285 -1.6714
  243MOL    H9439298   5.185   6.525   5.526  2.1706 -1.2960 -0.2539
  243MOL    H9539299   4.977   6.637   5.539 -2.2994 -2.6413 -1.2155
  243MOL    H9639300   5.017   6.842   5.426 -0.6258 -0.4704  0.3881
  243MOL    H9739301   5.127   6.787   5.526  0.5766  0.5667 -0.4211
  243MOL    C9839302   4.916   6.640   5.334  0.3104  0.3379  0.0333
  243MOL    C9939303   4.822   6.522   5.354 -0.8171  0.3461 -0.5277
  243MOL   N10039304   4.712   6.561   5.445 -1.1382 -0.1679  0.3861
  243MOL   H10139305   4.857   6.732   5.340  1.8011  1.3121  0.0855
  243MOL   H10239306   4.967   6.632   5.238 -0.3366  0.1720 -0.2966
  243MOL   H10339307   4.882   6.442   5.398 -2.0355 -0.0655  0.4060
  243MOL   H10439308   4.652   6.620   5.389 -0.6287  0.4520  0.4984
  243MOL   H10539309   4.649   6.484   5.466 -2.3774  1.0082  1.1136
  243MOL   C10639310   4.760   6.464   5.231  0.1844  0.2428  0.0046
  243MOL   C10739311   4.845   6.377   5.143  0.8246 -0.9098 -0.0100
  243MOL   N10839312   4.913   6.268   5.209 -0.0590 -0.1697 -0.1913
  243MOL   H10939313   4.685   6.394   5.268 -1.0573  0.8242 -1.3592
  243MOL   H11039314   4.710   6.536   5.167 -0.4778  2.0803  2.5026
  243MOL   H11139315   4.913   6.456   5.112  0.6718 -1.1385 -0.9572
  243MOL   H11239316   4.873   6.283   5.301  1.2023 -0.3585  0.4045
  243MOL   H11339317   5.013   6.287   5.216  0.6159 -3.1045 -1.4215
  243MOL   C11439318   4.765   6.330   5.023 -0.2797 -0.0655 -0.5304
  243MOL   C11539319   4.786   6.418   4.890  0.1666 -0.1207 -0.2453
  243MOL   N11639320   4.739   6.337   4.779  0.5771  0.1651  0.3206
  243MOL   H11739321   4.792   6.226   5.008  1.9077  0.1031  1.8497
  243MOL   H11839322   4.659   6.320   5.043 -0.0236  2.7869  2.7518
  243MOL   H11939323   4.890   6.438   4.862 -0.2319  0.9451 -0.9754
  243MOL   H12039324   4.768   6.241   4.788 -0.4788  0.0298  2.5237
  243MOL   H12139325   4.795   6.349   4.695 -0.0794  0.7283 -0.0420
  243MOL   C12239326   4.719   6.559   4.893  0.0687  0.4335 -0.0414
  243MOL   C12339327   4.813   6.671   4.932  0.1060 -0.4477 -0.6268
  243MOL   N12439328   4.912   6.692   4.831  0.1424  0.6670  0.0199
  243MOL   H12539329   4.667   6.587   4.801  0.4843 -0.7662 -0.6456
  243MOL   H12639330   4.638   6.550   4.965  0.0509 -2.3461 -0.3638
  243MOL   H12739331   4.868   6.651   5.023 -0.2556  0.1007 -0.2844
  243MOL   H12839332   4.857   6.677   4.747 -0.4195 -1.3353  0.7162
  243MOL   H12939333   4.976   6.615   4.827  0.0339  0.5433  0.6607
  243MOL   C13039334   4.738   6.805   4.954  0.9905  0.0796  0.5341
  243MOL   C13139335   4.812   6.930   5.024  0.2411 -1.1068  0.3394
  243MOL   N13239336   4.916   6.983   4.938 -0.1716 -0.5624  0.1840
  243MOL   H13339337   4.680   6.837   4.867 -0.7247  1.1998  2.0444
  243MOL   H13439338   4.655   6.788   5.023  1.1519 -1.2807  0.4035
  243MOL   H13539339   4.866   6.900   5.114  1.1935  1.2956  0.6039
  243MOL   H13639340   5.002   6.960   4.986 -1.4978 -4.2754  0.9822
  243MOL   H13739341   4.910   6.911   4.868 -1.1488  0.9261 -1.2877
  243MOL   C13839342   4.727   7.055   5.070  0.3026  0.3264  0.4841
  243MOL   C13939343   4.627   7.047   5.186  0.8130 -0.0670  0.3503
  243MOL   N14039344   4.694   6.993   5.304 -0.5411  0.1402  0.4391
  243MOL   H14139345   4.805   7.123   5.105  1.8246 -0.1628 -1.8987
  243MOL   H14239346   4.677   7.098   4.983  0.8786 -0.2076 -0.1107
  243MOL   H14339347   4.553   6.970   5.168  0.8234 -0.2065  0.9070
  243MOL   H14439348   4.745   7.065   5.353  0.4774 -0.6935  0.6162
  243MOL   H14539349   4.765   6.938   5.259 -0.7326  1.3623 -1.4281
  243MOL   C14639350   4.547   7.184   5.215  0.1188  0.7435  0.5596
  243MOL   C14739351   4.428   7.193   5.123  0.1348 -1.2239 -0.4732
  243MOL   N14839352   4.333   7.092   5.143 -0.5784  0.0602 -0.0824
  243MOL   H14939353   4.512   7.165   5.316 -1.4068  0.5485  0.0192
  243MOL   H15039354   4.613   7.270   5.219 -2.4441  2.7579  0.5869
  243MOL   H15139355   4.456   7.167   5.021  0.1755 -1.4682 -0.4008
  243MOL   H15239356   4.380   7.012   5.183  0.5740  1.8094  2.1843
  243MOL   H15339357   4.276   7.124   5.220 -0.4399  1.3884 -0.5163
  243MOL   C15439358   4.360   0.059   5.115  0.5064 -0.2725  0.3620
  243MOL   C15539359   4.436   0.165   5.027 -0.0941 -0.3066 -0.2076
  243MOL   N15639360   4.351   0.279   5.011  0.3650  0.8434  0.0038
  243MOL   H15739361   4.262   0.047   5.068  1.6920 -1.4953 -1.8832
  243MOL   H15839362   4.346   0.099   5.216  0.3697  1.2743 -0.2480
  243MOL   H15939363   4.453   0.123   4.928 -1.5638  0.9388 -0.9948
  243MOL   H16039364   4.370   0.316   4.919  2.0113  1.8477  0.7253
  243MOL   H16139365   4.253   0.252   5.008  0.4305  0.7408 -1.1486
  243MOL   H16239366   4.534   0.194   5.064  0.9532 -2.2385 -1.3747
  244MOL     C139367   6.766   2.543   1.438  0.1068 -0.0317  0.1469
  244MOL     C239368   6.798   2.394   1.409 -0.5991  0.3363 -0.7425
  244MOL     N339369   6.841   2.339   1.537 -0.0823 -0.9938  0.4205
  244MOL     H439370   6.743   2.593   1.344 -3.7805 -0.8918  0.5337
  244MOL     H539371   6.845   2.598   1.488  1.7868 -3.6994  1.7129
  244MOL     H639372   6.878   2.384   1.337 -0.2840 -0.1323 -0.3286
  244MOL     H739373   6.765   2.344   1.604  1.2720 -4.1532  2.3357
  244MOL     H839374   6.851   2.239   1.521 -0.6911 -1.0878  0.6092
  244MOL     H939375   6.676   2.542   1.500  0.5492 -0.1473  0.7990
  244MOL    C1039376   6.672   2.317   1.355  0.6724  0.2578 -0.6780
  244MOL    C1139377   6.631   2.331   1.203  0.4979 -0.4038 -0.3658
  244MOL    N1239378   6.712   2.238   1.125 -0.3845 -0.2509 -0.1805
  244MOL    H1339379   6.706   2.214   1.363  0.6552  0.3061  0.0979
  244MOL    H1439380   6.592   2.329   1.427  1.1238  0.0630 -0.1364
  244MOL    H1539381   6.630   2.437   1.178  1.5219 -0.8557 -2.3828
  244MOL    H1639382   6.797   2.228   1.179 -0.4506  0.0967 -0.0078
  244MOL    H1739383   6.740   2.286   1.041 -0.4084  0.7700  0.3898
  244MOL    C1839384   6.480   2.278   1.186  0.4783  0.0250 -0.1609
  244MOL    C1939385   6.377   2.376   1.248  0.5911 -0.3991  0.0422
  244MOL    N2039386   6.334   2.462   1.138  0.2840  0.1855  0.7055
  244MOL    H2139387   6.465   2.255   1.080  1.7892  1.3284 -0.6558
  244MOL    H2239388   6.465   2.185   1.240  0.3287  0.4005  0.4515
  244MOL    H2339389   6.435   2.444   1.310  0.0999 -0.4288  0.5424
  244MOL    H2439390   6.412   2.496   1.084 -1.4382  0.2629 -1.8381
  244MOL    H2539391   6.277   2.542   1.163 -1.3512 -0.2450 -1.4733
  244MOL    C2639392   6.255   2.305   1.320 -0.6306  0.3947  0.3605
  244MOL    C2739393   6.202   2.383   1.441  0.5705 -0.1221  0.2361
  244MOL    N2839394   6.063   2.368   1.454  0.0906 -0.0045  0.5612
  244MOL    H2939395   6.173   2.290   1.249 -1.0147 -2.3831  1.3106
  244MOL    H3039396   6.280   2.205   1.356  0.1043  0.8129  1.0195
  244MOL    H3139397   6.202   2.491   1.426  1.3553  0.0012  1.0492
  244MOL    H3239398   6.036   2.290   1.396  2.5948  0.8142 -1.8241
  244MOL    H3339399   6.013   2.445   1.411 -2.0172 -1.3817  0.5019
  244MOL    C3439400   6.277   2.338   1.567 -0.5944 -0.4837 -0.5542
  244MOL    C3539401   6.242   2.406   1.697  0.0213  0.1633  0.5711
  244MOL    N3639402   6.304   2.327   1.804 -0.1084 -0.4131  0.5891
  244MOL    H3739403   6.261   2.231   1.579 -1.2103 -0.5079 -1.5028
  244MOL    H3839404   6.384   2.353   1.554 -0.4783  0.5525  1.5055
  244MOL    H3939405   6.136   2.399   1.721 -0.0312 -1.6468 -0.1363
  244MOL    H4039406   6.291   2.371   1.894  0.3460  1.0304 -0.0218
  244MOL    H4139407   6.267   2.234   1.818  0.0707 -0.5349  0.2558
  244MOL    C4239408   6.283   2.552   1.699  0.0817  0.4031 -0.1624
  244MOL    C4339409   6.430   2.585   1.656  0.7219 -0.8303  0.1630
  244MOL    N4439410   6.435   2.629   1.516 -0.1899  0.6777  0.4517
  244MOL    H4539411   6.211   2.610   1.641 -1.2965  0.8267  1.8932
  244MOL    H4639412   6.272   2.605   1.794  0.4731  0.1469  0.0272
  244MOL    H4739413   6.498   2.501   1.668 -0.0760 -1.8006 -1.7847
  244MOL    H4839414   6.396   2.552   1.463 -0.4066 -2.3867  4.7260
  244MOL    H4939415   6.532   2.629   1.490  0.0889 -0.9888  1.3974
  244MOL    C5039416   6.485   2.702   1.742  0.3476 -0.4070 -0.1028
  244MOL    C5139417   6.531   2.682   1.892  0.1859  0.2100 -1.1841
  244MOL    N5239418   6.411   2.689   1.978 -0.5634 -0.0607  0.3957
  244MOL    H5339419   6.575   2.740   1.693  1.0502 -1.5683  0.2755
  244MOL    H5439420   6.426   2.794   1.741 -2.1979 -1.9391  1.6258
  244MOL    H5539421   6.602   2.761   1.916  1.8155 -1.0860 -1.6108
  244MOL    H5639422   6.443   2.685   2.074  0.3667  0.0232  0.0985
  244MOL    H5739423   6.371   2.781   1.966  0.6595  0.1439 -2.6588
  244MOL    C5839424   6.602   2.549   1.922  0.4177  0.2268 -0.9248
  244MOL    C5939425   6.730   2.522   1.840  1.1460 -0.2269 -1.2897
  244MOL    N6039426   6.823   2.632   1.870  0.1764 -0.2371  0.3597
  244MOL    H6139427   6.627   2.552   2.028 -1.8148  2.0890 -0.4032
  244MOL    H6239428   6.533   2.467   1.902 -1.0781  1.3518 -0.5139
  244MOL    H6339429   6.714   2.524   1.732 -0.9553  2.2366 -0.9823
  244MOL    H6439430   6.796   2.706   1.807 -1.8020 -2.4532 -1.4899
  244MOL    H6539431   6.921   2.612   1.858  0.2238  0.0042  0.3427
  244MOL    C6639432   6.795   2.386   1.876 -0.7113  0.4569  0.5625
  244MOL    C6739433   6.705   2.268   1.847 -0.4395  1.0089 -0.0193
  244MOL    N6839434   6.635   2.274   1.720  0.4582 -0.0907  0.1597
  244MOL    H6939435   6.885   2.378   1.815  0.4630 -1.8687  2.4935
  244MOL    H7039436   6.831   2.394   1.979 -0.0496 -1.2431  0.4736
  244MOL    H7139437   6.635   2.261   1.930 -1.4165  0.4592 -0.8825
  244MOL    H7239438   6.597   2.183   1.694  1.2672 -0.6864  1.0618
  244MOL    H7339439   6.544   2.317   1.730  1.2970  1.2780  2.0549
  244MOL    C7439440   6.783   2.136   1.848 -0.3605 -0.8877  0.0299
  244MOL    C7539441   6.845   2.099   1.986 -0.8401  0.3908 -0.0858
  244MOL    N7639442   6.747   2.044   2.072  0.4857  0.1793 -0.6214
  244MOL    H7739443   6.719   2.054   1.814 -1.0834  0.4351 -1.9088
  244MOL    H7839444   6.841   2.141   1.756 -0.2644 -1.5759  0.0507
  244MOL    H7939445   6.901   2.182   2.028  1.3328 -0.0205 -2.0384
  244MOL    H8039446   6.706   2.126   2.115  1.3485  0.2542  0.0721
  244MOL    H8139447   6.802   2.007   2.148 -1.6814 -0.4274  0.6960
  244MOL    C8239448   6.955   1.994   1.968 -0.0471 -0.7597  0.6007
  244MOL    C8339449   7.043   1.951   2.090 -0.2815 -0.1091 -0.6412
  244MOL    N8439450   7.095   1.821   2.054 -0.1255 -0.3502 -0.0867
  244MOL    H8539451   6.909   1.909   1.917  0.2420 -0.8859  0.5461
  244MOL    H8639452   7.025   2.046   1.903 -0.0842  0.0429  1.1946
  244MOL    H8739453   6.972   1.939   2.172  0.5624 -0.1712  0.0981
  244MOL    H8839454   7.156   1.828   1.973  0.3676 -1.1913  0.2089
  244MOL    H8939455   7.019   1.761   2.025 -0.2033 -0.8209  1.0618
  244MOL    C9039456   7.163   2.036   2.125  1.2007  0.5426 -0.4153
  244MOL    C9139457   7.126   2.182   2.165  0.0824 -0.1118 -0.1792
  244MOL    N9239458   7.045   2.189   2.283 -0.2370 -0.0400  0.2716
  244MOL    H9339459   7.221   1.980   2.197 -1.6213  1.5088  2.7289
  244MOL    H9439460   7.226   2.068   2.042  0.4470 -0.9568 -1.5800
  244MOL    H9539461   7.073   2.238   2.089  2.0659 -0.3732 -1.8296
  244MOL    H9639462   7.020   2.286   2.287 -0.7752 -0.1798  0.3107
  244MOL    H9739463   6.954   2.149   2.268 -0.4004 -0.1087  1.4143
  244MOL    C9839464   7.261   2.258   2.195  0.4204 -0.0344 -1.0352
  244MOL    C9939465   7.255   2.415   2.180 -0.1048 -0.0246  0.3804
  244MOL   N10039466   0.063   2.464   2.297  0.0970  0.0078 -0.4226
  244MOL   H10139467   0.032   2.220   2.286 -1.1768 -1.2814 -0.7053
  244MOL   H10239468   0.051   2.220   2.116  2.2085 -0.1639  0.4728
  244MOL   H10339469   7.152   2.450   2.173  0.5242  1.7884 -0.0270
  244MOL   H10439470   0.095   2.559   2.282  1.4813 -0.5307 -0.9474
  244MOL   H10539471   0.008   2.463   2.381  0.1939  0.2862 -0.3557
  244MOL   C10639472   0.059   2.456   2.051 -0.0146  0.3996  0.0893
  244MOL   C10739473   0.060   2.611   2.028 -0.7205 -0.0356 -0.1454
  244MOL   N10839474   0.178   2.673   2.074  0.0723 -0.4035 -0.2167
  244MOL   H10939475   0.160   2.416   2.046  0.0586  0.2547  2.2652
  244MOL   H11039476   0.012   2.402   1.969  0.2099 -1.0603  0.9036
  244MOL   H11139477   7.263   2.663   2.090  1.0234  2.3729 -0.0223
  244MOL   H11239478   0.150   2.746   2.138 -0.4127 -0.0738 -0.7950
  244MOL   H11339479   0.214   2.602   2.136  0.6135  0.2452  0.2242
  244MOL   C11439480   0.038   2.649   1.879  0.0819  0.0600  0.9125
  244MOL   C11539481   7.160   2.644   1.844 -0.3576  0.3502  0.4191
  244MOL   N11639482   7.110   2.784   1.833 -0.1745  0.0017  0.1168
  244MOL   H11739483   0.069   2.751   1.859  1.5945 -0.0843  2.3992
  244MOL   H11839484   0.107   2.582   1.826  0.3697  0.5382  0.6821
  244MOL   H11939485   7.100   2.589   1.916 -0.4951 -0.6203 -0.4413
  244MOL   H12039486   7.024   2.802   1.882  0.2835  1.7467  0.3124
  244MOL   H12139487   7.171   2.841   1.890  0.8641 -0.7267 -0.2524
  244MOL   C12239488   7.141   2.584   1.699  0.5954 -0.3397  0.1799
  244MOL   C12339489   7.196   2.441   1.651 -0.9468 -0.6397 -0.5206
  244MOL   N12439490   7.117   2.356   1.719 -0.6628  0.3748 -0.5686
  244MOL   H12539491   7.035   2.591   1.675  0.6414 -0.0209  0.0729
  244MOL   H12639492   7.197   2.654   1.637  1.1892 -0.4026  0.6378
  244MOL   H12739493   0.022   2.432   1.689 -1.1724  1.4384  0.6550
  244MOL   H12839494   7.133   2.257   1.703  2.7495  0.8837 -0.8146
  244MOL   H12939495   7.020   2.368   1.695 -0.8555  1.1270  0.6045
  244MOL   C13039496   7.178   2.417   1.495  0.4057  0.1340 -0.2681
  244MOL   C13139497   0.022   2.473   1.421  0.2311 -0.1738  0.0249
  244MOL   N13239498   0.142   2.388   1.445 -0.2812 -0.8140 -0.5207
  244MOL   H13339499   7.167   2.309   1.482  1.5740 -0.0502  0.1980
  244MOL   H13439500   7.079   2.450   1.465 -0.8238 -1.7981  1.5131
  244MOL   H13539501   0.047   2.573   1.457  1.5746 -0.1884 -0.8353
  244MOL   H13639502   0.134   2.333   1.530 -0.4199 -0.5884 -0.3866
  244MOL   H13739503   0.164   2.329   1.366  0.1489  0.1258 -1.0969
  244MOL   C13839504   0.010   2.480   1.264  0.0245  0.5431  0.0788
  244MOL   C13939505   7.184   2.580   1.207 -0.0007  0.7456 -0.3724
  244MOL   N14039506   7.201   2.720   1.250  0.1020  0.3314  0.2391
  244MOL   H14139507   0.107   2.512   1.226 -0.9149  0.3565 -2.5740
  244MOL   H14239508   7.267   2.379   1.228 -0.4993  0.0753  1.6188
  244MOL   H14339509   7.085   2.562   1.250  0.4152  0.0777  0.3378
  244MOL   H14439510   7.115   2.770   1.231 -0.4043 -0.0595  1.4922
  244MOL   H14539511   7.227   2.742   1.345 -1.9235 -0.5910  1.0396
  244MOL   C14639512   7.157   2.574   1.056 -0.1903  0.9209  0.0218
  244MOL   C14739513   7.060   2.463   1.019 -0.7150  0.8098 -0.0818
  244MOL   N14839514   6.925   2.508   1.035  0.1356 -0.4246 -0.2808
  244MOL   H14939515   7.113   2.668   1.023 -0.1060 -0.5211 -4.5618
  244MOL   H15039516   7.251   2.571   1.001 -0.9234  3.3208 -1.4300
  244MOL   H15139517   7.070   2.380   1.089 -1.3770  0.4762 -0.3812
  244MOL   H15239518   6.901   2.592   0.985  2.6374  0.7666  0.4503
  244MOL   H15339519   6.906   2.528   1.132  0.2551  1.0607 -0.5494
  244MOL   C15439520   7.061   2.415   0.873 -0.3768 -0.2328 -0.3670
  244MOL   C15539521   7.189   2.348   0.818 -0.0211 -0.2561  0.5672
  244MOL   N15639522   7.183   2.297   0.681 -1.2411 -0.3882  0.4758
  244MOL   H15739523   6.968   2.360   0.856 -0.3634 -0.0672 -0.9926
  244MOL   H15839524   7.027   2.501   0.815 -1.6405 -0.3033  0.2398
  244MOL   H15939525   7.193   2.253   0.872 -0.6812 -0.4295  0.3221
  244MOL   H16039526   7.136   2.362   0.618 -1.3534 -1.6175 -0.7240
  244MOL   H16139527   7.272   2.301   0.635 -2.0724 -0.0675 -1.1607
  244MOL   H16239528   7.275   2.409   0.843 -0.9834  1.8640 -1.1471
  245MOL     C139529   3.488   1.295   5.491 -0.3689  0.2817  0.2694
  245MOL     C239530   3.487   1.191   5.381 -0.2956  0.6380 -0.0938
  245MOL     N339531   3.381   1.093   5.411  0.4233 -0.4252  0.1503
  245MOL     H439532   3.408   1.369   5.482 -0.6237 -0.0705 -0.4184
  245MOL     H539533   3.580   1.353   5.481  0.4134 -1.0460 -0.2818
  245MOL     H639534   3.581   1.136   5.391 -0.2540  0.7393  0.0687
  245MOL     H739535   3.331   1.053   5.333  0.6326  0.0529 -0.2310
  245MOL     H839536   3.418   1.013   5.459 -3.5392 -2.4118  0.0330
  245MOL     H939537   3.475   1.241   5.585  1.1582 -0.5485  0.0038
  245MOL    C1039538   3.475   1.252   5.242 -0.2295  0.6592 -0.3943
  245MOL    C1139539   3.605   1.319   5.186  0.1795  0.9102 -0.0768
  245MOL    N1239540   3.578   1.315   5.039 -0.0264  0.4747 -0.2564
  245MOL    H1339541   3.436   1.172   5.179 -0.2833 -0.6409  1.2518
  245MOL    H1439542   3.385   1.314   5.250 -0.5658  0.1952 -0.5573
  245MOL    H1539543   3.690   1.254   5.210 -2.5603 -3.4933 -1.6129
  245MOL    H1639544   3.655   1.352   4.986 -0.0687 -0.1444 -0.7590
  245MOL    H1739545   3.562   1.223   5.001  0.1154  0.1969  0.3490
  245MOL    C1839546   3.614   1.469   5.230 -0.7700  0.3731  0.1575
  245MOL    C1939547   3.764   1.517   5.242 -0.0033 -0.3831 -0.2578
  245MOL    N2039548   3.768   1.663   5.245  0.3630  0.1460 -0.0621
  245MOL    H2139549   3.568   1.531   5.153  0.7991 -0.4368 -1.4644
  245MOL    H2239550   3.558   1.492   5.321  1.9889 -3.0659  2.8727
  245MOL    H2339551   3.802   1.489   5.143 -0.9017  0.2217 -0.7853
  245MOL    H2439552   3.866   1.685   5.231  0.0429  1.4756 -0.2954
  245MOL    H2539553   3.715   1.702   5.168  0.6442 -1.3773 -1.0441
  245MOL    C2639554   3.852   1.460   5.360 -0.3820  0.1183 -0.1489
  245MOL    C2739555   4.007   1.477   5.348  0.0802 -0.6293 -0.0575
  245MOL    N2839556   4.063   1.496   5.478  0.0944  0.3483  0.0635
  245MOL    H2939557   3.809   1.493   5.454 -2.9671 -3.0479 -0.1290
  245MOL    H3039558   3.831   1.353   5.359 -0.0391  0.0461  0.0525
  245MOL    H3139559   4.028   1.572   5.297 -0.4753  1.5543  3.5979
  245MOL    H3239560   4.012   1.558   5.539  0.3250 -0.0022  0.6127
  245MOL    H3339561   4.153   1.539   5.464 -0.7091  1.3752 -2.2487
  245MOL    C3439562   4.086   1.365   5.272 -0.5053 -0.1599  0.7249
  245MOL    C3539563   4.045   1.337   5.122  0.6486 -1.1267  0.4418
  245MOL    N3639564   4.080   1.459   5.052 -0.0523  0.4322 -0.6053
  245MOL    H3739565   4.193   1.388   5.271 -0.5718  0.1361  0.3723
  245MOL    H3839566   4.092   1.280   5.339  0.6565 -1.3808 -0.8947
  245MOL    H3939567   3.938   1.322   5.108  0.9880 -2.5445 -0.7269
  245MOL    H4039568   4.055   1.529   5.120  3.6417  0.9309  0.3443
  245MOL    H4139569   4.179   1.472   5.065 -0.0386 -0.1479 -0.0784
  245MOL    C4239570   4.131   1.227   5.054  0.4116  0.9425  0.1305
  245MOL    C4339571   4.080   1.091   5.091 -0.5180  0.0738 -0.1211
  245MOL    N4439572   4.065   1.015   4.971  0.2252  0.3569  0.0829
  245MOL    H4539573   4.120   1.247   4.947  0.9004  0.8231  0.0576
  245MOL    H4639574   4.236   1.240   5.079  1.0718  1.2777 -2.5754
  245MOL    H4739575   3.983   1.096   5.140 -0.7158 -0.2188 -0.4775
  245MOL    H4839576   4.004   0.937   4.991 -2.4778  2.0431 -1.2515
  245MOL    H4939577   4.016   1.077   4.907 -0.3186 -0.9972 -0.8243
  245MOL    C5039578   4.175   1.015   5.181  0.3168  0.1064  0.5673
  245MOL    C5139579   4.108   0.904   5.268  0.2699  0.8169  0.2686
  245MOL    N5239580   4.203   0.796   5.292  0.5114 -0.0182  0.1106
  245MOL    H5339581   4.261   0.989   5.119 -1.4441 -1.5810 -1.2566
  245MOL    H5439582   4.208   1.086   5.256  0.0302 -0.0143  0.8088
  245MOL    H5539583   4.030   0.849   5.214  0.4608  0.3067  0.5005
  245MOL    H5639584   4.296   0.813   5.258  0.3627 -0.2435 -0.4227
  245MOL    H5739585   4.208   0.764   5.388 -0.7314 -1.5647 -0.3144
  245MOL    C5839586   4.050   0.938   5.411  0.5463  0.6630 -0.0559
  245MOL    C5939587   3.916   1.018   5.414 -0.2654  0.1230  1.0296
  245MOL    N6039588   3.816   0.948   5.338 -0.2474  0.0579 -0.1137
  245MOL    H6139589   4.027   0.851   5.473 -0.8703  1.6059  0.7717
  245MOL    H6239590   4.132   0.980   5.470  1.0121  0.7551 -0.7558
  245MOL    H6339591   3.944   1.108   5.358  1.3744  0.1970  1.9362
  245MOL    H6439592   3.750   1.015   5.300  0.1032 -0.4102 -1.5680
  245MOL    H6539593   3.874   0.926   5.258 -2.8314  0.9502 -2.3315
  245MOL    C6639594   3.867   1.061   5.551  0.1383  0.6455  0.0183
  245MOL    C6739595   3.981   1.141   5.629 -0.1717  0.0256  0.0837
  245MOL    N6839596   3.935   1.264   5.691 -0.1325 -0.2133 -0.3528
  245MOL    H6939597   3.778   1.118   5.527  0.8081  0.9668 -1.8079
  245MOL    H7039598   3.834   0.979   5.615 -1.6958  1.1482 -0.2727
  245MOL    H7139599   4.063   1.174   5.564  1.4729 -0.0239  2.1001
  245MOL    H7239600   3.977   1.329   5.627 -0.1149 -0.3715 -0.5030
  245MOL    H7339601   3.987   1.269   5.777  0.6299  0.5272 -0.8559
  245MOL    C7439602   4.036   1.061   5.751 -0.1272 -0.3960 -0.8438
  245MOL    C7539603   4.169   1.120   5.816  0.3538  0.0461  0.0688
  245MOL    N7639604   4.131   1.164   5.955 -0.0023  0.3995 -0.1008
  245MOL    H7739605   3.955   1.063   5.825 -0.9838  0.6511 -1.8031
  245MOL    H7839606   4.050   0.955   5.731 -1.1281 -0.7568  0.3018
  245MOL    H7939607   4.221   1.198   5.761 -0.5672 -0.6976 -1.9108
  245MOL    H8039608   4.082   1.253   5.950  0.8624  0.7639 -2.7403
  245MOL    H8139609   4.069   1.095   5.993 -0.2424  1.2523  1.1180
  245MOL    C8239610   4.268   1.006   5.834 -0.4328 -0.1377 -0.0661
  245MOL    C8339611   4.315   0.933   5.703 -0.0417 -0.4097 -0.0267
  245MOL    N8439612   4.374   1.033   5.623  0.7506 -0.4509  0.5122
  245MOL    H8539613   4.355   1.041   5.889  0.4735  1.3367 -2.3755
  245MOL    H8639614   4.216   0.934   5.897  0.7561 -0.3895  0.6426
  245MOL    H8739615   4.235   0.887   5.644 -0.5448 -1.5329  1.4866
  245MOL    H8839616   4.461   1.058   5.668  1.5456 -1.3795 -0.4645
  245MOL    H8939617   4.399   0.985   5.537 -0.0287 -0.3072  0.1974
  245MOL    C9039618   4.408   0.816   5.731  0.0375  0.2220  0.2415
  245MOL    C9139619   4.401   0.689   5.635 -0.1982  0.2541  0.0791
  245MOL    N9239620   4.536   0.641   5.601 -0.6496  0.4158 -0.2971
  245MOL    H9339621   4.512   0.847   5.728  0.7795 -2.1937  0.4550
  245MOL    H9439622   4.396   0.775   5.831  0.6233 -1.1393 -0.2436
  245MOL    H9539623   4.361   0.723   5.540  0.6423 -1.1155 -0.7789
  245MOL    H9639624   4.542   0.556   5.547  3.2010  0.2588  0.2562
  245MOL    H9739625   4.589   0.619   5.684  0.8032  2.2590 -0.7086
  245MOL    C9839626   4.304   0.576   5.694  0.5386 -0.0563 -0.2177
  245MOL    C9939627   4.157   0.606   5.700  0.8990  0.0483  0.0619
  245MOL   N10039628   4.085   0.597   5.578  0.1121  0.5355  0.1417
  245MOL   H10139629   4.310   0.485   5.634 -0.3657 -0.9481  0.9992
  245MOL   H10239630   4.339   0.544   5.793  0.9279 -0.0274 -0.3436
  245MOL   H10339631   4.139   0.706   5.740  2.5986  0.0044  0.9646
  245MOL   H10439632   4.092   0.514   5.521  2.4167  0.3256  0.6532
  245MOL   H10539633   3.989   0.593   5.608 -0.0136  3.2135  0.2441
  245MOL   C10639634   4.085   0.519   5.805  0.0785 -0.0228  0.3303
  245MOL   C10739635   4.092   0.586   5.945  0.2070  0.4959  0.6984
  245MOL   N10839636   3.990   0.689   5.958 -0.8043 -0.0004  0.3528
  245MOL   H10939637   3.983   0.490   5.776  1.0905 -2.9331 -0.5386
  245MOL   H11039638   4.134   0.422   5.807  0.1949  0.0094 -0.5269
  245MOL   H11139639   4.188   0.638   5.955  0.7129 -0.2212 -0.3705
  245MOL   H11239640   3.978   0.721   6.053 -0.1511  0.3150  0.3315
  245MOL   H11339641   4.022   0.763   5.898 -2.5554 -0.2276 -0.8897
  245MOL   C11439642   4.074   0.505   6.072 -1.0180  0.3292  0.2015
  245MOL   C11539643   4.197   0.433   6.132 -0.4960 -0.0986 -0.0799
  245MOL   N11639644   4.170   0.398   6.271 -0.1569 -0.1774 -0.0564
  245MOL   H11739645   4.048   0.575   6.151  0.5983  0.3487  0.7416
  245MOL   H11839646   4.002   0.425   6.055 -0.5297  0.0630 -0.6645
  245MOL   H11939647   4.278   0.504   6.147  2.1355 -2.8446 -0.8697
  245MOL   H12039648   4.169   0.478   6.332  0.0573 -0.9449  0.9565
  245MOL   H12139649   4.081   0.355   6.291 -1.6179  3.7966  2.7382
  245MOL   C12239650   4.252   0.314   6.045  0.6262 -0.0771  0.5873
  245MOL   C12339651   4.364   0.232   6.116 -0.5292  0.2084  0.3916
  245MOL   N12439652   4.374   0.103   6.051  0.0492  0.7134  0.1885
  245MOL   H12539653   4.163   0.251   6.039 -0.1308  1.0005  0.3125
  245MOL   H12639654   4.283   0.350   5.946  0.2165 -0.1059  0.4461
  245MOL   H12739655   4.332   0.202   6.216 -2.7412  0.2039 -0.2866
  245MOL   H12839656   4.289   0.108   5.997  0.7165  2.1381 -0.7516
  245MOL   H12939657   4.444   0.106   5.978  1.1664 -0.9589  1.1662
  245MOL   C13039658   4.500   0.293   6.154  0.3056 -0.1872  0.2007
  245MOL   C13139659   4.585   0.344   6.036 -0.0137  0.1637  0.7397
  245MOL   N13239660   4.537   0.465   5.983  0.0241  0.2894 -0.0071
  245MOL   H13339661   4.486   0.375   6.224 -2.2224  1.4116 -2.1025
  245MOL   H13439662   4.560   0.213   6.198 -0.2530 -1.1347 -0.7504
  245MOL   H13539663   4.580   0.273   5.953  1.3721 -0.9979  1.6369
  245MOL   H13639664   4.450   0.440   5.937 -0.6103 -1.2551  1.9666
  245MOL   H13739665   4.600   0.507   5.916  0.7305 -0.5468  0.1277
  245MOL   C13839666   4.734   0.372   6.078 -0.0773  0.4014 -0.0689
  245MOL   C13939667   4.821   0.236   6.099  0.6893  0.1290  0.2594
  245MOL   N14039668   4.815   0.147   5.990  0.4529  0.3918  0.0668
  245MOL   H14139669   4.770   0.430   5.993 -0.5280  0.5421 -0.1640
  245MOL   H14239670   4.741   0.433   6.168 -1.1753 -0.8830  0.9010
  245MOL   H14339671   4.782   0.192   6.190 -0.4937 -0.1390 -0.3648
  245MOL   H14439672   4.729   0.094   5.991  0.3636  0.5436  1.7337
  245MOL   H14539673   4.885   0.078   6.013  1.2921  1.4385  0.7310
  245MOL   C14639674   4.977   0.252   6.105 -0.5921 -0.4021 -0.0483
  245MOL   C14739675   5.028   0.324   6.236  0.6549 -0.4332  0.5787
  245MOL   N14839676   5.017   0.233   6.351 -0.1189 -0.7297  0.1210
  245MOL   H14939677   5.030   0.159   6.122  0.4319  0.5803  2.3476
  245MOL   H15039678   5.014   0.301   6.014  0.0919 -0.3777  0.2386
  245MOL   H15139679   4.958   0.404   6.259 -0.5881 -1.5796  0.7819
  245MOL   H15239680   5.028   0.285   6.437  0.3698 -1.4682  0.5099
  245MOL   H15339681   4.927   0.186   6.356 -1.1056  0.8534 -1.8598
  245MOL   C15439682   5.176   0.372   6.231  0.0200  0.3491  0.2758
  245MOL   C15539683   5.186   0.503   6.150 -0.3126  0.4290 -0.0441
  245MOL   N15639684   5.322   0.554   6.152 -0.5003 -0.7123 -0.5634
  245MOL   H15739685   5.216   0.388   6.332 -0.5859  3.0366  0.1155
  245MOL   H15839686   5.242   0.298   6.186  1.3543 -0.0158  2.7552
  245MOL   H15939687   5.117   0.570   6.201 -0.5195  1.5247 -1.6950
  245MOL   H16039688   5.364   0.530   6.063  3.0656  0.6598  0.6426
  245MOL   H16139689   5.332   0.654   6.158  2.1311 -0.7014 -3.7906
  245MOL   H16239690   5.166   0.495   6.043 -1.3689  0.8782  0.1215
  246MOL     C139691   1.138   7.211   1.974  0.1233 -0.0019  0.4395
  246MOL     C239692   1.276   7.197   2.033 -0.1951 -0.6883 -0.5688
  246MOL     N339693   1.345   7.101   1.953  0.1053 -0.1182 -0.2478
  246MOL     H439694   1.091   7.112   1.976 -0.3619  0.2412  1.5969
  246MOL     H539695   1.146   7.265   1.879 -0.0261 -1.0848 -0.2015
  246MOL     H639696   1.276   7.158   2.136  0.4292  1.7341  0.3716
  246MOL     H739697   1.431   7.095   2.006 -1.1748 -0.0760  1.9198
  246MOL     H839698   1.297   7.013   1.966  1.9329 -0.9070  1.5328
  246MOL     H939699   1.078   7.275   2.039 -0.7743  0.1105 -0.4681
  246MOL    C1039700   1.360   0.050   2.042 -0.1973  0.1365  0.5218
  246MOL    C1139701   1.344   0.134   2.169  0.3858  0.6011 -0.5741
  246MOL    N1239702   1.417   0.072   2.278  0.0425 -0.0483 -0.4874
  246MOL    H1339703   1.467   0.031   2.038 -0.4657 -1.4763  0.5388
  246MOL    H1439704   1.334   0.097   1.947  0.7463 -1.0162 -0.3192
  246MOL    H1539705   1.239   0.145   2.196 -0.5298 -2.3068 -2.7195
  246MOL    H1639706   1.377   7.256   2.287  1.1871 -0.7137 -1.9530
  246MOL    H1739707   1.401   0.126   2.362 -2.2918 -0.1990 -0.7950
  246MOL    C1839708   1.399   0.277   2.146  0.3921 -0.2757 -0.8652
  246MOL    C1939709   1.363   0.383   2.253 -0.2842 -0.8153 -0.3288
  246MOL    N2039710   1.454   0.497   2.256  0.0664  0.2805  0.2027
  246MOL    H2139711   1.506   0.259   2.141  0.5523 -0.0334  1.2403
  246MOL    H2239712   1.377   0.319   2.048 -0.7202  0.7030 -0.2149
  246MOL    H2339713   1.385   0.343   2.352  0.0101  0.2317  0.0367
  246MOL    H2439714   1.529   0.462   2.314 -1.6959 -1.6396  1.3792
  246MOL    H2539715   1.408   0.571   2.306  1.6091  1.6862 -0.4257
  246MOL    C2639716   1.215   0.430   2.249 -0.0381 -0.1784 -0.0848
  246MOL    C2739717   1.155   0.462   2.391 -0.2166 -0.1701 -0.2102
  246MOL    N2839718   1.057   0.563   2.371 -0.1434  0.4223 -0.0707
  246MOL    H2939719   1.206   0.520   2.188 -2.2598 -0.9449 -0.9290
  246MOL    H3039720   1.154   0.354   2.200  0.2688 -0.4809  0.0022
  246MOL    H3139721   1.233   0.500   2.457 -1.6400  0.3937  1.1716
  246MOL    H3239722   0.999   0.517   2.301  0.4629 -1.3366  0.5412
  246MOL    H3339723   1.090   0.629   2.302 -0.4348 -0.0262 -0.6445
  246MOL    C3439724   1.102   0.326   2.450  0.1376 -0.1782  0.3980
  246MOL    C3539725   1.083   0.328   2.606 -0.4824 -0.1954 -0.0712
  246MOL    N3639726   0.977   0.235   2.631  0.1990 -0.2994 -0.8551
  246MOL    H3739727   1.010   0.304   2.396 -0.7216  0.3491  1.6117
  246MOL    H3839728   1.169   0.245   2.422  0.0908 -0.0582 -0.0700
  246MOL    H3939729   1.036   0.417   2.649 -0.4424  0.0617 -0.5610
  246MOL    H4039730   0.999   0.145   2.593  1.0163 -0.2731 -0.4376
  246MOL    H4139731   0.893   0.275   2.591  0.5645  1.0498 -0.2971
  246MOL    C4239732   1.213   0.304   2.688 -0.2770 -0.6111  0.0223
  246MOL    C4339733   1.300   0.425   2.729  0.3742  0.2150 -0.3835
  246MOL    N4439734   1.237   0.490   2.842  0.0203 -0.3239  0.0809
  246MOL    H4539735   1.192   0.245   2.778  1.4269 -2.1757 -0.5710
  246MOL    H4639736   1.272   0.225   2.642  2.1215  0.8397  0.5354
  246MOL    H4739737   1.317   0.502   2.654  2.5189  0.6663  0.5158
  246MOL    H4839738   1.276   0.581   2.864  2.1018 -0.8543 -1.2990
  246MOL    H4939739   1.138   0.508   2.829  0.5135  0.3798 -3.1499
  246MOL    C5039740   1.438   0.362   2.784 -0.0566  1.1996 -0.3200
  246MOL    C5139741   1.544   0.293   2.689  0.2860  0.0771  0.0253
  246MOL    N5239742   1.577   0.398   2.602 -0.0615  0.2555  0.1070
  246MOL    H5339743   1.487   0.445   2.835  2.1692 -1.1959  1.5625
  246MOL    H5439744   1.416   0.294   2.867  1.6210  0.8005 -0.1740
  246MOL    H5539745   1.492   0.218   2.630  1.2425  0.2966 -1.1103
  246MOL    H5639746   1.616   0.475   2.654  0.3630  0.2294 -0.1711
  246MOL    H5739747   1.493   0.434   2.559  0.5134  1.1462 -0.2585
  246MOL    C5839748   1.676   0.235   2.750  0.5107 -0.3482  0.2437
  246MOL    C5939749   1.654   0.105   2.828  0.2915  0.6602 -0.3597
  246MOL    N6039750   1.620   0.001   2.724  0.1979  0.0460  0.1335
  246MOL    H6139751   1.741   0.217   2.664  0.9846  0.2569  0.4800
  246MOL    H6239752   1.718   0.316   2.809 -0.8668  0.8517 -0.3855
  246MOL    H6339753   1.566   0.111   2.893  1.4676 -0.6992  1.4069
  246MOL    H6439754   1.529   0.001   2.681  0.8990 -2.7172 -1.4394
  246MOL    H6539755   1.643   7.186   2.763 -0.5404 -0.1207  0.1844
  246MOL    C6639756   1.776   0.055   2.903  0.2849  0.7462  0.1386
  246MOL    C6739757   1.811   0.140   3.030  0.3696 -0.0074  0.9842
  246MOL    N6839758   1.864   0.048   3.136  0.0920  0.1015 -0.0075
  246MOL    H6939759   1.759   7.225   2.919  1.7365  0.1049 -2.1790
  246MOL    H7039760   1.862   0.047   2.836  0.2678 -0.0015  0.2065
  246MOL    H7139761   1.723   0.188   3.075 -1.0400 -0.1497 -1.5642
  246MOL    H7239762   1.858   0.099   3.223 -1.3626  2.6197 -1.5163
  246MOL    H7339763   1.791   7.257   3.160  0.5984  0.0119  1.3817
  246MOL    C7439764   1.924   0.240   2.993 -0.4738 -0.0702  0.1401
  246MOL    C7539765   1.957   0.338   3.099 -0.1665 -0.2508 -0.3124
  246MOL    N7639766   2.101   0.331   3.138 -0.1176 -0.3246 -0.3253
  246MOL    H7739767   2.010   0.177   2.969  0.0306  0.7736 -0.2703
  246MOL    H7839768   1.895   0.290   2.901 -0.3639 -1.7262 -0.8193
  246MOL    H7939769   1.906   0.303   3.189  0.1687 -0.7025 -0.2976
  246MOL    H8039770   2.137   0.397   3.071  1.0743 -1.4025 -0.7844
  246MOL    H8139771   2.145   0.241   3.120 -1.9851 -1.0214 -1.4686
  246MOL    C8239772   1.911   0.491   3.081 -0.0044 -0.1177 -0.4153
  246MOL    C8339773   1.781   0.522   3.157 -0.0102  0.8953 -0.7057
  246MOL    N8439774   1.799   0.666   3.186 -0.0358  0.3487 -0.0247
  246MOL    H8539775   1.988   0.556   3.123 -1.5262  2.3588 -1.3667
  246MOL    H8639776   1.904   0.511   2.974  0.5749  0.8609 -0.2790
  246MOL    H8739777   1.768   0.477   3.255 -0.9632 -1.5142 -1.9051
  246MOL    H8839778   1.768   0.726   3.111  1.0153  0.5826 -0.2796
  246MOL    H8939779   1.752   0.686   3.273 -0.3822 -0.6279  0.0274
  246MOL    C9039780   1.653   0.497   3.077 -0.1057  0.2807  0.2880
  246MOL    C9139781   1.517   0.541   3.142  0.0145 -0.4842  0.1206
  246MOL    N9239782   1.440   0.623   3.043 -0.3153 -0.2276 -0.5059
  246MOL    H9339783   1.672   0.540   2.979 -1.8185  2.2714  0.7983
  246MOL    H9439784   1.660   0.390   3.058 -0.0158 -0.1052  2.3359
  246MOL    H9539785   1.527   0.611   3.224 -0.1481 -2.1525  1.6096
  246MOL    H9639786   1.356   0.652   3.092  0.0926 -1.3516  0.9146
  246MOL    H9739787   1.409   0.571   2.962 -0.7467  0.7472 -0.9789
  246MOL    C9839788   1.432   0.417   3.206  0.2331  0.1527  0.2944
  246MOL    C9939789   1.493   0.335   3.328  0.4289 -0.6332 -0.7724
  246MOL   N10039790   1.390   0.343   3.434  0.5122  0.4429 -0.5417
  246MOL   H10139791   1.336   0.461   3.233 -1.2008 -0.5500 -3.3464
  246MOL   H10239792   1.402   0.350   3.125 -2.6655  2.2339 -0.4338
  246MOL   H10339793   1.571   0.403   3.362 -1.3010  0.3483  1.4079
  246MOL   H10439794   1.439   0.343   3.523  0.1402  2.9821 -0.2897
  246MOL   H10539795   1.324   0.419   3.441 -0.5250 -0.5729  0.9041
  246MOL   C10639796   1.526   0.189   3.298  0.5179 -0.4054 -0.2394
  246MOL   C10739797   1.619   0.127   3.404  0.1849  0.0705 -0.1161
  246MOL   N10839798   1.639   7.261   3.371  0.1666 -0.9615 -0.1846
  246MOL   H10939799   1.438   0.128   3.282 -1.4888  2.1110  0.8647
  246MOL   H11039800   1.582   0.198   3.204  0.4881 -2.5195 -0.4716
  246MOL   H11139801   1.557   0.126   3.493 -1.4603  1.6096 -1.2175
  246MOL   H11239802   1.708   7.219   3.431  2.6684  3.0730 -0.1080
  246MOL   H11339803   1.548   7.215   3.375 -0.9866  1.3535  0.9429
  246MOL   C11439804   1.752   0.204   3.429  0.0163 -0.4357  0.2856
  246MOL   C11539805   1.843   0.156   3.543 -0.6415  0.3173 -0.6967
  246MOL   N11639806   1.981   0.209   3.525 -0.1901 -0.1212 -0.3445
  246MOL   H11739807   1.813   0.206   3.338 -0.7233  0.4839 -0.1987
  246MOL   H11839808   1.742   0.311   3.445 -1.3773 -0.6535  0.8484
  246MOL   H11939809   1.853   0.048   3.550  2.0074  0.6713  1.8161
  246MOL   H12039810   1.980   0.304   3.556  0.4009  0.2065 -1.2922
  246MOL   H12139811   2.005   0.218   3.427  0.1453  0.2456 -0.2275
  246MOL   C12239812   1.797   0.199   3.680  0.3751  0.0743 -0.7893
  246MOL   C12339813   1.882   0.152   3.795  0.4738 -0.2319 -0.5254
  246MOL   N12439814   1.806   0.199   3.919  0.4773 -0.7771  0.5755
  246MOL   H12539815   1.789   0.307   3.696 -2.9795 -0.4203  1.4366
  246MOL   H12639816   1.696   0.160   3.693 -0.6113  2.6684 -0.2452
  246MOL   H12739817   1.983   0.189   3.780  0.2498  0.7110  0.2671
  246MOL   H12839818   1.870   0.184   3.996  0.5392 -0.8532  0.5103
  246MOL   H12939819   1.730   0.136   3.940 -0.5512 -0.3340 -1.6179
  246MOL   C13039820   1.896   7.275   3.795  0.0135  0.0831  0.1559
  246MOL   C13139821   2.010   7.206   3.725  0.0137 -0.7881 -0.2564
  246MOL   N13239822   2.130   7.217   3.806  0.3569 -0.2316 -0.9535
  246MOL   H13339823   1.911   7.238   3.896  0.1204  0.3904  0.2524
  246MOL   H13439824   1.803   7.227   3.762  0.5060 -1.2401  0.6710
  246MOL   H13539825   2.031   7.237   3.623  2.8363 -0.3060  0.4457
  246MOL   H13639826   2.195   7.152   3.767  1.0848  0.0785 -0.2665
  246MOL   H13739827   2.167   0.035   3.799  1.3725 -0.3070  2.4899
  246MOL   C13839828   1.973   7.054   3.715 -0.0082  0.0682 -0.5130
  246MOL   C13939829   2.076   6.960   3.653 -0.4938  0.1417  0.5762
  246MOL   N14039830   2.008   6.831   3.626 -0.4566 -0.0160 -0.6896
  246MOL   H14139831   1.947   7.018   3.815  0.0602  0.5522 -0.3185
  246MOL   H14239832   1.874   7.042   3.672 -0.2870  2.3197 -0.5319
  246MOL   H14339833   2.156   6.941   3.724 -1.0556  0.8283  1.4009
  246MOL   H14439834   2.076   6.767   3.587  0.3075  0.7183 -0.5882
  246MOL   H14539835   1.924   6.829   3.570 -0.9261  1.1458 -0.0340
  246MOL   C14639836   2.141   6.990   3.515  0.9372 -0.7308 -0.5253
  246MOL   C14739837   2.260   7.087   3.522 -0.1327  0.3343  0.1856
  246MOL   N14839838   2.376   7.025   3.578 -0.6599  0.7971 -0.2196
  246MOL   H14939839   2.166   6.898   3.462  2.2961  0.9032 -2.8235
  246MOL   H15039840   2.061   7.024   3.449  2.9286  0.6983 -2.2895
  246MOL   H15139841   2.243   7.179   3.578  1.2568  1.8268 -1.7772
  246MOL   H15239842   2.441   7.010   3.502  1.5551  0.9251  1.6113
  246MOL   H15339843   2.419   7.101   3.628  1.5920  0.7346 -2.0213
  246MOL   C15439844   2.300   7.143   3.386  0.1549  0.0967  0.1366
  246MOL   C15539845   2.204   7.255   3.343  0.7723 -0.2468  0.2794
  246MOL   N15639846   2.216   0.002   3.204 -0.2229 -0.0746  0.1016
  246MOL   H15739847   2.400   7.185   3.393 -0.3977  1.3766  0.5558
  246MOL   H15839848   2.292   7.055   3.322 -0.6285  1.1693 -1.2652
  246MOL   H15939849   2.216   0.069   3.403  3.3002  1.2598 -2.3490
  246MOL   H16039850   2.130   0.048   3.177 -1.1128 -0.9278  1.3926
  246MOL   H16139851   2.208   7.190   3.154 -0.4223  0.0660 -0.1129
  246MOL   H16239852   2.105   7.210   3.354  2.1826 -3.4297  0.7550
  247MOL     C139853   5.030   5.521   6.961  0.5113  0.2743  0.3500
  247MOL     C239854   5.113   5.393   6.971  0.6210  0.4856 -0.5432
  247MOL     N339855   5.194   5.367   6.850 -0.1726  0.2436  0.1460
  247MOL     H439856   4.949   5.542   7.031  0.4729 -0.3509  0.4943
  247MOL     H539857   4.975   5.530   6.868 -0.7621  3.7455  1.3585
  247MOL     H639858   5.049   5.305   6.978 -0.3137  1.2100  0.1262
  247MOL     H739859   5.241   5.455   6.834  1.1330 -0.9160 -2.5377
  247MOL     H839860   5.265   5.296   6.859  0.2601  0.6671  0.1008
  247MOL     H939861   5.096   5.608   6.966  1.3520 -0.2427 -1.4690
  247MOL    C1039862   5.213   5.397   7.094 -0.0511 -0.1205 -0.0206
  247MOL    C1139863   5.260   5.255   7.137  0.3980  0.1658  0.0675
  247MOL    N1239864   5.380   5.247   7.218 -0.2227  0.1169 -0.4186
  247MOL    H1339865   5.302   5.454   7.069  0.4511 -1.1588 -0.6213
  247MOL    H1439866   5.169   5.459   7.173 -1.4679 -0.3437 -0.6189
  247MOL    H1539867   5.278   5.201   7.045  1.0911 -1.8343  1.3363
  247MOL    H1639868   5.350   5.186   0.017 -1.6644 -0.7392 -1.6782
  247MOL    H1739869   5.464   5.212   7.174  0.0688  0.2951 -0.0124
  247MOL    C1839870   5.150   5.165   7.207 -0.3077 -0.6340  0.6215
  247MOL    C1939871   5.155   5.012   7.186 -0.4161  0.3336 -0.5868
  247MOL    N2039872   5.084   4.959   0.031  0.0323 -0.9151  0.1714
  247MOL    H2139873   5.158   5.198   0.035  0.2309 -0.3100  0.4786
  247MOL    H2239874   5.054   5.189   7.162 -0.4408  0.4784  1.4942
  247MOL    H2339875   5.251   4.961   7.198 -1.3079 -1.5853 -1.3991
  247MOL    H2439876   4.988   4.986   0.014 -0.2652 -1.4057  1.0698
  247MOL    H2539877   5.093   4.858   0.027  2.9992 -0.6566 -0.2369
  247MOL    C2639878   5.091   4.955   7.057  0.0333 -0.0361 -1.2042
  247MOL    C2739879   5.130   5.010   6.916 -0.6027 -0.3225 -1.0443
  247MOL    N2839880   5.273   4.998   6.906  0.2885 -0.3483 -0.1188
  247MOL    H2939881   5.104   4.847   7.052  0.6455 -0.2103  2.5433
  247MOL    H3039882   4.982   4.956   7.058  0.0373  0.7062  1.7555
  247MOL    H3139883   5.112   5.117   6.921  0.2964 -0.2041 -0.2319
  247MOL    H3239884   5.294   4.900   6.901  3.3668  0.1394  1.6644
  247MOL    H3339885   5.298   5.035   6.815 -1.9046  2.4596  0.3299
  247MOL    C3439886   5.072   4.927   6.792  0.1661  0.0914 -0.1610
  247MOL    C3539887   5.062   5.013   6.667 -0.7691  0.3919 -0.3890
  247MOL    N3639888   5.106   4.929   6.560  0.3407 -0.6639 -0.8475
  247MOL    H3739889   5.137   4.841   6.773  0.8608  1.1070 -2.4649
  247MOL    H3839890   4.971   4.889   6.805  0.1045  0.7705  1.3869
  247MOL    H3939891   5.138   5.092   6.672 -0.0199 -0.3254 -0.3394
  247MOL    H4039892   5.030   4.863   6.550  0.3181 -0.9777  1.2119
  247MOL    H4139893   5.113   4.982   6.474  1.7292  0.1193 -0.2593
  247MOL    C4239894   4.916   5.060   6.642  0.5876 -1.0424 -0.7659
  247MOL    C4339895   4.843   5.150   6.742  0.5721 -1.0063 -0.2269
  247MOL    N4439896   4.897   5.287   6.745 -0.0156 -0.0587  0.2728
  247MOL    H4539897   4.906   5.115   6.548 -0.7354 -0.6522 -0.4123
  247MOL    H4639898   4.858   4.968   6.634  0.0434 -0.8542  0.7816
  247MOL    H4739899   4.840   5.111   6.844 -1.3491 -1.2623 -0.3698
  247MOL    H4839900   4.983   5.300   6.796  0.0520 -0.4320  0.2542
  247MOL    H4939901   4.838   5.351   6.797 -0.3195  1.4082 -1.8144
  247MOL    C5039902   4.695   5.166   6.726 -0.3011  0.1762  0.5283
  247MOL    C5139903   4.608   5.094   6.831 -0.5206  0.1366  0.1039
  247MOL    N5239904   4.469   5.115   6.795 -0.6805 -0.2456 -0.4801
  247MOL    H5339905   4.655   5.267   6.722  0.3351  0.4128  0.1325
  247MOL    H5439906   4.680   5.126   6.626  2.0255 -1.7128  0.8880
  247MOL    H5539907   4.625   5.136   6.930  0.3307 -1.3524  0.6092
  247MOL    H5639908   4.410   5.038   6.820  1.0101 -1.3628  0.1526
  247MOL    H5739909   4.462   5.124   6.695  1.4937 -1.4759 -0.7832
  247MOL    C5839910   4.629   4.941   6.840  0.5617 -0.4305 -0.0326
  247MOL    C5939911   4.601   4.876   6.977 -0.4656  0.0549 -0.0896
  247MOL    N6039912   4.552   4.736   6.954 -0.5735 -0.4419 -0.5144
  247MOL    H6139913   4.581   4.884   6.762 -0.8301  0.0943  0.4336
  247MOL    H6239914   4.735   4.928   6.819  0.9672  0.4172  1.3387
  247MOL    H6339915   4.517   4.925   7.026  0.8414  2.4062 -0.1355
  247MOL    H6439916   4.467   4.750   6.900  0.3807 -0.4055 -2.0212
  247MOL    H6539917   4.519   4.712   7.047  2.5250  0.8502  0.9708
  247MOL    C6639918   4.715   4.876   7.080 -0.1843 -0.2236 -0.4958
  247MOL    C6739919   4.665   4.828   7.227 -0.4577  0.2600 -0.0397
  247MOL    N6839920   4.781   4.839   0.046 -0.4745 -0.3929 -0.9928
  247MOL    H6939921   4.800   4.822   7.037 -1.5391 -0.6771 -2.6678
  247MOL    H7039922   4.755   4.977   7.090  1.6076 -0.9112 -0.3860
  247MOL    H7139923   4.632   4.724   7.228  0.2097  0.0022 -1.8632
  247MOL    H7239924   4.803   4.746   0.079 -0.3428 -0.3503 -0.9616
  247MOL    H7339925   4.729   4.878   0.123 -2.4171 -1.7599 -1.5583
  247MOL    C7439926   4.563   4.928   0.016 -0.0410 -0.2326  0.1029
  247MOL    C7539927   4.572   5.079   7.267  0.1738  0.7567 -0.0506
  247MOL    N7639928   4.449   5.140   0.041 -0.0066 -0.1942  0.2097
  247MOL    H7739929   4.467   4.901   7.247 -0.9701  0.4231  1.6650
  247MOL    H7839930   4.566   4.910   0.124  3.7186 -0.0405  0.0981
  247MOL    H7939931   4.569   5.104   7.161  2.5006  1.7323  0.0845
  247MOL    H8039932   4.465   5.240   0.036 -0.6670 -0.0561  0.8022
  247MOL    H8139933   4.376   5.102   7.259 -1.0885 -0.8162  1.9476
  247MOL    C8239934   4.699   5.136   0.072 -0.2153  0.0058  0.9517
  247MOL    C8339935   4.729   5.287   0.079 -0.6251 -0.8795 -0.7468
  247MOL    N8439936   4.845   5.305   0.157  0.0855 -0.2223 -0.4617
  247MOL    H8539937   4.692   5.105   0.176 -1.1162  1.8065  1.4555
  247MOL    H8639938   4.782   5.084   0.026 -0.7031 -0.9443  1.1337
  247MOL    H8739939   4.642   5.329   0.129 -0.1725  1.3114 -1.7284
  247MOL    H8839940   4.916   5.240   0.125 -0.2581 -0.8658  0.0587
  247MOL    H8939941   4.819   5.283   0.252  0.7210 -0.5142 -0.3498
  247MOL    C9039942   4.757   5.337   7.207 -0.0528 -0.1278  1.1101
  247MOL    C9139943   4.622   5.400   7.141  0.1300 -0.4667 -0.6752
  247MOL    N9239944   4.595   5.520   7.218  0.6148 -0.5141  0.3167
  247MOL    H9339945   4.833   5.415   7.197  0.9432 -1.0216  1.6226
  247MOL    H9439946   4.802   5.266   7.138  0.1436 -0.3101  1.4248
  247MOL    H9539947   4.539   5.329   7.146  1.6184 -2.1121  1.7120
  247MOL    H9639948   4.510   5.559   7.179  0.8808  0.9318  1.1233
  247MOL    H9739949   4.571   5.509   0.040 -0.9625  4.1723  0.5917
  247MOL    C9839950   4.632   5.449   6.995 -0.5027  0.0630  0.5372
  247MOL    C9939951   4.505   5.505   6.932 -0.0023 -0.5971 -0.5089
  247MOL   N10039952   4.531   5.528   6.792  0.3172  0.2023 -0.5433
  247MOL   H10139953   4.715   5.518   6.978  0.9392 -1.7017  0.2378
  247MOL   H10239954   4.660   5.360   6.939 -0.4296  1.4650 -1.7176
  247MOL   H10339955   4.475   5.601   6.973  0.8777 -0.5152 -0.0506
  247MOL   H10439956   4.596   5.602   6.768  0.6862  0.7610  2.0234
  247MOL   H10539957   4.585   5.451   6.756 -0.2605 -0.9072  0.9136
  247MOL   C10639958   4.377   5.409   6.933 -0.0114 -0.0654 -0.6035
  247MOL   C10739959   4.253   5.484   6.971  0.6353  0.1408 -0.4361
  247MOL   N10839960   4.135   5.405   6.931  0.5283 -0.6263  0.1633
  247MOL   H10939961   4.364   5.353   6.841 -3.8430  1.2911 -0.9792
  247MOL   H11039962   4.398   5.332   7.007 -0.1163  1.2040  0.7790
  247MOL   H11139963   4.257   5.568   6.900  1.9806  0.1628 -0.3360
  247MOL   H11239964   4.171   5.322   6.886 -0.9757 -0.4646 -1.3849
  247MOL   H11339965   4.086   5.454   6.857  0.3780  0.6772  1.1127
  247MOL   C11439966   4.237   5.517   7.117  0.2542  0.2839  0.2151
  247MOL   C11539967   4.106   5.609   7.157  0.0350  0.8532  0.5252
  247MOL   N11639968   4.067   5.579   0.020 -0.1460 -0.0863  0.3053
  247MOL   H11739969   4.231   5.423   7.171  1.9831 -0.2943 -0.5723
  247MOL   H11839970   4.329   5.564   7.152  0.5546 -0.0247 -0.1559
  247MOL   H11939971   4.026   5.575   7.092  0.8326  2.4535 -1.3610
  247MOL   H12039972   4.017   5.491   0.017 -0.4312  0.0488  0.8830
  247MOL   H12139973   3.986   5.636   0.040 -0.6581  0.5577 -3.2054
  247MOL   C12239974   4.125   5.759   7.147  0.1658  0.2354  0.0894
  247MOL   C12339975   4.143   5.829   7.013  0.2002 -0.7372 -0.4655
  247MOL   N12439976   4.273   5.814   6.968 -0.1081  0.5313 -0.2894
  247MOL   H12539977   4.047   5.810   7.204  1.4354  1.2374  0.9474
  247MOL   H12639978   4.218   5.782   7.198  0.7921 -1.3964 -0.2695
  247MOL   H12739979   4.139   5.936   7.034  0.1138 -0.8076 -0.1214
  247MOL   H12839980   4.279   5.803   6.868 -1.7690 -0.9123 -0.2526
  247MOL   H12939981   4.300   5.722   6.999 -1.4762 -0.1159 -0.9659
  247MOL   C13039982   4.035   5.792   6.913  0.4448 -0.3212  0.7053
  247MOL   C13139983   3.896   5.837   6.951 -0.4199  0.6634  0.4203
  247MOL   N13239984   3.888   5.975   6.985 -0.5044  0.6561  0.1876
  247MOL   H13339985   4.054   5.838   6.816  0.6443 -3.4450 -0.7944
  247MOL   H13439986   4.052   5.685   6.899 -0.2977 -0.2701 -0.7403
  247MOL   H13539987   3.866   5.787   7.043 -2.8805  0.0480 -0.6693
  247MOL   H13639988   3.885   5.986   7.086  1.9078  1.5759  0.1965
  247MOL   H13739989   3.796   6.003   6.955 -0.5987 -0.9791 -1.1284
  247MOL   C13839990   3.794   5.793   6.840  0.5947  0.4011 -0.2220
  247MOL   C13939991   3.776   5.628   6.826  0.3225  0.3876 -0.3397
  247MOL   N14039992   3.645   5.587   6.883 -0.1156 -0.9878 -0.2054
  247MOL   H14139993   3.703   5.836   6.880  0.6092  0.3770 -0.1619
  247MOL   H14239994   3.811   5.853   6.751  1.8975 -2.4057 -1.9591
  247MOL   H14339995   3.850   5.580   6.890 -1.2163 -1.6573 -0.0173
  247MOL   H14439996   3.647   5.486   6.880  0.2081 -1.0727  2.4123
  247MOL   H14539997   3.638   5.618   6.978 -1.4234  0.9098 -0.8928
  247MOL   C14639998   3.783   5.568   6.679  0.2048 -0.7593  0.5443
  247MOL   C14739999   3.915   5.597   6.605 -0.6479  0.2090 -0.7206
  247MOL   N14840000   4.024   5.549   6.686  0.1291  0.0493  0.0809
  247MOL   H14940001   3.775   5.460   6.671  2.0550 -0.6196 -5.0221
  247MOL   H15040002   3.694   5.595   6.621  0.2005 -0.3519  0.7372
  247MOL   H15140003   3.910   5.706   6.600 -2.6683  0.0655 -2.3865
  247MOL   H15240004   4.044   5.457   6.650  1.5478  0.6007 -0.5426
  247MOL   H15340005   4.111   5.596   6.667 -0.6193  0.6801 -1.8474
  247MOL   C15440006   3.915   5.540   6.459  0.2416  0.1511  0.2423
  247MOL   C15540007   4.034   5.586   6.369  0.5553  0.1790 -0.4784
  247MOL   N15640008   4.024   5.535   6.237  0.0642  0.1080 -0.1360
  247MOL   H15740009   3.901   5.432   6.459  1.5616 -0.1093 -3.5611
  247MOL   H15840010   3.830   5.581   6.406  0.6171 -1.2008 -1.4659
  247MOL   H15940011   4.132   5.565   6.411  0.7153  1.7605 -0.0303
  247MOL   H16040012   3.939   5.548   6.185  1.0868 -0.7902 -2.0689
  247MOL   H16140013   4.097   5.568   6.175  0.9143 -1.4528  0.0158
  247MOL   H16240014   4.025   5.695   6.369  0.9564  0.2115 -1.0174
  248MOL     C140015   5.150   3.859   1.640 -0.0350  0.0340 -0.9284
  248MOL     C240016   5.153   3.916   1.778  0.1509  0.2987  0.0830
  248MOL     N340017   5.261   4.006   1.776 -0.0882  0.3307 -0.2307
  248MOL     H440018   5.077   3.781   1.618  3.5024 -3.3258 -1.3676
  248MOL     H540019   5.237   3.795   1.625 -0.8320 -0.9355 -1.4884
  248MOL     H640020   5.163   3.826   1.840 -0.4518 -0.1801 -0.5059
  248MOL     H740021   5.272   4.058   1.862  0.9745  3.7909 -2.3973
  248MOL     H840022   5.234   4.073   1.706  1.2209 -0.2612 -1.3164
  248MOL     H940023   5.141   3.938   1.565 -2.0804  0.0027 -0.7412
  248MOL    C1040024   5.020   3.987   1.802 -0.3796 -0.2638 -0.7342
  248MOL    C1140025   4.993   4.026   1.956  0.0287  0.0611 -0.1628
  248MOL    N1240026   4.894   4.130   1.958  0.0030 -0.4295  0.4243
  248MOL    H1340027   5.003   4.081   1.750  0.6140  0.6686  0.5883
  248MOL    H1440028   4.938   3.925   1.765 -0.4076  0.5208 -2.0137
  248MOL    H1540029   5.088   4.073   1.980 -0.7411  2.8979 -2.3306
  248MOL    H1640030   4.937   4.216   1.928 -0.7431  0.9138  3.0437
  248MOL    H1740031   4.882   4.156   2.055  0.9864  2.8045 -0.2660
  248MOL    C1840032   4.954   3.908   2.049 -0.3813  0.0098  0.2344
  248MOL    C1940033   4.947   3.947   2.202  0.0215  0.0116  0.4475
  248MOL    N2040034   4.919   3.824   2.281  0.0934 -0.7317  1.0928
  248MOL    H2140035   4.856   3.877   2.014  0.1341  0.5587 -1.7527
  248MOL    H2240036   5.029   3.831   2.036 -1.6563 -1.0458 -0.9747
  248MOL    H2340037   4.866   4.013   2.233 -0.0860  0.0327  0.1262
  248MOL    H2440038   5.006   3.776   2.297  1.4113  0.2394 -2.5726
  248MOL    H2540039   4.879   3.752   2.223  3.3910 -0.6121 -1.4988
  248MOL    C2640040   5.062   4.021   2.258 -0.3492  0.2427 -0.3271
  248MOL    C2740041   5.019   4.090   2.381 -0.2752  0.4437  0.0271
  248MOL    N2840042   5.145   4.097   2.453  0.1832 -0.1910 -0.4810
  248MOL    H2940043   5.142   3.949   2.274 -0.2878  0.1279 -1.1277
  248MOL    H3040044   5.103   4.102   2.198  0.6740  0.6378  0.8897
  248MOL    H3140045   4.945   4.029   2.433 -1.7332  0.8890 -1.4692
  248MOL    H3240046   5.132   4.021   2.519 -0.3742  0.5531  0.2757
  248MOL    H3340047   5.140   4.181   2.509 -0.8771  0.9334 -2.2169
  248MOL    C3440048   4.965   4.232   2.365 -0.1204  0.6843 -0.0865
  248MOL    C3540049   4.914   4.299   2.500  0.0448 -0.0192 -0.0530
  248MOL    N3640050   4.923   4.441   2.505  0.4071 -0.1470 -0.2693
  248MOL    H3740051   5.032   4.302   2.317  0.5291 -0.1639 -0.4312
  248MOL    H3840052   4.885   4.231   2.291  1.7398  2.3229 -2.1553
  248MOL    H3940053   4.982   4.257   2.574 -0.0204  1.8642  1.1136
  248MOL    H4040054   5.006   4.480   2.547 -0.4683  1.2183  0.2307
  248MOL    H4140055   4.844   4.479   2.555  0.7280 -0.6634  0.6322
  248MOL    C4240056   4.770   4.266   2.536  0.0428  0.5783 -0.2771
  248MOL    C4340057   4.732   4.256   2.689  0.2904 -0.4023  0.2808
  248MOL    N4440058   4.592   4.229   2.701 -0.0079 -0.8253  0.8419
  248MOL    H4540059   4.713   4.334   2.474 -2.1677 -0.7506  0.2139
  248MOL    H4640060   4.763   4.162   2.503  2.3566  0.1625  0.4682
  248MOL    H4740061   4.748   4.354   2.733 -2.5615  1.6475 -2.9477
  248MOL    H4840062   4.564   4.178   2.618 -0.1982  1.1637 -0.3536
  248MOL    H4940063   4.578   4.157   2.771 -1.1241 -1.2832  0.1511
  248MOL    C5040064   4.804   4.143   2.769  0.2282 -0.5552 -0.1823
  248MOL    C5140065   4.836   4.186   2.916  0.5915 -0.0326 -0.0507
  248MOL    N5240066   4.885   4.063   2.977 -0.1530  0.8701 -0.3185
  248MOL    H5340067   4.751   4.048   2.769  2.1138 -1.6654  1.8843
  248MOL    H5440068   4.900   4.113   2.726  0.0294 -0.5926 -0.6008
  248MOL    H5540069   4.742   4.213   2.963  1.6255  1.7205  1.0241
  248MOL    H5640070   4.956   4.011   2.928  0.4951 -0.7301  2.2239
  248MOL    H5740071   4.815   3.994   3.001  1.3815 -0.8721 -0.6823
  248MOL    C5840072   4.947   4.291   2.910 -0.9835  0.0563  0.3173
  248MOL    C5940073   4.978   4.366   3.053  0.2550 -0.8542  0.2575
  248MOL    N6040074   5.105   4.444   3.041  0.5282  0.3074 -0.1764
  248MOL    H6140075   5.040   4.251   2.870 -2.0270 -0.2302 -1.8454
  248MOL    H6240076   4.920   4.368   2.838 -0.5243 -0.0399  0.0406
  248MOL    H6340077   4.999   4.289   3.127 -1.7343 -0.8152  0.8987
  248MOL    H6440078   5.176   4.394   2.990  1.1411  0.9713  0.0290
  248MOL    H6540079   5.135   4.492   3.125  0.3328 -0.1903  0.1785
  248MOL    C6640080   4.863   4.469   3.085 -0.4402 -0.2494  0.2564
  248MOL    C6740081   4.844   4.503   3.231 -0.3820  0.1204  0.1222
  248MOL    N6840082   4.760   4.613   3.272 -0.4730 -0.0298 -0.3186
  248MOL    H6940083   4.887   4.568   3.045  1.7440 -0.9875 -0.3640
  248MOL    H7040084   4.766   4.433   3.051  0.2313  0.0831 -2.1323
  248MOL    H7140085   4.938   4.540   3.273 -2.0822  3.5102  1.1527
  248MOL    H7240086   4.745   4.601   3.372 -1.8190 -2.6932 -0.7885
  248MOL    H7340087   4.803   4.703   3.257 -1.7643  0.7359  0.4322
  248MOL    C7440088   4.809   4.381   3.317 -0.5561 -0.2474 -0.7537
  248MOL    C7540089   4.851   4.393   3.470 -0.5616 -0.0934  0.0438
  248MOL    N7640090   4.752   4.324   3.549  0.6094 -0.6163 -0.7781
  248MOL    H7740091   4.705   4.360   3.297 -0.9438  0.1218  0.7774
  248MOL    H7840092   4.854   4.293   3.271  0.1851  0.0365 -0.5880
  248MOL    H7940093   4.844   4.499   3.490 -1.1997 -0.0564 -0.3741
  248MOL    H8040094   4.663   4.338   3.504  0.3524  0.5790  0.1137
  248MOL    H8140095   4.740   4.371   3.637 -0.5284 -0.7070 -0.8777
  248MOL    C8240096   4.992   4.353   3.510  0.0656  0.1897 -0.0096
  248MOL    C8340097   5.114   4.423   3.452 -0.3837 -0.0956 -0.3063
  248MOL    N8440098   5.132   4.557   3.526 -0.4679  0.0600 -0.7589
  248MOL    H8540099   5.006   4.356   3.618 -3.1474 -1.8897  0.5447
  248MOL    H8640100   4.991   4.245   3.496  0.7868  0.0959  0.6360
  248MOL    H8740101   5.122   4.442   3.345  0.6974  1.0952 -0.0271
  248MOL    H8840102   5.042   4.602   3.522  0.4301  2.3443  2.3585
  248MOL    H8940103   5.126   4.530   3.623  0.5574 -0.7034 -0.8939
  248MOL    C9040104   5.238   4.337   3.499 -0.1262 -0.7452  0.0925
  248MOL    C9140105   5.371   4.383   3.432  0.0049 -0.3584  0.7753
  248MOL    N9240106   5.481   4.313   3.499 -0.6444 -1.0955  0.3685
  248MOL    H9340107   5.238   4.336   3.608  0.5408 -2.4825  0.1031
  248MOL    H9440108   5.209   4.234   3.475  2.9476 -1.7444  0.4475
  248MOL    H9540109   5.375   4.489   3.456  0.0166  0.0271 -0.8632
  248MOL    H9640110   5.565   4.364   3.478 -1.5337  0.1307 -0.3197
  248MOL    H9740111   5.484   4.319   3.600  0.1680 -1.6442  0.3774
  248MOL    C9840112   5.390   4.355   3.275  0.6782  0.7556  0.0149
  248MOL    C9940113   5.502   4.429   3.201  0.5067 -0.2079 -0.4023
  248MOL   N10040114   5.506   4.375   3.071  0.2963  0.4077  0.1845
  248MOL   H10140115   5.416   4.250   3.264  0.8118  0.8136 -0.2154
  248MOL   H10240116   5.296   4.365   3.220 -1.6444 -0.5803  3.5495
  248MOL   H10340117   5.596   4.399   3.247 -0.7940 -0.0805  2.4857
  248MOL   H10440118   5.529   4.277   3.075 -1.3825 -0.0023  0.2102
  248MOL   H10540119   5.589   4.418   3.033  0.1102 -0.0727 -0.7755
  248MOL   C10640120   5.470   4.583   3.200 -0.2448 -0.0846 -0.5071
  248MOL   C10740121   5.580   4.670   3.140 -0.8051 -0.1704  0.3211
  248MOL   N10840122   5.512   4.797   3.111  0.3806 -0.4640  0.4200
  248MOL   H10940123   5.376   4.606   3.150 -1.4970  2.9694  3.0037
  248MOL   H11040124   5.464   4.609   3.306 -0.8728  1.0449 -0.8107
  248MOL   H11140125   5.609   4.618   3.049 -1.5812  0.4274 -0.2764
  248MOL   H11240126   5.471   4.793   3.019 -0.4350 -1.0083  0.8072
  248MOL   H11340127   5.440   4.811   3.179 -0.3748  0.0227 -0.4699
  248MOL   C11440128   5.706   4.685   3.229 -0.4275 -0.2745 -0.7453
  248MOL   C11540129   5.837   4.637   3.166 -1.1201  0.1961 -0.5589
  248MOL   N11640130   5.871   4.728   3.062  0.2345  0.4777  1.2420
  248MOL   H11740131   5.725   4.782   3.274  0.7404 -1.2320  0.8695
  248MOL   H11840132   5.686   4.637   3.325 -0.5562 -0.9454 -1.1059
  248MOL   H11940133   5.818   4.538   3.127 -0.8167  0.7171 -2.0411
  248MOL   H12040134   5.783   4.752   3.020  0.4618  0.0611  0.5130
  248MOL   H12140135   5.921   4.675   2.993 -0.3990  2.0010 -0.4182
  248MOL   C12240136   5.954   4.635   3.278  0.6049  0.1107  0.0805
  248MOL   C12340137   6.085   4.580   3.222 -0.0486  0.0115 -0.4245
  248MOL   N12440138   6.166   4.693   3.172  1.4309  0.1134 -0.2604
  248MOL   H12540139   5.969   4.735   3.319 -0.2429  1.2352 -2.2824
  248MOL   H12640140   5.907   4.577   3.358 -1.8824  0.8054 -0.8438
  248MOL   H12740141   6.066   4.535   3.125 -1.9433  1.4279 -0.7404
  248MOL   H12840142   6.226   4.653   3.102  0.6436 -1.1404 -0.2339
  248MOL   H12940143   6.091   4.735   3.119  0.2658 -2.4625 -0.7409
  248MOL   C13040144   6.180   4.475   3.283 -0.1629  0.0344 -0.0759
  248MOL   C13140145   6.256   4.396   3.175  0.1228  0.2203 -0.3490
  248MOL   N13240146   6.394   4.385   3.209  0.3277  0.0290  0.1602
  248MOL   H13340147   6.244   4.533   3.350 -0.9621  0.4257  0.3637
  248MOL   H13440148   6.122   4.403   3.341 -0.0045  0.5907  0.7760
  248MOL   H13540149   6.251   4.452   3.081 -0.1903 -1.2980 -1.2552
  248MOL   H13640150   6.437   4.473   3.235 -1.0226  0.4637  0.9747
  248MOL   H13740151   6.449   4.348   3.133  1.7418  4.4562 -1.1111
  248MOL   C13840152   6.189   4.256   3.140  0.0714 -0.2331  0.0169
  248MOL   C13940153   6.054   4.266   3.064  0.1494 -0.3097  0.6446
  248MOL   N14040154   6.078   4.315   2.927  0.2694  0.0993 -0.1247
  248MOL   H14140155   6.250   4.190   3.078  1.1714  0.6454  0.1613
  248MOL   H14240156   6.174   4.191   3.226 -0.2565 -0.9347 -0.5571
  248MOL   H14340157   5.993   4.344   3.109  0.7391 -0.3451  1.5157
  248MOL   H14440158   6.141   4.394   2.923 -1.7064  1.7862  1.5028
  248MOL   H14540159   6.001   4.339   2.866  0.0296 -0.3475 -0.0033
  248MOL   C14640160   5.986   4.137   3.063 -0.0507 -0.1006 -0.1044
  248MOL   C14740161   5.862   4.129   3.154 -1.1139 -0.4137 -0.4548
  248MOL   N14840162   5.768   4.028   3.104  0.0545  0.1575 -0.1843
  248MOL   H14940163   5.936   4.127   2.966  1.3564  0.2505 -0.8789
  248MOL   H15040164   6.060   4.059   3.077  1.0232  0.3987 -2.7123
  248MOL   H15140165   5.802   4.220   3.152  1.4317  1.3073 -0.7546
  248MOL   H15240166   5.750   4.041   3.006 -1.4562  2.0442  0.3187
  248MOL   H15340167   5.815   3.939   3.112  0.5545  0.2764 -1.6939
  248MOL   C15440168   5.897   4.098   3.302 -0.6673  0.3413  0.5084
  248MOL   C15540169   5.851   4.213   3.396 -0.3374 -0.6742  0.9239
  248MOL   N15640170   5.896   4.195   3.533  0.3412  0.2287 -0.1244
  248MOL   H15740171   5.865   4.000   3.335 -0.8771  0.7326  1.4778
  248MOL   H15840172   6.005   4.090   3.310 -0.3874  1.5726 -1.5507
  248MOL   H15940173   5.745   4.238   3.387 -0.0263 -0.2264 -1.7099
  248MOL   H16040174   5.832   4.135   3.582  0.6270 -0.4402 -0.5708
  248MOL   H16140175   5.987   4.153   3.540 -0.2012 -0.5565  2.7279
  248MOL   H16240176   5.896   4.306   3.362 -0.8383 -0.1431  1.6999
  249MOL     C140177   6.610   3.253   6.300  0.1873 -0.1436  0.4435
  249MOL     C240178   6.453   3.242   6.314 -0.1295  0.4940 -0.2508
  249MOL     N340179   6.429   3.183   6.445  0.1223  0.8045  0.3152
  249MOL     H440180   6.641   3.339   6.240  0.7682 -0.1835  0.6881
  249MOL     H540181   6.649   3.163   6.252 -1.4675  0.0350 -1.3230
  249MOL     H640182   6.419   3.181   6.230  0.2227  0.5328 -0.4234
  249MOL     H740183   6.478   3.094   6.444 -1.0996  0.0239  3.1829
  249MOL     H840184   6.337   3.142   6.442  0.9041 -1.1441  1.6612
  249MOL     H940185   6.672   3.264   6.388  1.9592  1.3879 -0.9449
  249MOL    C1040186   6.381   3.376   6.306 -0.6294  0.2520 -0.1016
  249MOL    C1140187   6.334   3.422   6.166  0.0487  0.1454 -0.4055
  249MOL    N1240188   6.249   3.537   6.179  0.2263 -0.3708  0.3775
  249MOL    H1340189   6.296   3.375   6.375 -0.5328 -2.4852  0.0589
  249MOL    H1440190   6.456   3.444   6.346  1.0564 -0.8260 -1.3984
  249MOL    H1540191   6.284   3.332   6.129 -0.2503  0.0696  0.1856
  249MOL    H1640192   6.210   3.559   6.089  1.9697 -0.7407 -0.4878
  249MOL    H1740193   6.297   3.623   6.201 -0.0463 -0.2475  0.4978
  249MOL    C1840194   6.440   3.461   6.061 -0.2652 -0.1469  0.1758
  249MOL    C1940195   6.386   3.494   5.920  0.1494  0.3233  0.6012
  249MOL    N2040196   6.506   3.530   5.848  0.3057  0.8617  0.4249
  249MOL    H2140197   6.488   3.554   6.090  0.5113 -0.4733 -0.0464
  249MOL    H2240198   6.509   3.377   6.049  1.9988  1.8065 -1.0072
  249MOL    H2340199   6.328   3.585   5.934  0.5678  0.5557  0.8358
  249MOL    H2440200   6.574   3.456   5.857 -1.8600 -1.4356 -1.4725
  249MOL    H2540201   6.541   3.612   5.896  1.3975  0.7080 -0.1081
  249MOL    C2640202   6.325   3.372   5.841 -0.7857 -1.2437 -0.4236
  249MOL    C2740203   6.173   3.355   5.864  0.0586 -0.4252 -0.3606
  249MOL    N2840204   6.107   3.462   5.792 -0.2104 -0.0046  0.8616
  249MOL    H2940205   6.352   3.380   5.736  2.0985  1.2063  0.4563
  249MOL    H3040206   6.379   3.289   5.887  0.4621 -0.5744 -0.6699
  249MOL    H3140207   6.151   3.372   5.970  0.1064  0.0283 -0.4246
  249MOL    H3240208   6.011   3.430   5.789 -0.0475 -0.4586  0.3670
  249MOL    H3340209   6.109   3.546   5.848 -0.3991  0.0793  0.7441
  249MOL    C3440210   6.126   3.216   5.831  0.1280 -0.6709 -0.4347
  249MOL    C3540211   6.167   3.101   5.920  0.1259  0.3411 -0.3617
  249MOL    N3640212   6.104   3.126   6.051  0.2686 -0.4551 -0.5508
  249MOL    H3740213   6.019   3.222   5.813  0.4047  0.3518 -1.8015
  249MOL    H3840214   6.171   3.195   5.734  3.4290  1.6753  0.5030
  249MOL    H3940215   6.273   3.098   5.946  0.7447 -0.6464 -2.8536
  249MOL    H4040216   6.018   3.074   6.055 -0.0225  0.1168  0.9829
  249MOL    H4140217   6.173   3.088   6.114 -1.9896 -1.0538  1.6145
  249MOL    C4240218   6.118   2.960   5.878 -0.1011 -0.1100  0.2107
  249MOL    C4340219   6.190   2.904   5.751 -0.6214 -0.6127  0.3816
  249MOL    N4440220   6.206   2.760   5.767 -0.1911 -0.4052 -0.2655
  249MOL    H4540221   6.140   2.891   5.958 -4.4169 -0.9889  0.7676
  249MOL    H4640222   6.009   2.961   5.876 -0.1072  1.7284 -3.0616
  249MOL    H4740223   6.292   2.938   5.733 -0.3778 -1.5662 -0.0794
  249MOL    H4840224   6.280   2.738   5.832  0.4394 -0.4865 -1.0006
  249MOL    H4940225   6.229   2.709   5.683 -1.6379 -0.9652 -0.3399
  249MOL    C5040226   6.111   2.925   5.619 -0.2663 -0.7306 -0.7869
  249MOL    C5140227   6.179   2.868   5.489  0.5072  0.8240 -0.0886
  249MOL    N5240228   6.080   2.850   5.380  0.0922  0.0246  0.4018
  249MOL    H5340229   6.013   2.879   5.631 -1.0153  0.8208 -0.8376
  249MOL    H5440230   6.079   3.029   5.617  0.0249 -0.6339 -0.5137
  249MOL    H5540231   6.213   2.766   5.507  0.4461  0.9463  0.7228
  249MOL    H5640232   6.007   2.788   5.411  1.7596 -2.4763 -0.5440
  249MOL    H5740233   6.033   2.939   5.367 -0.4156 -0.3741 -0.5400
  249MOL    C5840234   6.301   2.952   5.443  0.0780 -0.6597 -1.3047
  249MOL    C5940235   6.365   2.917   5.300  0.6055 -0.0903  0.0597
  249MOL    N6040236   6.446   3.029   5.253 -0.6384  0.1232  0.0939
  249MOL    H6140237   6.271   3.057   5.453 -0.8591 -1.0834  0.6838
  249MOL    H6240238   6.377   2.962   5.521 -0.3592 -1.3804 -0.7729
  249MOL    H6340239   6.276   2.901   5.240 -0.4653 -0.0756  1.6393
  249MOL    H6440240   6.392   3.091   5.194 -1.4936 -0.5217  0.1942
  249MOL    H6540241   6.518   3.000   5.189 -0.3281 -0.3784  0.6719
  249MOL    C6640242   6.445   2.784   5.295  0.2780 -0.2398  0.4180
  249MOL    C6740243   6.354   2.661   5.274 -0.7013  0.5827 -0.4012
  249MOL    N6840244   6.316   2.658   5.139 -1.0023  0.1705  0.4844
  249MOL    H6940245   6.516   2.786   5.212 -1.8383 -2.7406 -1.5913
  249MOL    H7040246   6.501   2.771   5.387  0.0542 -1.2915  0.4152
  249MOL    H7140247   6.269   2.684   5.338  1.1122  1.0487  1.8969
  249MOL    H7240248   6.242   2.592   5.123 -0.1689 -0.1113 -2.4436
  249MOL    H7340249   6.288   2.746   5.099  1.0402  0.6959  0.1897
  249MOL    C7440250   6.411   2.529   5.311 -0.8049  0.4125  0.5054
  249MOL    C7540251   6.429   2.514   5.463  0.1425  0.8198 -0.6967
  249MOL    N7640252   6.296   2.487   5.520 -0.1738 -0.4704 -0.0732
  249MOL    H7740253   6.351   2.448   5.268  1.4739 -0.9230 -0.2356
  249MOL    H7840254   6.503   2.518   5.254 -0.5083 -0.1192  1.0865
  249MOL    H7940255   6.475   2.599   5.512 -1.0113  0.9560  0.1718
  249MOL    H8040256   6.246   2.424   5.458  0.3606 -1.8744  0.8888
  249MOL    H8140257   6.299   2.436   5.607  0.6574 -0.4002 -0.0556
  249MOL    C8240258   6.516   2.399   5.502  0.2890  0.0856  0.8549
  249MOL    C8340259   6.669   2.440   5.520  0.0357 -0.5354 -0.4607
  249MOL    N8440260   6.740   2.334   5.593 -0.0228  0.1968  0.6279
  249MOL    H8540261   6.479   2.357   5.595 -2.0737 -3.0856 -1.4150
  249MOL    H8640262   6.510   2.321   5.426  0.9877  1.4417 -0.6380
  249MOL    H8740263   6.681   2.522   5.591 -0.3146 -1.0935  0.2471
  249MOL    H8840264   6.833   2.371   5.604 -0.2328  0.1191  3.0251
  249MOL    H8940265   6.702   2.315   5.685  1.1068 -0.5530  0.9500
  249MOL    C9040266   6.748   2.464   5.384 -0.3031  0.0644  0.0026
  249MOL    C9140267   6.760   2.608   5.331  0.0059 -0.7092 -0.1713
  249MOL    N9240268   6.834   2.689   5.429 -0.0998 -0.3178  0.0509
  249MOL    H9340269   6.851   2.430   5.388 -0.0352  0.9032  0.1102
  249MOL    H9440270   6.699   2.400   5.310 -1.8435  0.9860  0.2060
  249MOL    H9540271   6.656   2.638   5.316 -0.3806 -1.5709  0.7682
  249MOL    H9640272   6.829   2.789   5.411  1.9770 -0.1530  0.3449
  249MOL    H9740273   6.783   2.671   5.514 -1.6987 -0.1806 -0.8560
  249MOL    C9840274   6.839   2.605   5.192  0.7469 -0.4307 -0.2084
  249MOL    C9940275   6.763   2.539   5.073  0.6982 -0.0641 -0.4468
  249MOL   N10040276   6.676   2.637   5.015  0.2308 -0.1783 -0.6259
  249MOL   H10140277   6.870   2.704   5.158 -2.7361  0.7629 -0.1089
  249MOL   H10240278   6.936   2.558   5.210 -0.1015 -1.0786  3.0271
  249MOL   H10340279   6.701   2.459   5.114  2.8222 -0.7978  1.5025
  249MOL   H10440280   6.619   2.673   5.090  2.6462  1.2682  0.5761
  249MOL   H10540281   6.602   2.586   4.970  0.1357 -0.6584  0.0611
  249MOL   C10640282   6.856   2.484   4.958 -1.2804 -0.0151  0.1054
  249MOL   C10740283   6.826   2.335   4.940  0.5571  0.1194  0.2652
  249MOL   N10840284   6.873   2.287   4.810  0.4255 -0.3401  0.2821
  249MOL   H10940285   6.835   2.540   4.867 -0.7934  1.7334  1.0430
  249MOL   H11040286   6.964   2.485   4.978 -1.2846  0.2420  0.1172
  249MOL   H11140287   6.718   2.323   4.945  0.5946 -0.7745 -1.0253
  249MOL   H11240288   6.843   2.354   4.741  0.5303  0.1031  0.6655
  249MOL   H11340289   6.974   2.286   4.805  0.5604 -1.9123  2.4521
  249MOL   C11440290   6.897   2.251   5.052  0.1126  0.7300  0.4257
  249MOL   C11540291   6.856   2.105   5.064  0.0219  0.4183  0.7110
  249MOL   N11640292   6.912   2.033   4.952  0.2477  0.4509 -0.8503
  249MOL   H11740293   7.005   2.247   5.033 -0.4062 -1.4543 -2.2721
  249MOL   H11840294   6.877   2.302   5.147 -0.3325 -0.0146  0.7300
  249MOL   H11940295   6.747   2.104   5.054  0.0502  0.7230  0.3659
  249MOL   H12040296   7.013   2.036   4.958  0.1552 -0.0813  1.2210
  249MOL   H12140297   6.911   2.111   4.888 -0.7376  1.7935  0.7582
  249MOL   C12240298   6.888   2.029   5.193  0.1586 -0.3267 -0.7804
  249MOL   C12340299   6.836   2.094   5.323 -0.2409  0.1717 -0.4758
  249MOL   N12440300   6.690   2.091   5.336 -1.1969  0.5700  0.1906
  249MOL   H12540301   6.859   1.925   5.182 -0.5986 -0.0458 -1.4576
  249MOL   H12640302   6.997   2.025   5.194  0.1149 -1.5919  0.2173
  249MOL   H12740303   6.854   2.202   5.326  0.7609 -0.0033  2.9721
  249MOL   H12840304   6.643   2.136   5.259 -1.5227 -1.8764 -1.1171
  249MOL   H12940305   6.665   2.139   5.421  0.4794  0.1898  0.9315
  249MOL   C13040306   6.894   2.038   5.451 -0.5114 -0.4483 -0.1903
  249MOL   C13140307   6.905   1.883   5.464 -0.5990 -0.0655  0.3722
  249MOL   N13240308   6.985   1.852   5.579 -0.0890  0.0147  0.2658
  249MOL   H13340309   6.999   2.066   5.456  0.3833 -4.0806  4.3384
  249MOL   H13440310   6.841   2.086   5.532 -2.4715 -0.0944 -1.6520
  249MOL   H13540311   6.965   1.840   5.383 -0.3224  0.9020  0.0539
  249MOL   H13640312   7.077   1.891   5.570  0.9398 -2.1803  1.0396
  249MOL   H13740313   6.996   1.753   5.597  1.4054  0.2181  0.4885
  249MOL   C13840314   6.770   1.817   5.475 -0.0633 -0.7292  0.3111
  249MOL   C13940315   6.757   1.657   5.477  0.2837  0.3121  0.2208
  249MOL   N14040316   6.690   1.616   5.593  0.4116 -0.4088 -0.0621
  249MOL   H14140317   6.720   1.866   5.558 -0.3359  2.5207 -1.6876
  249MOL   H14240318   6.701   1.843   5.395  0.5867 -0.6078 -0.2183
  249MOL   H14340319   6.855   1.616   5.501  1.0519  1.4841 -0.8508
  249MOL   H14440320   6.595   1.648   5.606 -0.5556 -2.8464 -0.8653
  249MOL   H14540321   6.734   1.664   5.671  0.9756 -0.9710 -0.0327
  249MOL   C14640322   6.705   1.592   5.344 -0.4469  0.0062 -0.6570
  249MOL   C14740323   6.811   1.590   5.229  0.8002 -0.0836 -0.2707
  249MOL   N14840324   6.889   1.472   5.257 -0.4125  0.8705  0.1551
  249MOL   H14940325   6.686   1.488   5.370  1.9794 -0.2866  0.0726
  249MOL   H15040326   6.612   1.641   5.313 -0.7125  0.0390  0.1710
  249MOL   H15140327   6.874   1.679   5.233  0.5036  0.1586 -0.9818
  249MOL   H15240328   6.914   1.462   5.355  2.2897  2.0839 -0.3689
  249MOL   H15340329   6.825   1.395   5.239 -3.0952  1.9671  4.2309
  249MOL   C15440330   6.750   1.561   5.097 -0.1640 -0.6079 -0.2933
  249MOL   C15540331   6.681   1.689   5.040 -0.1572  0.9655 -0.0748
  249MOL   N15640332   6.606   1.652   4.918  0.0090  0.2514  0.3680
  249MOL   H15740333   6.825   1.516   5.032 -1.3469 -1.6168 -0.9793
  249MOL   H15840334   6.678   1.479   5.099 -0.4132 -0.4526 -2.2063
  249MOL   H15940335   6.763   1.758   5.020  0.3828  1.1777  2.6165
  249MOL   H16040336   6.609   1.742   4.873  2.2020 -0.2128 -0.5039
  249MOL   H16140337   6.508   1.635   4.933 -0.2306  0.8218 -0.5326
  249MOL   H16240338   6.614   1.739   5.110  1.4605  1.3315  1.2334
  250MOL     C140339   0.524   3.365   2.488  0.0387  0.4848 -0.2852
  250MOL     C240340   0.677   3.344   2.469 -0.9400  0.6854  0.5903
  250MOL     N340341   0.745   3.423   2.570 -0.4595  0.0490 -0.4609
  250MOL     H440342   0.497   3.470   2.477 -0.1455  0.6927  1.9210
  250MOL     H540343   0.506   3.339   2.592 -2.6790  1.0175 -0.5623
  250MOL     H640344   0.703   3.384   2.371 -0.5225 -0.7711  0.1091
  250MOL     H740345   0.720   3.520   2.559  0.0732  0.0879 -1.3519
  250MOL     H840346   0.844   3.430   2.551 -0.3489 -0.4771 -0.1065
  250MOL     H940347   0.451   3.320   2.420 -0.0455  0.1132  0.0521
  250MOL    C1040348   0.734   3.201   2.490 -0.6828 -0.4596 -0.2077
  250MOL    C1140349   0.691   3.099   2.381 -1.0911 -0.0837  0.2034
  250MOL    N1240350   0.793   2.996   2.373  0.1665 -0.1954  0.5332
  250MOL    H1340351   0.842   3.212   2.488 -0.9024  2.3150  0.2497
  250MOL    H1440352   0.706   3.159   2.587  1.5763  2.1609  1.6548
  250MOL    H1540353   0.696   3.156   2.288 -2.3294 -1.3596 -0.6679
  250MOL    H1640354   0.878   3.034   2.412 -0.7174  2.1027  0.2975
  250MOL    H1740355   0.811   2.978   2.275  0.8144  1.1029  0.4070
  250MOL    C1840356   0.560   3.030   2.404 -0.5269  0.8355 -0.4095
  250MOL    C1940357   0.500   2.978   2.264 -0.0946  0.4708 -0.1195
  250MOL    N2040358   0.420   2.858   2.291 -0.1576 -0.5852  0.4845
  250MOL    H2140359   0.573   2.936   2.459 -0.4996  1.3292  0.4306
  250MOL    H2240360   0.485   3.084   2.461 -0.1580  1.6330 -0.6842
  250MOL    H2340361   0.577   2.937   2.200  2.1522  0.7366  2.3384
  250MOL    H2440362   0.483   2.798   2.343  0.3760  0.1224  0.6677
  250MOL    H2540363   0.403   2.806   2.206 -0.7055 -0.4652  0.5214
  250MOL    C2640364   0.408   3.086   2.190  0.4929 -0.0589 -0.1028
  250MOL    C2740365   0.488   3.188   2.102  0.2448  0.9138 -0.5733
  250MOL    N2840366   0.560   3.105   1.996  0.0548  0.1303 -0.0573
  250MOL    H2940367   0.334   3.047   2.121  1.5334 -0.2832 -1.1101
  250MOL    H3040368   0.346   3.129   2.269 -0.1238 -1.6772  0.3269
  250MOL    H3140369   0.566   3.229   2.166 -0.8972  0.1225  1.3418
  250MOL    H3240370   0.635   3.060   2.047 -0.1618  0.7900  0.8533
  250MOL    H3340371   0.508   3.027   1.957 -0.6782  2.0924 -3.1826
  250MOL    C3440372   0.395   3.307   2.049 -0.1671 -0.4094  0.3655
  250MOL    C3540373   0.362   3.419   2.151 -0.3929 -0.3760 -0.0523
  250MOL    N3640374   0.479   3.498   2.173  0.1252  0.1396  0.2298
  250MOL    H3740375   0.446   3.358   1.967 -2.2250 -1.9674 -1.9627
  250MOL    H3840376   0.306   3.257   2.010 -1.4201  0.1054  2.5034
  250MOL    H3940377   0.325   3.362   2.236  0.4019  1.3040  1.4371
  250MOL    H4040378   0.483   3.563   2.096 -1.4516  1.0534  0.8994
  250MOL    H4140379   0.456   3.560   2.249 -1.4112 -1.5463  1.1723
  250MOL    C4240380   0.250   3.513   2.106 -0.1233  0.5147 -0.6851
  250MOL    C4340381   0.110   3.443   2.096 -0.1864  1.0762 -0.1683
  250MOL    N4440382   0.040   3.456   2.226  0.0922 -0.1642 -0.1397
  250MOL    H4540383   0.249   3.596   2.176  2.0230 -0.4904  0.5872
  250MOL    H4640384   0.281   3.554   2.009  0.8280  0.0831 -0.5654
  250MOL    H4740385   0.121   3.336   2.078  0.0094  0.9753  0.5419
  250MOL    H4840386   0.023   3.550   2.258 -0.7483 -0.6083  0.7133
  250MOL    H4940387   7.236   3.399   2.199 -0.7755  0.6815  0.6362
  250MOL    C5040388   0.017   3.492   1.988  0.8565  0.6365 -0.1841
  250MOL    C5140389   0.053   3.467   1.838 -0.8708  0.2785 -0.3071
  250MOL    N5240390   0.023   3.328   1.809  0.3919  0.0142  0.6102
  250MOL    H5340391   7.199   3.438   2.005  0.2141  1.2528 -1.5982
  250MOL    H5440392   7.271   3.596   2.011 -0.3666  0.2090  0.6379
  250MOL    H5540393   0.159   3.490   1.832 -0.9930  0.8841 -0.1143
  250MOL    H5640394   0.091   3.274   1.759 -0.2929  1.2156 -1.6903
  250MOL    H5740395   7.213   3.318   1.756  1.7970  0.7059 -1.8347
  250MOL    C5840396   7.253   3.550   1.742  0.2916  0.0049 -0.3968
  250MOL    C5940397   0.041   3.548   1.604 -0.6865 -0.6255 -0.0807
  250MOL    N6040398   7.223   3.500   1.502 -0.0624  0.1221 -0.2181
  250MOL    H6140399   7.155   3.505   1.744  0.4806 -0.3266  2.9757
  250MOL    H6240400   7.235   3.654   1.770 -3.3570 -0.3633 -1.2391
  250MOL    H6340401   0.117   3.469   1.609  2.4622  2.2720 -0.3757
  250MOL    H6440402   7.183   3.414   1.537 -0.9690  0.7582  0.3318
  250MOL    H6540403   0.006   3.476   1.424  0.6659  0.3078  0.2695
  250MOL    C6640404   0.096   3.681   1.552 -0.0151 -0.0124 -0.1810
  250MOL    C6740405   0.223   3.730   1.621  0.4605 -0.0311  0.3016
  250MOL    N6840406   0.332   3.701   1.536 -0.7184 -0.2021  0.3062
  250MOL    H6940407   0.092   3.682   1.443  1.9447 -1.7676 -0.3161
  250MOL    H7040408   0.018   3.753   1.573 -0.7727 -0.2215 -2.0972
  250MOL    H7140409   0.245   3.679   1.715  4.1291  2.0229  0.6755
  250MOL    H7240410   0.293   3.720   1.444 -1.2769  2.4729  1.0533
  250MOL    H7340411   0.333   3.600   1.533 -0.2149 -0.1939  0.1905
  250MOL    C7440412   0.220   3.878   1.652  0.0603  0.0943  0.3775
  250MOL    C7540413   0.133   3.926   1.773  0.3953  0.4997  0.3158
  250MOL    N7640414   0.186   3.866   1.893  0.4997 -0.5846 -0.1413
  250MOL    H7740415   0.321   3.912   1.673 -0.2674  0.3415  1.5984
  250MOL    H7840416   0.201   3.928   1.557 -2.6734 -1.7841 -0.1380
  250MOL    H7940417   0.031   3.894   1.755  0.5747 -0.5863  1.1836
  250MOL    H8040418   0.198   3.767   1.876 -0.6897 -0.7852  0.1293
  250MOL    H8140419   0.118   3.879   1.967  1.7010 -1.0525  1.0725
  250MOL    C8240420   0.137   4.076   1.798  0.2600 -0.1196  0.4720
  250MOL    C8340421   0.061   4.158   1.691  0.1375 -0.4685 -0.1804
  250MOL    N8440422   7.240   4.240   1.759 -0.2370  0.2875 -0.0082
  250MOL    H8540423   0.084   4.088   1.892  0.9080 -1.2470  0.9946
  250MOL    H8640424   0.232   4.127   1.816  0.7577 -1.5318  1.9024
  250MOL    H8740425   0.014   4.088   1.622 -0.2691 -0.4165  0.0425
  250MOL    H8840426   7.182   4.190   1.824 -1.9633  0.2065 -1.5823
  250MOL    H8940427   7.179   4.288   1.695 -1.0623  1.3301  1.5283
  250MOL    C9040428   0.144   4.245   1.605 -0.4325  0.3440  0.8153
  250MOL    C9140429   0.257   4.185   1.515 -0.6516 -0.5623 -0.9969
  250MOL    N9240430   0.202   4.139   1.389 -0.1788  0.1103 -0.9525
  250MOL    H9340431   0.078   4.309   1.546  1.3295  0.9635 -0.5598
  250MOL    H9440432   0.202   4.313   1.667  0.1948  1.4094 -0.9024
  250MOL    H9540433   0.313   4.103   1.560 -1.3444 -1.3413 -1.5460
  250MOL    H9640434   0.128   4.070   1.395 -0.1366  0.1428  0.1450
  250MOL    H9740435   0.277   4.089   1.344  1.4123  2.3152 -0.8222
  250MOL    C9840436   0.355   4.295   1.467  0.0696 -0.8947 -0.7092
  250MOL    C9940437   0.454   4.349   1.581 -0.2091  0.3314  0.2716
  250MOL   N10040438   0.568   4.260   1.589  0.2952 -0.0743 -0.3297
  250MOL   H10140439   0.417   4.242   1.395  1.7375 -1.2730  0.9589
  250MOL   H10240440   0.300   4.382   1.429  1.3280 -0.0188 -0.5702
  250MOL   H10340441   0.400   4.344   1.675 -1.9573  0.8552 -0.6892
  250MOL   H10440442   0.636   4.276   1.662  0.7548 -0.1658 -0.7330
  250MOL   H10540443   0.538   4.165   1.601  0.7166 -0.3615 -1.4468
  250MOL   C10640444   0.506   4.490   1.588 -0.8274 -0.3126  0.2093
  250MOL   C10740445   0.398   4.590   1.559 -0.1295 -0.7562 -0.2841
  250MOL   N10840446   0.420   4.712   1.632 -0.2815 -0.2072 -0.2997
  250MOL   H10940447   0.554   4.507   1.684 -0.8268  0.4422  0.0756
  250MOL   H11040448   0.588   4.501   1.517 -0.7885 -1.1511  0.1160
  250MOL   H11140449   0.305   4.550   1.599 -0.9625  1.1635 -0.2247
  250MOL   H11240450   0.468   4.783   1.579 -0.8860 -0.9811 -1.9439
  250MOL   H11340451   0.329   4.752   1.648  0.4917  1.3386  0.2382
  250MOL   C11440452   0.392   4.625   1.417  0.1229 -0.4784 -0.0546
  250MOL   C11540453   0.263   4.687   1.365  0.0364  0.6168  0.2168
  250MOL   N11640454   0.290   4.777   1.255  0.4720 -0.8158 -0.4407
  250MOL   H11740455   0.478   4.689   1.397  0.4789 -0.1305  2.4651
  250MOL   H11840456   0.407   4.543   1.347 -0.7692  0.7340 -1.7136
  250MOL   H11940457   0.230   4.750   1.448 -0.4131 -0.0402  0.5385
  250MOL   H12040458   0.204   4.826   1.236  0.8108  0.0048  0.1243
  250MOL   H12140459   0.347   4.855   1.284 -0.6711  0.5860 -1.9070
  250MOL   C12240460   0.136   4.587   1.346  0.0120  0.3173 -0.0009
  250MOL   C12340461   0.140   4.491   1.227  0.4663 -0.1177  0.5034
  250MOL   N12440462   0.072   4.366   1.256 -0.1215  0.2822  0.1969
  250MOL   H12540463   0.120   4.526   1.434 -0.2233 -1.5665 -1.3094
  250MOL   H12640464   0.045   4.647   1.348 -0.0515  0.1848  1.8887
  250MOL   H12740465   0.242   4.453   1.224  1.5769  2.7564  0.3392
  250MOL   H12840466   0.115   4.321   1.335 -0.1272 -0.4070 -0.1881
  250MOL   H12940467   0.091   4.313   1.172 -0.8214 -3.0706  2.0837
  250MOL   C13040468   0.093   4.554   1.092  1.2646  0.3685  0.2843
  250MOL   C13140469   0.141   4.480   0.970  0.2317 -0.2700 -0.1934
  250MOL   N13240470   0.026   4.481   0.873 -0.0400 -0.3251 -0.3135
  250MOL   H13340471   7.260   4.547   1.097  1.2942 -0.4279 -0.1306
  250MOL   H13440472   0.092   4.663   1.093  0.8314  0.3594  0.9752
  250MOL   H13540473   0.163   4.374   0.981 -0.4498 -0.4365 -0.3598
  250MOL   H13640474   7.214   4.446   0.910  0.2094 -0.2162  0.3783
  250MOL   H13740475   0.013   4.581   0.863  0.4931 -0.1626  0.5582
  250MOL   C13840476   0.272   4.542   0.906  0.0032  0.6093  0.3460
  250MOL   C13940477   0.395   4.533   0.988 -0.2781 -0.0719  0.3178
  250MOL   N14040478   0.436   4.391   0.990  0.6119  0.2226  0.1917
  250MOL   H14140479   0.296   4.495   0.811 -0.6593 -0.2554  0.5974
  250MOL   H14240480   0.245   4.646   0.888  0.2429  0.6700  0.3452
  250MOL   H14340481   0.379   4.570   1.089 -1.2209  1.0962 -0.2358
  250MOL   H14440482   0.513   4.390   1.056  2.7852  1.6426 -2.2173
  250MOL   H14540483   0.380   4.338   1.055  0.9465  0.8786  1.0160
  250MOL   C14640484   0.516   4.609   0.925 -0.0586  1.1627  0.6095
  250MOL   C14740485   0.493   4.756   0.881  0.2790  0.6550 -0.2140
  250MOL   N14840486   0.447   4.831   0.998  0.1133 -0.2655  0.1189
  250MOL   H14940487   0.582   4.608   1.011  0.0774  1.4195  0.5062
  250MOL   H15040488   0.557   4.544   0.847 -0.1863 -0.4809  1.8876
  250MOL   H15140489   0.411   4.756   0.809  1.6978  0.5232 -1.8524
  250MOL   H15240490   0.358   4.795   1.028  0.6012 -2.0461 -0.4924
  250MOL   H15340491   0.488   4.803   1.086 -1.4514  0.7380  1.1850
  250MOL   C15440492   0.614   4.814   0.820 -0.3168  0.0460 -0.7797
  250MOL   C15540493   0.671   4.745   0.697 -0.5811  0.0743  0.8902
  250MOL   N15640494   0.787   4.806   0.636  0.7724 -0.1839  0.3078
  250MOL   H15740495   0.592   4.919   0.800 -1.6087 -0.5656 -2.6632
  250MOL   H15840496   0.694   4.817   0.894 -1.3303 -0.8204  0.3729
  250MOL   H15940497   0.588   4.748   0.626 -0.6826  1.2122  1.0460
  250MOL   H16040498   0.862   4.800   0.703 -0.5049 -2.0996  1.6239
  250MOL   H16140499   0.764   4.904   0.623 -0.8965 -0.8155 -2.0265
  250MOL   H16240500   0.687   4.641   0.727  1.5845  1.3611  4.4768
  251MOL     C140501   4.466   2.657   4.945  0.2200 -0.3385  0.0357
  251MOL     C240502   4.406   2.518   4.969 -0.5646  0.3114 -0.3819
  251MOL     N340503   4.435   2.480   5.109 -0.1482 -0.4834 -0.6258
  251MOL     H440504   4.448   2.722   5.031  0.5354 -1.6329  1.0941
  251MOL     H540505   4.435   2.705   4.852 -0.2745 -1.1962 -0.2475
  251MOL     H640506   4.455   2.442   4.908 -0.8501  3.0077 -4.1699
  251MOL     H740507   4.534   2.459   5.101 -0.0449 -0.0727 -0.4291
  251MOL     H840508   4.393   2.389   5.118 -0.3029 -0.2933  0.6791
  251MOL     H940509   4.574   2.649   4.950  0.5263  3.3275  0.2582
  251MOL    C1040510   4.258   2.509   4.923  0.1896  0.1550  0.0811
  251MOL    C1140511   4.234   2.495   4.770 -0.0524  0.1237  0.0026
  251MOL    N1240512   4.274   2.360   4.742  0.1858 -0.1830  0.6767
  251MOL    H1340513   4.213   2.426   4.978  1.4995  0.6851  1.9992
  251MOL    H1440514   4.206   2.594   4.967  1.2140 -0.0331  1.6931
  251MOL    H1540515   4.298   2.556   4.707 -1.1656 -1.4793 -2.7678
  251MOL    H1640516   4.361   2.336   4.788  0.2021 -0.0090  0.7329
  251MOL    H1740517   4.290   2.360   4.642  1.8271  0.9553  0.9253
  251MOL    C1840518   4.086   2.512   4.736  0.7345 -0.5262 -0.7241
  251MOL    C1940519   4.024   2.653   4.705 -0.3931 -0.0457 -0.3024
  251MOL    N2040520   4.090   2.715   4.592 -0.1252 -0.2284  0.0139
  251MOL    H2140521   4.051   2.461   4.646  0.0029 -0.5605 -0.4215
  251MOL    H2240522   4.028   2.460   4.811  0.8255  1.7087  0.9365
  251MOL    H2340523   4.035   2.724   4.787 -2.4251  0.2256 -0.2480
  251MOL    H2440524   4.027   2.776   4.542 -3.4222 -3.0097  0.5366
  251MOL    H2540525   4.167   2.772   4.622 -1.1574  0.6884  0.9697
  251MOL    C2640526   3.869   2.645   4.690 -0.4755  0.2803 -0.7011
  251MOL    C2740527   3.792   2.608   4.823  0.0849 -0.4280  0.8939
  251MOL    N2840528   3.772   2.731   4.888 -0.3086 -0.1723 -0.3160
  251MOL    H2940529   3.815   2.727   4.643 -0.6607  1.0646  0.8565
  251MOL    H3040530   3.839   2.572   4.615  0.6252 -0.1723 -0.7191
  251MOL    H3140531   3.846   2.549   4.896  3.0357 -1.0142 -1.6388
  251MOL    H3240532   3.767   2.691   4.981  2.1226 -2.2573 -1.0047
  251MOL    H3340533   3.865   2.770   4.898 -0.3777  0.1634 -0.9823
  251MOL    C3440534   3.657   2.546   4.777 -0.0837  0.1646 -0.3951
  251MOL    C3540535   3.545   2.523   4.884  0.1023 -0.0188  0.3627
  251MOL    N3640536   3.423   2.466   4.837  0.4962 -0.3368 -0.8947
  251MOL    H3740537   3.627   2.590   4.683  0.1858  0.6169 -0.2682
  251MOL    H3840538   3.684   2.446   4.742 -1.3334 -0.3474  0.1030
  251MOL    H3940539   3.523   2.620   4.930 -1.6219  0.3363 -1.1729
  251MOL    H4040540   3.443   2.385   4.780  1.6743 -0.4478 -0.3503
  251MOL    H4140541   3.368   2.431   4.914  0.8957 -0.4905 -0.6752
  251MOL    C4240542   3.592   2.442   5.001 -0.0167  0.1018 -0.8933
  251MOL    C4340543   3.493   2.429   5.123 -0.7184  0.1351 -1.0310
  251MOL    N4440544   3.535   2.320   5.199 -0.7061 -0.0075  0.6432
  251MOL    H4540545   3.613   2.346   4.954  2.7947 -1.0552  2.5232
  251MOL    H4640546   3.684   2.490   5.035  0.5782 -0.5983 -1.4899
  251MOL    H4740547   3.395   2.400   5.085 -0.4754 -1.4570 -0.4680
  251MOL    H4840548   3.464   2.310   5.271 -1.3044  0.6643  0.1473
  251MOL    H4940549   3.537   2.229   5.155  2.5637  1.0957 -1.6169
  251MOL    C5040550   3.492   2.563   5.210  0.4122  0.0706  1.1702
  251MOL    C5140551   3.371   2.642   5.179 -0.7257  0.2978 -0.5353
  251MOL    N5240552   3.288   2.645   5.296 -0.0805 -0.4437 -0.1894
  251MOL    H5340553   3.496   2.544   5.317 -0.7956 -1.4476  0.9705
  251MOL    H5440554   3.577   2.620   5.173 -2.2547  2.7152 -1.1502
  251MOL    H5540555   3.313   2.605   5.094  1.6203  0.1701 -2.1165
  251MOL    H5640556   3.229   2.724   5.272  1.8683  0.7803 -1.0730
  251MOL    H5740557   3.350   2.680   5.368  1.5144 -1.7245 -0.9094
  251MOL    C5840558   3.402   2.790   5.148 -0.1465 -0.2554  0.8927
  251MOL    C5940559   3.280   2.874   5.095 -0.6868 -0.0640  0.4504
  251MOL    N6040560   3.174   2.877   5.194 -0.6627  0.0095  0.2988
  251MOL    H6140561   3.446   2.841   5.234  0.2201  0.0562  0.5244
  251MOL    H6240562   3.480   2.790   5.073 -1.2516  0.0318 -0.2777
  251MOL    H6340563   3.243   2.816   5.011  0.2705  0.7675 -0.5693
  251MOL    H6440564   3.147   2.972   5.216 -1.1065 -0.2408  0.8465
  251MOL    H6540565   3.087   2.840   5.158 -1.3514  0.1911  1.7567
  251MOL    C6640566   3.301   3.017   5.054 -0.3825 -0.6396 -0.9262
  251MOL    C6740567   3.328   3.042   4.909 -0.2504 -0.2107  0.4601
  251MOL    N6840568   3.355   3.184   4.882  0.0559  0.7041 -0.2611
  251MOL    H6940569   3.219   3.084   5.080 -0.3008 -0.6739 -0.5731
  251MOL    H7040570   3.385   3.054   5.113 -1.3421 -0.1354  0.1512
  251MOL    H7140571   3.236   3.015   4.858 -0.0693  0.9688 -0.5103
  251MOL    H7240572   3.370   3.215   4.788 -2.4225  0.5629 -0.7419
  251MOL    H7340573   3.278   3.241   4.914 -1.4780 -0.2779 -2.1024
  251MOL    C7440574   3.446   2.962   4.846 -1.1654  0.5462  0.1022
  251MOL    C7540575   3.468   2.982   4.696  0.3988  0.2241  0.1304
  251MOL    N7640576   3.596   2.914   4.679  0.4504  0.0914  0.4287
  251MOL    H7740577   3.546   2.990   4.878 -0.6607  2.0881 -2.6442
  251MOL    H7840578   3.433   2.856   4.867 -0.7742  0.5500  0.3622
  251MOL    H7940579   3.482   3.089   4.679  0.2481  0.0669 -1.0836
  251MOL    H8040580   3.639   2.885   4.766  1.6820 -1.2596 -0.6047
  251MOL    H8140581   3.586   2.826   4.629 -1.5103  0.7283 -0.3358
  251MOL    C8240582   3.351   2.917   4.607  0.0484  0.2335  0.0760
  251MOL    C8340583   3.312   2.995   4.475 -0.5198 -0.2393 -0.1152
  251MOL    N8440584   3.274   3.130   4.521 -0.3264  0.5796 -0.2661
  251MOL    H8540585   3.370   2.816   4.570 -1.4093  0.2433 -0.7015
  251MOL    H8640586   3.254   2.915   4.656 -0.5885 -1.1389 -1.2254
  251MOL    H8740587   3.237   2.944   4.416 -1.1870 -0.6199  1.0364
  251MOL    H8840588   3.223   3.123   4.607  0.7259  0.1427  0.3254
  251MOL    H8940589   3.205   3.170   4.458 -0.4852  1.0135  0.1807
  251MOL    C9040590   3.431   3.002   4.374 -0.6086 -0.9221 -0.1162
  251MOL    C9140591   3.487   2.868   4.315 -0.2263  0.1413 -1.0527
  251MOL    N9240592   3.382   2.815   4.242 -0.0049  0.3241  0.0913
  251MOL    H9340593   3.400   3.071   4.296  0.8715 -0.3046 -0.1882
  251MOL    H9440594   3.512   3.051   4.429  0.0116  0.0985 -1.8868
  251MOL    H9540595   3.502   2.791   4.390  0.4237  0.6175 -0.6815
  251MOL    H9640596   3.412   2.724   4.210  0.2137  0.7604 -0.9531
  251MOL    H9740597   3.378   2.874   4.161  0.2908 -2.2569 -1.8909
  251MOL    C9840598   3.605   2.885   4.222 -0.4943 -0.6174  0.8514
  251MOL    C9940599   3.730   2.816   4.292  0.0482 -0.2891 -0.1981
  251MOL   N10040600   3.750   2.678   4.238  0.0477  0.1860 -0.4327
  251MOL   H10140601   3.601   2.846   4.120 -0.7776  1.5357  0.0084
  251MOL   H10240602   3.609   2.993   4.214  1.2793 -0.5906  1.8257
  251MOL   H10340603   3.718   2.812   4.400  0.3985  2.0213 -0.0273
  251MOL   H10440604   3.674   2.623   4.276  1.0277 -0.2055  0.9916
  251MOL   H10540605   3.841   2.652   4.273  0.6348  1.3260 -1.1049
  251MOL   C10640606   3.860   2.891   4.286  0.0257  0.4547 -0.6357
  251MOL   C10740607   3.885   3.002   4.388  0.6656  0.0661 -0.0690
  251MOL   N10840608   3.890   2.957   4.528 -0.5717  0.0926 -0.0388
  251MOL   H10940609   3.933   2.816   4.313 -0.4661  0.4907  0.8579
  251MOL   H11040610   3.884   2.909   4.181 -0.0468  0.5924 -0.6289
  251MOL   H11140611   3.811   3.082   4.386  0.2575 -0.3595 -3.4541
  251MOL   H11240612   3.930   3.037   4.575  0.1870 -0.4836  0.3226
  251MOL   H11340613   3.801   2.952   4.575 -0.0381 -3.8680  0.8034
  251MOL   C11440614   4.019   3.077   4.367  0.4558  0.9846 -0.1651
  251MOL   C11540615   4.022   3.186   4.255  0.8529 -0.4135 -0.2000
  251MOL   N11640616   4.045   3.308   4.323  0.3599  0.0125  0.0914
  251MOL   H11740617   4.049   3.119   4.463 -0.4952  2.6194 -0.5601
  251MOL   H11840618   4.082   2.992   4.342 -2.3677 -1.0191 -0.7702
  251MOL   H11940619   3.921   3.190   4.214  0.6584 -0.2364  0.2943
  251MOL   H12040620   3.981   3.321   4.400  1.8908 -3.2911  2.0655
  251MOL   H12140621   4.121   3.273   4.379 -0.6703  0.3627  1.7471
  251MOL   C12240622   4.127   3.160   4.150 -0.1874 -0.2147  0.1779
  251MOL   C12340623   4.102   3.252   4.034  0.0445  0.0747  0.1894
  251MOL   N12440624   4.154   3.382   4.063  0.2068  0.4510 -0.5626
  251MOL   H12540625   4.232   3.161   4.178  0.2684  0.8239 -1.4775
  251MOL   H12640626   4.104   3.061   4.112  0.9020 -0.2430 -0.4215
  251MOL   H12740627   3.995   3.270   4.025 -0.2320 -1.7420 -0.3637
  251MOL   H12840628   4.132   3.454   3.995 -0.8462 -0.2367 -0.9469
  251MOL   H12940629   4.102   3.400   4.147  0.3704 -2.5419  0.2394
  251MOL   C13040630   4.144   3.210   3.896 -0.1561 -0.0008 -0.0805
  251MOL   C13140631   4.058   3.100   3.825 -0.7130 -0.1950 -0.7166
  251MOL   N13240632   3.951   3.160   3.748 -0.6942 -0.4039 -0.2233
  251MOL   H13340633   4.137   3.294   3.826 -0.1826 -0.5010 -0.6815
  251MOL   H13440634   4.250   3.184   3.902 -0.1063  0.3032  0.3935
  251MOL   H13540635   4.006   3.041   3.900 -1.9480  0.6632 -0.8867
  251MOL   H13640636   3.944   3.128   3.652  0.4351 -0.9562 -0.1253
  251MOL   H13740637   3.974   3.256   3.727  0.1019 -0.1522  1.6776
  251MOL   C13840638   4.131   2.990   3.750 -0.2156 -1.0408 -0.1775
  251MOL   C13940639   4.045   2.862   3.734 -0.2758 -0.1857 -0.4629
  251MOL   N14040640   4.121   2.780   3.646 -0.0145  0.1841  0.1237
  251MOL   H14140641   4.168   3.030   3.655  0.4702  1.6818  1.2025
  251MOL   H14240642   4.218   2.971   3.812 -1.0754  0.9095  1.6721
  251MOL   H14340643   3.948   2.890   3.693 -1.3028 -0.3245  1.7734
  251MOL   H14440644   4.217   2.784   3.675  0.0186 -1.1762  0.2327
  251MOL   H14540645   4.121   2.816   3.552  0.5363 -2.0332 -0.7582
  251MOL   C14640646   4.016   2.776   3.863 -0.2498 -0.4453  0.0844
  251MOL   C14740647   3.916   2.665   3.847  0.0821 -0.0837 -0.5436
  251MOL   N14840648   3.937   2.574   3.956 -0.1726 -0.1210 -0.2032
  251MOL   H14940649   4.112   2.736   3.896 -0.6579 -1.4639  0.0501
  251MOL   H15040650   3.982   2.846   3.939  0.7127  0.9597 -0.7561
  251MOL   H15140651   3.941   2.601   3.763 -0.8895  0.3701 -1.1868
  251MOL   H15240652   3.846   2.540   3.982 -0.0884 -0.6222 -0.5501
  251MOL   H15340653   3.957   2.636   4.033  1.7371 -0.9041 -0.0324
  251MOL   C15440654   3.768   2.715   3.842  0.9366 -0.2723  0.1091
  251MOL   C15540655   3.668   2.618   3.787  0.2991  0.2172 -0.1970
  251MOL   N15640656   3.524   2.648   3.805 -0.4411  0.4205  0.2735
  251MOL   H15740657   3.748   2.753   3.942  0.4389 -0.1089 -0.0505
  251MOL   H15840658   3.774   2.806   3.782 -2.0684  0.4062  0.7407
  251MOL   H15940659   3.698   2.516   3.811 -1.7990 -0.1654  0.9361
  251MOL   H16040660   3.501   2.651   3.904 -1.5585 -1.3113  0.0875
  251MOL   H16140661   3.461   2.576   3.770  0.3486 -1.0741  1.8396
  251MOL   H16240662   3.677   2.624   3.678 -0.5327 -0.3822 -0.3017
  252MOL     C140663   2.964   3.694   4.866  0.9077 -0.4076 -0.5997
  252MOL     C240664   3.057   3.815   4.865  0.4963 -0.5378  0.5632
  252MOL     N340665   2.992   3.928   4.925  0.5829  0.1892  0.2111
  252MOL     H440666   2.955   3.665   4.971 -3.1563 -3.6673 -1.6948
  252MOL     H540667   2.995   3.617   4.797 -3.0559  0.8917 -4.0365
  252MOL     H640668   3.083   3.841   4.763 -1.2374 -1.9355 -0.2642
  252MOL     H740669   2.904   3.962   4.888  1.4800  0.6977 -1.5339
  252MOL     H840670   2.973   3.919   5.024 -1.7556 -0.1149 -0.2502
  252MOL     H940671   2.862   3.727   4.845  0.8082  0.5489  1.2156
  252MOL    C1040672   3.183   3.779   4.950  0.1539 -0.3168  0.1469
  252MOL    C1140673   3.265   3.669   4.881 -0.3531  0.0934 -0.5983
  252MOL    N1240674   3.391   3.718   4.835 -0.7005  0.0952 -0.3267
  252MOL    H1340675   3.236   3.874   4.953 -0.0901 -0.1659 -0.2629
  252MOL    H1440676   3.169   3.758   5.057  2.1187  0.5012  0.5762
  252MOL    H1540677   3.207   3.621   4.802 -1.1522  0.0923 -0.0163
  252MOL    H1640678   3.407   3.807   4.880 -0.8640  0.0598 -0.1979
  252MOL    H1740679   3.398   3.733   4.735 -0.3682 -0.0876 -0.3324
  252MOL    C1840680   3.304   3.551   4.981  0.3781  0.0434 -0.3140
  252MOL    C1940681   3.191   3.471   5.046 -0.3156 -0.1852 -0.6673
  252MOL    N2040682   3.148   3.385   4.932 -0.2368  0.4660 -0.1459
  252MOL    H2140683   3.368   3.475   4.935  1.0403  0.2499  0.2549
  252MOL    H2240684   3.367   3.601   5.055  0.4418  0.9469 -0.9595
  252MOL    H2340685   3.099   3.526   5.064 -0.0916  0.0221 -0.1571
  252MOL    H2440686   3.095   3.436   4.863 -3.3814 -2.4472 -0.0050
  252MOL    H2540687   3.085   3.314   4.966  1.3414 -1.0113 -0.2190
  252MOL    C2640688   3.228   3.387   5.171 -0.0024  0.1137 -1.1364
  252MOL    C2740689   3.276   3.471   5.296  0.3266  0.1407 -0.1107
  252MOL    N2840690   3.169   3.559   5.344 -1.1938  0.4978  0.4381
  252MOL    H2940691   3.152   3.320   5.212  0.4533  0.3714  0.1446
  252MOL    H3040692   3.307   3.319   5.139  0.7417  1.1383 -1.4753
  252MOL    H3140693   3.367   3.530   5.282  0.9850 -0.9311 -0.3808
  252MOL    H3240694   3.153   3.626   5.269 -0.9288  0.6393  0.5080
  252MOL    H3340695   3.222   3.615   5.410 -0.3006  3.4076 -2.5909
  252MOL    C3440696   3.320   3.387   5.421 -0.2463 -0.0754  0.4746
  252MOL    C3540697   3.420   3.271   5.404 -0.5159 -0.0901  0.0551
  252MOL    N3640698   3.555   3.326   5.399 -0.0360 -0.7734  0.2749
  252MOL    H3740699   3.357   3.447   5.504  0.8375 -0.8564  0.5730
  252MOL    H3840700   3.228   3.341   5.458 -0.1349 -0.1109  0.7087
  252MOL    H3940701   3.408   3.208   5.316 -1.0548  1.5360 -1.0687
  252MOL    H4040702   3.582   3.394   5.469  1.0452  0.7270 -1.5438
  252MOL    H4140703   3.572   3.379   5.315  0.0266 -1.3965 -0.1102
  252MOL    C4240704   3.422   3.172   5.522  0.4196 -0.1915  0.2285
  252MOL    C4340705   3.300   3.079   5.516  0.5229 -0.2769 -0.3136
  252MOL    N4440706   3.343   2.954   5.456  0.3007  0.2735 -0.2685
  252MOL    H4540707   3.512   3.111   5.522  0.3649 -0.3903 -4.4667
  252MOL    H4640708   3.424   3.225   5.617  2.4231 -1.8082  1.1302
  252MOL    H4740709   3.228   3.119   5.445  0.7140  0.3438 -0.1544
  252MOL    H4840710   3.269   2.918   5.396  1.6745 -0.6761 -1.4177
  252MOL    H4940711   3.422   2.957   5.393  1.1695 -2.0081  0.6813
  252MOL    C5040712   3.240   3.049   5.658 -0.4817 -0.7277  0.7981
  252MOL    C5140713   3.145   3.153   5.716 -0.5840 -0.5927 -1.2969
  252MOL    N5240714   3.073   3.100   5.828  0.1122 -0.0206  0.1249
  252MOL    H5340715   3.186   2.954   5.656 -0.7866 -0.5339 -0.9360
  252MOL    H5440716   3.323   3.054   5.728  1.0193 -2.7201 -0.8005
  252MOL    H5540717   3.083   3.183   5.631  2.3769 -1.6436 -3.9128
  252MOL    H5640718   3.009   3.169   5.864  1.4642  1.6466 -0.5924
  252MOL    H5740719   3.005   3.027   5.810 -3.1406  2.6263  1.2020
  252MOL    C5840720   3.208   3.287   5.775 -0.4304  0.1620 -0.4782
  252MOL    C5940721   3.102   3.390   5.829  0.1723 -0.1503 -0.4020
  252MOL    N6040722   3.167   3.511   5.865 -0.1885 -0.0580 -0.4139
  252MOL    H6140723   3.275   3.264   5.857  0.5631 -0.7820 -1.5386
  252MOL    H6240724   3.260   3.333   5.691  2.4288 -2.5200 -0.2967
  252MOL    H6340725   3.053   3.360   5.922  1.2805 -1.1999 -0.1409
  252MOL    H6440726   3.104   3.536   5.940 -0.7457 -0.9026 -0.5884
  252MOL    H6540727   3.243   3.470   5.918 -0.3945  1.4022  1.0543
  252MOL    C6640728   2.999   3.435   5.719  0.6085  0.1834  0.1869
  252MOL    C6740729   2.881   3.345   5.686  0.2855  0.1943 -0.1509
  252MOL    N6840730   2.817   3.308   5.814 -0.5184  0.1429 -0.4342
  252MOL    H6940731   2.950   3.528   5.746 -0.5010 -0.3718  0.0764
  252MOL    H7040732   3.056   3.463   5.630  1.3442 -0.2276  0.5187
  252MOL    H7140733   2.902   3.244   5.651 -1.7570 -0.0114 -0.8400
  252MOL    H7240734   2.718   3.290   5.815 -0.4863 -0.0254  0.2110
  252MOL    H7340735   2.818   3.392   5.870 -0.9930  1.6346 -2.6061
  252MOL    C7440736   2.777   3.393   5.583  0.0163 -0.1824 -0.2028
  252MOL    C7540737   2.839   3.464   5.464  0.1948  0.2386  0.5576
  252MOL    N7640738   2.935   3.378   5.400  0.1686  0.0343  0.3315
  252MOL    H7740739   2.717   3.309   5.548 -0.1139 -0.1044 -0.1629
  252MOL    H7840740   2.716   3.470   5.630  1.1914 -0.6475  2.1630
  252MOL    H7940741   2.905   3.539   5.508 -0.4521  0.5019  1.0922
  252MOL    H8040742   3.001   3.357   5.473  0.9579  1.4402  0.0384
  252MOL    H8140743   2.981   3.426   5.324  0.6426 -0.5783  0.2218
  252MOL    C8240744   2.737   3.521   5.364  0.7221 -0.2982  0.2577
  252MOL    C8340745   2.693   3.661   5.401  0.1306  0.5363  0.1042
  252MOL    N8440746   2.688   3.739   5.279 -0.2761 -0.1283 -0.1976
  252MOL    H8540747   2.777   3.520   5.263 -0.7780  1.5356 -0.3902
  252MOL    H8640748   2.651   3.454   5.365  1.2833 -1.0404 -0.6742
  252MOL    H8740749   2.765   3.706   5.470  1.0619 -1.8701  0.7686
  252MOL    H8840750   2.613   3.706   5.219  2.4143 -1.9636 -2.6812
  252MOL    H8940751   2.675   3.838   5.290 -0.0491  0.0506 -1.4840
  252MOL    C9040752   2.553   3.661   5.464  0.5417  0.1565 -0.1536
  252MOL    C9140753   2.533   3.773   5.565  0.3411 -0.7675  0.0942
  252MOL    N9240754   2.398   3.780   5.607 -0.1680  0.0611 -0.0157
  252MOL    H9340755   2.475   3.656   5.388 -0.0226  2.1867  0.2713
  252MOL    H9440756   2.537   3.566   5.515  3.2272 -0.7223 -0.8772
  252MOL    H9540757   2.555   3.866   5.512  1.1209 -0.2046  1.3694
  252MOL    H9640758   2.339   3.779   5.525  0.9200  0.3240 -0.8159
  252MOL    H9740759   2.382   3.865   5.661 -1.9581 -0.0157 -0.3724
  252MOL    C9840760   2.620   3.777   5.691 -0.2816 -0.6621  0.3969
  252MOL    C9940761   2.684   3.919   5.722 -0.0414 -0.2325  0.6694
  252MOL   N10040762   2.698   3.923   5.868  0.1043 -0.2280  0.2808
  252MOL   H10140763   2.550   3.748   5.769 -2.8468  1.3277 -1.0740
  252MOL   H10240764   2.691   3.695   5.685  1.2388  0.7504 -1.3280
  252MOL   H10340765   2.612   3.997   5.697  0.6927  0.3149  0.2485
  252MOL   H10440766   2.688   4.024   5.876 -0.1759  0.0644 -2.9444
  252MOL   H10540767   2.616   3.893   5.919  0.0366  0.2766  0.4772
  252MOL   C10640768   2.824   3.956   5.655  0.3233  0.1794  0.0425
  252MOL   C10740769   2.815   4.016   5.511 -0.4194  0.3007  0.2953
  252MOL   N10840770   2.734   4.136   5.517 -0.0533 -0.1500 -0.3217
  252MOL   H10940771   2.878   4.034   5.709 -0.7283 -0.0837  1.5154
  252MOL   H11040772   2.877   3.861   5.649  0.5047  0.3781 -1.6848
  252MOL   H11140773   2.752   3.949   5.453 -1.0883  1.1558  0.0279
  252MOL   H11240774   2.663   4.120   5.448 -0.7828 -0.1700  0.4175
  252MOL   H11340775   2.682   4.133   5.604 -1.0862 -3.1516 -0.9993
  252MOL   C11440776   2.948   4.037   5.430 -0.2743  0.6618 -0.6942
  252MOL   C11540777   3.019   3.906   5.383  0.3969 -0.1057  0.6917
  252MOL   N11640778   2.986   3.882   5.244  0.3369  0.5522  0.3861
  252MOL   H11740779   2.932   4.094   5.338  1.0132  1.4922 -0.4253
  252MOL   H11840780   3.019   4.089   5.493 -1.8344  1.4424  0.4254
  252MOL   H11940781   2.979   3.819   5.435  1.4626 -1.1568 -0.2210
  252MOL   H12040782   3.066   3.839   5.202  1.0169  1.9964  0.1674
  252MOL   H12140783   2.908   3.819   5.251 -0.4341  1.5065  0.6357
  252MOL   C12240784   3.175   3.911   5.387  0.0561  0.3404  0.3349
  252MOL   C12340785   3.229   3.880   5.526 -1.0368  0.7117 -0.0642
  252MOL   N12440786   3.293   3.748   5.507  0.0993  0.2483 -0.2266
  252MOL   H12540787   3.215   3.839   5.316  0.0499  0.9651 -0.3065
  252MOL   H12640788   3.196   4.009   5.345 -0.7141 -0.0515 -0.9763
  252MOL   H12740789   3.146   3.851   5.591 -1.9435  1.7190 -0.7698
  252MOL   H12840790   3.387   3.772   5.479  0.3797 -1.0203 -0.4011
  252MOL   H12940791   3.309   3.694   5.591  0.6921  0.0658 -0.4504
  252MOL   C13040792   3.328   3.975   5.590  0.2946  0.6707  0.3209
  252MOL   C13140793   3.262   4.107   5.646  0.2161  0.2443 -0.4518
  252MOL   N13240794   3.137   4.088   5.719 -0.7148  0.3072 -0.5509
  252MOL   H13340795   3.392   3.924   5.662  2.7542 -1.0901 -3.0269
  252MOL   H13440796   3.392   4.009   5.509 -2.1252  1.0298 -1.4965
  252MOL   H13540797   3.229   4.172   5.565  0.3012  0.8650  0.0022
  252MOL   H13640798   3.158   4.026   5.796 -2.8999 -1.2103 -1.1186
  252MOL   H13740799   3.068   4.039   5.663  0.7341 -0.9031 -1.3170
  252MOL   C13840800   3.344   4.197   5.740 -0.2634 -0.0957 -0.7551
  252MOL   C13940801   3.477   4.245   5.685  0.3143 -0.8755  0.2605
  252MOL   N14040802   3.446   4.326   5.565  0.4904  0.4637  0.6487
  252MOL   H14140803   3.289   4.283   5.777 -0.8406 -1.1123  0.8170
  252MOL   H14240804   3.368   4.151   5.836 -0.1798  0.3639 -0.5556
  252MOL   H14340805   3.533   4.156   5.655  2.3488  0.4058  0.1783
  252MOL   H14440806   3.391   4.256   5.516 -0.0958  0.6158  1.0910
  252MOL   H14540807   3.382   4.399   5.591 -1.9566 -0.7743 -1.6517
  252MOL   C14640808   3.553   4.327   5.794 -0.2836  0.0820 -0.4131
  252MOL   C14740809   3.614   4.235   5.908 -1.0753 -0.1018  0.1734
  252MOL   N14840810   3.755   4.210   5.871 -0.5249 -0.5420  0.7100
  252MOL   H14940811   3.626   4.390   5.743  0.4770 -1.7340 -1.6062
  252MOL   H15040812   3.483   4.402   5.830  0.8376  0.5995  0.7195
  252MOL   H15140813   3.563   4.139   5.899  0.4780 -0.9488  0.2246
  252MOL   H15240814   3.772   4.123   5.920  0.6479  0.0365  1.3458
  252MOL   H15340815   3.810   4.281   5.918  1.1523 -2.0361  1.0439
  252MOL   C15440816   3.608   4.289   6.055  0.0672 -0.1987 -0.5703
  252MOL   C15540817   3.464   4.318   6.112 -0.4642  1.0252  1.2799
  252MOL   N15640818   3.473   4.420   6.217  0.5229  0.2164  0.3728
  252MOL   H15740819   3.650   4.224   6.131 -0.5081 -1.6998 -1.5062
  252MOL   H15840820   3.673   4.376   6.064  0.9186 -0.8157 -0.7073
  252MOL   H15940821   3.414   4.228   6.148  1.7097 -1.3635 -1.5092
  252MOL   H16040822   3.384   4.464   6.203  0.8524  0.4822 -1.0206
  252MOL   H16140823   3.542   4.491   6.198  0.7595  0.4582  2.0261
  252MOL   H16240824   3.406   4.362   6.031  1.4459  0.8177 -0.2351
  253MOL     C140825   5.654   3.293   5.741 -0.3731  0.4118 -0.1335
  253MOL     C240826   5.617   3.159   5.693  0.2510  0.1705  0.4615
  253MOL     N340827   5.595   3.165   5.553 -0.0222 -0.7147  0.9999
  253MOL     H440828   5.579   3.365   5.709 -1.2383  0.2597  1.4838
  253MOL     H540829   5.752   3.320   5.702  0.4350 -2.5231 -0.2288
  253MOL     H640830   5.525   3.130   5.742  0.0385  1.0471  0.5908
  253MOL     H740831   5.577   3.070   5.524 -0.3364 -0.8991  1.7843
  253MOL     H840832   5.519   3.226   5.527  2.3569  1.4157 -1.2162
  253MOL     H940833   5.656   3.278   5.849 -0.2471  0.7412 -0.0887
  253MOL    C1040834   5.714   3.044   5.742  0.0189 -0.1671 -0.3334
  253MOL    C1140835   5.643   2.906   5.771 -0.2758  0.3419 -0.1021
  253MOL    N1240836   5.732   2.794   5.758  0.0409 -0.1686 -0.2182
  253MOL    H1340837   5.804   3.045   5.680  0.4914  2.1587  0.3539
  253MOL    H1440838   5.752   3.071   5.840  0.3766 -0.3862 -0.4123
  253MOL    H1540839   5.574   2.883   5.690  0.7913 -0.2202 -0.8592
  253MOL    H1640840   5.732   2.762   5.663  1.0587 -3.2058  0.7302
  253MOL    H1740841   5.830   2.806   5.782 -0.6658  1.0549  2.2433
  253MOL    C1840842   5.550   2.907   5.903  0.6683 -1.9132  0.0877
  253MOL    C1940843   5.516   2.772   5.955  0.4123  0.9545 -0.1733
  253MOL    N2040844   5.463   2.785   6.100 -0.0749 -0.2221  0.5337
  253MOL    H2140845   5.604   2.962   5.980 -1.1813 -2.0308  1.5273
  253MOL    H2240846   5.457   2.961   5.887  1.0150 -1.2967  0.1546
  253MOL    H2340847   5.606   2.711   5.958 -0.6601 -0.8148 -2.6299
  253MOL    H2440848   5.415   2.700   6.123  0.6030 -0.3775  1.4260
  253MOL    H2540849   5.539   2.791   6.167  0.3467 -0.3137  0.0690
  253MOL    C2640850   5.407   2.700   5.871  0.2265 -0.2126  0.3016
  253MOL    C2740851   5.430   2.551   5.867 -0.6991 -0.3643 -0.8641
  253MOL    N2840852   5.297   2.494   5.852  0.4473 -0.2254 -0.5162
  253MOL    H2940853   5.315   2.716   5.926  0.1890 -0.2025  0.2362
  253MOL    H3040854   5.393   2.747   5.773 -0.5176 -1.0929 -0.0151
  253MOL    H3140855   5.463   2.500   5.957  1.4236  1.1125 -0.7753
  253MOL    H3240856   5.290   2.425   5.926  1.4603 -0.8072 -0.9367
  253MOL    H3340857   5.301   2.434   5.770  4.9041 -0.1507 -0.4753
  253MOL    C3440858   5.523   2.512   5.746  0.3358 -0.0039  0.2784
  253MOL    C3540859   5.582   2.370   5.760 -0.2937  0.0985  0.1392
  253MOL    N3640860   5.469   2.275   5.774 -0.4831 -0.5695 -0.0090
  253MOL    H3740861   5.460   2.531   5.660  0.2263  0.1685  0.3954
  253MOL    H3840862   5.609   2.579   5.749  0.1364  0.2430  0.5103
  253MOL    H3940863   5.638   2.344   5.849 -1.5083  0.0093  0.8891
  253MOL    H4040864   5.502   2.190   5.818 -2.8981 -0.9241  1.2049
  253MOL    H4140865   5.412   2.312   5.849  1.4353 -1.5379  1.9578
  253MOL    C4240866   5.673   2.344   5.642  0.1926 -0.3627 -0.5124
  253MOL    C4340867   5.815   2.404   5.660  0.7018  0.1647 -0.1489
  253MOL    N4440868   5.892   2.326   5.756  0.0012  0.6088 -0.2086
  253MOL    H4540869   5.684   2.235   5.638 -2.1364 -0.6548  0.6035
  253MOL    H4640870   5.632   2.392   5.554 -2.5955 -2.5050 -0.4654
  253MOL    H4740871   5.795   2.499   5.709  1.3874 -0.4325  1.3016
  253MOL    H4840872   5.837   2.311   5.839  1.6297  0.8160  0.9329
  253MOL    H4940873   5.913   2.231   5.728  1.1336  0.3395  1.4410
  253MOL    C5040874   5.899   2.409   5.527 -0.5315 -0.0819 -0.6015
  253MOL    C5140875   5.925   2.552   5.474  0.0549 -0.1004 -0.0645
  253MOL    N5240876   6.039   2.551   5.388 -0.3756  0.8501 -0.0883
  253MOL    H5340877   5.996   2.360   5.535  0.0850  1.2823  0.6056
  253MOL    H5440878   5.862   2.348   5.445 -3.7283  0.5881  0.2649
  253MOL    H5540879   5.945   2.626   5.552  1.6897 -0.3069 -0.2634
  253MOL    H5640880   6.055   2.642   5.346 -1.7166  1.1839  0.0806
  253MOL    H5740881   6.121   2.537   5.444 -1.0280 -0.7425  0.4783
  253MOL    C5840882   5.805   2.588   5.384 -0.0739 -0.2542  0.3173
  253MOL    C5940883   5.701   2.683   5.453  0.3606 -0.1863  0.3972
  253MOL    N6040884   5.777   2.810   5.471  0.0674  0.0403 -0.4510
  253MOL    H6140885   5.843   2.629   5.290 -0.2710  1.0111  0.7784
  253MOL    H6240886   5.746   2.504   5.346 -0.1772  0.3230 -0.8319
  253MOL    H6340887   5.664   2.630   5.540 -0.4401 -2.0062 -1.0113
  253MOL    H6440888   5.714   2.888   5.486  0.1911  0.1024 -0.2430
  253MOL    H6540889   5.816   2.847   5.386  2.1665 -0.5272  0.2175
  253MOL    C6640890   5.591   2.708   5.351  0.0091  0.9418  0.5798
  253MOL    C6740891   5.465   2.763   5.423 -0.4031  0.2791 -0.0698
  253MOL    N6840892   5.457   2.909   5.413  0.1064  0.2763 -0.6186
  253MOL    H6940893   5.612   2.771   5.264 -1.0996  1.3200  0.5853
  253MOL    H7040894   5.577   2.617   5.293  0.8919  1.2829 -0.1932
  253MOL    H7140895   5.467   2.726   5.526  0.4064 -2.5084 -1.0628
  253MOL    H7240896   5.376   2.942   5.465  0.5492 -0.8051  0.7751
  253MOL    H7340897   5.430   2.923   5.317 -1.0693 -0.5281 -0.4180
  253MOL    C7440898   5.336   2.701   5.363  0.2038  0.3174  0.0784
  253MOL    C7540899   5.307   2.547   5.383 -0.5623 -0.4617  0.2068
  253MOL    N7640900   5.271   2.527   5.517 -0.0513  0.0595 -0.1184
  253MOL    H7740901   5.248   2.755   5.399  1.4248  2.0575  0.5240
  253MOL    H7840902   5.354   2.725   5.258  0.2671 -3.4230 -0.8370
  253MOL    H7940903   5.398   2.488   5.370 -0.6419 -0.1082 -1.9908
  253MOL    H8040904   5.266   2.427   5.526  1.0097 -0.1766 -1.8362
  253MOL    H8140905   5.339   2.561   5.584  1.0746 -0.6361 -0.8840
  253MOL    C8240906   5.197   2.491   5.291 -0.4695  0.0519  0.7519
  253MOL    C8340907   5.249   2.483   5.144 -0.2327 -0.4094  0.2777
  253MOL    N8440908   5.350   2.383   5.129  0.3763  0.3587 -0.5486
  253MOL    H8540909   5.154   2.393   5.315 -2.0336  0.8610  1.3392
  253MOL    H8640910   5.120   2.566   5.305 -1.1411 -0.7569  1.5232
  253MOL    H8740911   5.294   2.582   5.134  0.7695 -0.7870  1.0558
  253MOL    H8840912   5.336   2.336   5.042  1.8090 -1.3722  0.1195
  253MOL    H8940913   5.441   2.426   5.128 -1.1016  3.6932  0.3471
  253MOL    C9040914   5.149   2.463   5.031  0.2185 -0.0947 -0.6140
  253MOL    C9140915   5.019   2.547   5.021  0.0414  0.5720 -0.2942
  253MOL    N9240916   5.044   2.680   4.957 -0.0797  0.4798 -0.0527
  253MOL    H9340917   5.196   2.461   4.933  0.7470  2.1791 -0.4275
  253MOL    H9440918   5.116   2.360   5.049  1.0978 -0.5164 -1.3804
  253MOL    H9540919   4.980   2.561   5.121 -1.5505 -1.2892 -0.6345
  253MOL    H9640920   5.089   2.746   5.019  0.7484  0.2752 -0.4276
  253MOL    H9740921   4.951   2.718   4.949 -0.5511 -0.6488  0.0146
  253MOL    C9840922   4.900   2.484   4.941  0.0686 -0.2349 -0.0417
  253MOL    C9940923   4.837   2.357   5.005  0.2838  0.8431  0.4087
  253MOL   N10040924   4.724   2.397   5.088  0.1570 -0.3926  0.1941
  253MOL   H10140925   4.818   2.556   4.936  1.7488  1.8960  2.2691
  253MOL   H10240926   4.931   2.458   4.840 -0.3070  0.9628 -0.4724
  253MOL   H10340927   4.904   2.301   5.071  1.7607  0.7690 -1.1158
  253MOL   H10440928   4.702   2.302   5.116  2.5611 -0.6883  1.1402
  253MOL   H10540929   4.767   2.436   5.170 -1.1113  1.9757 -0.2234
  253MOL   C10640930   4.781   2.261   4.895 -0.0174 -0.4923 -0.1092
  253MOL   C10740931   4.858   2.134   4.858 -0.2471  0.1939  0.3610
  253MOL   N10840932   4.827   2.020   4.945  0.2800 -0.0784 -0.5778
  253MOL   H10940933   4.683   2.221   4.921  1.1655 -2.9740  0.6120
  253MOL   H11040934   4.750   2.321   4.809 -1.7495 -0.5713  0.4421
  253MOL   H11140935   4.962   2.161   4.874  0.1140 -0.3214 -1.0362
  253MOL   H11240936   4.903   1.954   4.937  1.2675  0.9847 -0.0849
  253MOL   H11340937   4.837   2.043   5.043 -0.4223 -1.2417 -0.2215
  253MOL   C11440938   4.848   2.095   4.705  0.3026  0.1257  0.2954
  253MOL   C11540939   4.943   2.171   4.618 -1.0366  0.5072  0.2170
  253MOL   N11640940   5.078   2.106   4.602  0.4066 -0.0528 -0.7752
  253MOL   H11740941   4.866   1.989   4.693 -0.2034  0.0536  0.1456
  253MOL   H11840942   4.748   2.096   4.661 -0.7389 -2.0433  2.5207
  253MOL   H11940943   4.960   2.267   4.665 -2.4273  1.1810 -0.6195
  253MOL   H12040944   5.133   2.173   4.549  0.2122  0.8247  0.1217
  253MOL   H12140945   5.076   2.031   4.534  1.0964  0.6460 -1.5686
  253MOL   C12240946   4.879   2.186   4.479  0.1403 -0.1543  1.1465
  253MOL   C12340947   4.740   2.277   4.479 -0.5089  0.2463  0.2307
  253MOL   N12440948   4.769   2.411   4.528 -0.1637 -0.0180 -0.2497
  253MOL   H12540949   4.948   2.247   4.421 -2.4255  0.6682 -1.1496
  253MOL   H12640950   4.874   2.095   4.420  2.7716  0.9165 -0.8302
  253MOL   H12740951   4.658   2.247   4.543 -0.4178  1.2270  0.8168
  253MOL   H12840952   4.772   2.399   4.628 -0.7573  1.8417  0.0137
  253MOL   H12940953   4.689   2.469   4.506  0.7297  0.9059 -1.1011
  253MOL   C13040954   4.678   2.290   4.344 -0.3909 -0.2033 -0.2868
  253MOL   C13140955   4.564   2.202   4.311  0.1758  0.7088  0.0947
  253MOL   N13240956   4.533   2.212   4.172  0.0841  0.3142 -0.6219
  253MOL   H13340957   4.639   2.389   4.320 -2.2508 -0.3284  1.9820
  253MOL   H13440958   4.760   2.279   4.274 -0.4131  1.5570 -0.5975
  253MOL   H13540959   4.472   2.222   4.368 -1.5612 -0.8186 -2.0976
  253MOL   H13640960   4.603   2.158   4.122 -0.8156  1.2683 -2.9893
  253MOL   H13740961   4.454   2.153   4.150  0.4142  0.3743 -2.0164
  253MOL   C13840962   4.587   2.054   4.351 -0.4669 -0.2676  0.0098
  253MOL   C13940963   4.473   1.950   4.325  0.2370 -0.1572  0.1247
  253MOL   N14040964   4.517   1.839   4.245 -0.7068  0.4472 -0.8463
  253MOL   H14140965   4.676   2.022   4.296 -0.2596  0.9481 -0.3737
  253MOL   H14240966   4.625   2.057   4.454 -0.0144  0.0009 -0.1623
  253MOL   H14340967   4.397   1.991   4.259  2.4199  0.6780 -1.9717
  253MOL   H14440968   4.440   1.774   4.247 -1.6889  1.6163  0.3153
  253MOL   H14540969   4.515   1.878   4.152  0.4409 -0.1374 -1.1222
  253MOL   C14640970   4.401   1.899   4.448  0.1050  0.7778 -0.3043
  253MOL   C14740971   4.336   2.010   4.538 -0.4444  0.3138 -0.4514
  253MOL   N14840972   4.192   2.007   4.534  0.0341 -0.2399  0.2000
  253MOL   H14940973   4.327   1.821   4.430 -0.2826  1.5532 -2.1629
  253MOL   H15040974   4.472   1.835   4.502 -0.0451  0.9475  0.1000
  253MOL   H15140975   4.367   2.112   4.518  1.8280 -0.0879  0.7701
  253MOL   H15240976   4.166   1.921   4.581 -2.9135  1.6664  2.2061
  253MOL   H15340977   4.152   2.080   4.591 -1.4295 -1.1683  0.3949
  253MOL   C15440978   4.374   1.981   4.681  0.0878 -0.6592 -0.0849
  253MOL   C15540979   4.520   2.012   4.720  0.1019  0.5911  0.0175
  253MOL   N15640980   4.539   1.983   4.862  0.2437 -0.8020 -0.3261
  253MOL   H15740981   4.319   2.056   4.738 -3.0212 -2.6922 -0.2836
  253MOL   H15840982   4.344   1.889   4.731  0.2448 -0.8205 -0.2889
  253MOL   H15940983   4.546   2.111   4.682 -1.5069  0.6203 -1.0797
  253MOL   H16040984   4.638   1.988   4.882 -0.1029 -0.9593  1.5333
  253MOL   H16140985   4.523   1.885   4.886  0.1358 -0.2375  2.1173
  253MOL   H16240986   4.582   1.941   4.664 -1.2573 -1.7864  1.4226
  254MOL     C140987   0.304   4.769   0.495 -0.2813  0.5453  0.3351
  254MOL     C240988   0.288   4.624   0.544  0.3892  0.1341 -0.0458
  254MOL     N340989   0.154   4.598   0.578  0.0735 -0.5986 -0.4699
  254MOL     H440990   0.228   4.831   0.542 -2.9321 -1.0439 -1.7208
  254MOL     H540991   0.274   4.768   0.390 -3.3566 -1.2730  1.1721
  254MOL     H640992   0.350   4.614   0.633  0.1122 -2.1067 -0.0788
  254MOL     H740993   0.120   4.669   0.641  1.2017 -0.2611 -0.2317
  254MOL     H840994   0.140   4.516   0.635 -2.1553 -2.5105 -3.6091
  254MOL     H940995   0.405   4.804   0.515 -0.8897  0.5320  3.7926
  254MOL    C1040996   0.350   4.512   0.451 -0.0378 -0.0267 -0.6441
  254MOL    C1140997   0.494   4.536   0.407 -0.3128 -0.3115  0.4596
  254MOL    N1240998   0.574   4.417   0.404 -0.2622 -0.1057 -0.2389
  254MOL    H1340999   0.337   4.417   0.504 -0.0747  0.6279  0.5310
  254MOL    H1441000   0.288   4.492   0.363  0.8462  0.5257 -1.4097
  254MOL    H1541001   0.534   4.595   0.490  0.9037 -0.5503  0.0501
  254MOL    H1641002   0.563   4.374   0.495  0.8162  2.2613  1.0638
  254MOL    H1741003   0.670   4.446   0.419 -0.7991  1.5158  0.2225
  254MOL    C1841004   0.513   4.611   0.273  0.1328 -0.2427 -0.5257
  254MOL    C1941005   0.573   4.748   0.291 -0.7743  0.0618  0.1283
  254MOL    N2041006   0.714   4.732   0.308 -0.0971 -0.1489 -0.1636
  254MOL    H2141007   0.579   4.553   0.208 -1.1421 -2.1540 -0.1303
  254MOL    H2241008   0.420   4.617   0.216  1.2258  0.1660 -2.3069
  254MOL    H2341009   0.534   4.799   0.378 -2.2181  0.0469 -0.4862
  254MOL    H2441010   0.746   4.638   0.290 -0.9279 -0.5483  0.3922
  254MOL    H2541011   0.727   4.759   0.405 -0.1614  0.2031 -0.2530
  254MOL    C2641012   0.556   4.836   0.167 -0.0870 -0.4052 -0.2029
  254MOL    C2741013   0.419   4.895   0.153  0.4100  0.1302 -0.5998
  254MOL    N2841014   0.415   5.013   0.238 -0.4687 -0.4201  0.0475
  254MOL    H2941015   0.626   4.920   0.166 -0.7552  0.1687  0.5513
  254MOL    H3041016   0.592   4.783   0.079  1.8284 -0.5343  0.6222
  254MOL    H3141017   0.353   4.811   0.173  1.7429 -0.5560  1.0296
  254MOL    H3241018   0.442   4.969   0.326 -0.5181  0.0792  0.3114
  254MOL    H3341019   0.484   5.078   0.204 -0.8285  0.7469  1.5084
  254MOL    C3441020   0.385   4.941   0.015  0.0869  0.0709  0.1375
  254MOL    C3541021   0.350   4.832   7.194  0.2679 -0.3340 -0.5978
  254MOL    N3641022   0.221   4.782   7.218 -0.2522 -0.5117  0.3013
  254MOL    H3741023   0.294   5.000   0.017  0.0454 -0.0391  1.4635
  254MOL    H3841024   0.470   5.008   7.271 -0.5688  0.4073 -1.6114
  254MOL    H3941025   0.429   4.761   7.220  0.4017  0.2205  0.5582
  254MOL    H4041026   0.150   4.851   7.197 -1.6905 -1.9501  0.4038
  254MOL    H4141027   0.203   4.710   7.149 -1.0185  0.2621 -0.3223
  254MOL    C4241028   0.363   4.882   7.052  0.2917 -0.0829 -0.3834
  254MOL    C4341029   0.497   4.879   6.978  0.2327  0.4716  0.5657
  254MOL    N4441030   0.576   5.001   7.006  0.6101  0.0107  0.7298
  254MOL    H4541031   0.314   4.807   6.991  1.2283 -0.7972 -0.2710
  254MOL    H4641032   0.306   4.972   7.034  0.2767 -0.7081 -3.6632
  254MOL    H4741033   0.470   4.874   6.873  2.4895  1.2868 -0.0903
  254MOL    H4841034   0.517   5.083   7.001  0.7905  0.0277 -1.3656
  254MOL    H4941035   0.638   5.022   6.929  0.5354  0.2276  0.7276
  254MOL    C5041036   0.580   4.757   7.005 -0.7999  0.4165 -0.6022
  254MOL    C5141037   0.512   4.621   6.964 -0.0331 -0.1776 -0.5948
  254MOL    N5241038   0.496   4.617   6.819  0.4739 -0.0536 -0.1828
  254MOL    H5341039   0.678   4.764   6.957  0.3926 -2.4797  1.2842
  254MOL    H5441040   0.611   4.743   7.109 -0.1978 -2.0150 -1.0758
  254MOL    H5541041   0.411   4.615   7.004 -0.9601 -0.5925 -2.9088
  254MOL    H5641042   0.583   4.622   6.768 -0.5899 -1.5298 -2.1908
  254MOL    H5741043   0.449   4.700   6.785 -0.6788 -0.9546 -0.8159
  254MOL    C5841044   0.606   4.501   7.003  0.2736  0.4096 -0.3030
  254MOL    C5941045   0.589   4.456   7.152  0.2591 -0.1779 -0.1121
  254MOL    N6041046   0.449   4.412   7.162 -0.0807 -0.3916 -0.1597
  254MOL    H6141047   0.585   4.412   6.943  0.1486  1.9838 -2.6178
  254MOL    H6241048   0.710   4.518   6.976 -0.1386 -1.4245 -3.2483
  254MOL    H6341049   0.600   4.541   7.219  1.7541 -0.3765 -0.0792
  254MOL    H6441050   0.435   4.371   7.253 -2.1092  0.8569  0.1213
  254MOL    H6541051   0.383   4.489   7.163 -1.4908 -1.5715  1.8971
  254MOL    C6641052   0.681   4.332   7.182  0.8871 -0.0026 -0.3590
  254MOL    C6741053   0.827   4.360   7.240 -0.3390  0.0750 -0.4845
  254MOL    N6841054   0.912   4.437   7.150 -0.7823 -0.1746 -0.5246
  254MOL    H6941055   0.631   4.261   7.247  0.1032 -0.5715 -1.5663
  254MOL    H7041056   0.696   4.283   7.086  0.6101 -0.6069 -0.0954
  254MOL    H7141057   0.873   4.262   7.258  0.7482  0.3435 -1.7654
  254MOL    H7241058   0.871   4.430   7.058 -0.8213  1.4777 -0.6554
  254MOL    H7341059   0.895   4.532   7.181 -0.0634 -0.4344  0.7239
  254MOL    C7441060   0.824   4.428   0.098 -0.4633  0.8504  0.3009
  254MOL    C7541061   0.942   4.402   0.202  0.1257  0.3858 -0.0633
  254MOL    N7641062   0.946   4.522   0.284  0.4533  0.1209 -0.2731
  254MOL    H7741063   0.805   4.534   0.086 -0.3308  1.0521  1.7031
  254MOL    H7841064   0.730   4.402   0.147 -1.1885  2.4742 -0.2026
  254MOL    H7941065   1.029   4.390   0.138  1.1968 -1.4622  1.7253
  254MOL    H8041066   0.951   4.605   0.227 -2.5905  0.7280  0.2834
  254MOL    H8141067   1.038   4.533   0.325  0.2353  0.7268  0.0602
  254MOL    C8241068   0.923   4.282   0.287 -0.3226  0.6086 -0.6209
  254MOL    C8341069   0.942   4.142   0.225  0.6606 -0.6043  0.4229
  254MOL    N8441070   1.063   4.087   0.276  0.1364  0.4820  0.3874
  254MOL    H8541071   0.996   4.276   0.367 -2.0237 -1.2670  0.8278
  254MOL    H8641072   0.833   4.289   0.348  0.6033  1.6257  0.6750
  254MOL    H8741073   0.970   4.150   0.120 -0.0843 -0.2955  0.2503
  254MOL    H8841074   1.126   4.166   0.281  0.1307  0.4266  1.5368
  254MOL    H8941075   1.109   4.017   0.220  0.6747  0.2543  1.1037
  254MOL    C9041076   0.815   4.061   0.255 -0.0588 -0.3168 -0.4392
  254MOL    C9141077   0.818   3.933   0.180  0.2144 -0.0680  0.3457
  254MOL    N9241078   0.710   3.846   0.231  0.1621 -0.4845 -0.2432
  254MOL    H9341079   0.806   4.036   0.361 -0.1899  1.2353 -0.0739
  254MOL    H9441080   0.735   4.125   0.217  1.2117  2.3991  1.2897
  254MOL    H9541081   0.912   3.877   0.180  1.8038  2.4910  0.8352
  254MOL    H9641082   0.636   3.911   0.251  0.5427 -0.2483  0.4151
  254MOL    H9741083   0.742   3.820   0.323 -0.5323 -1.2677 -0.2128
  254MOL    C9841084   0.781   3.957   0.032 -0.2298 -0.3586  0.2222
  254MOL    C9941085   0.847   3.860   7.201  0.0560  0.7452 -0.3890
  254MOL   N10041086   0.770   3.742   7.193 -0.9632  0.2537 -0.2716
  254MOL   H10141087   0.672   3.946   0.029 -0.2685 -0.1679  0.7373
  254MOL   H10241088   0.810   4.060   0.010  1.1039 -0.6622  0.5183
  254MOL   H10341089   0.943   3.845   7.252 -0.5867 -1.6272  0.1979
  254MOL   H10441090   0.675   3.731   7.159 -0.2833 -1.4299 -1.6327
  254MOL   H10541091   0.749   3.731   0.016 -1.1597  1.6873 -0.1292
  254MOL   C10641092   0.865   3.935   7.062  0.1126  0.7068 -0.1940
  254MOL   C10741093   0.982   3.889   6.975  0.1262 -0.0290  0.0847
  254MOL   N10841094   0.987   3.959   6.849  0.3000 -0.3995 -0.4310
  254MOL   H10941095   0.778   3.920   6.998 -0.4093  0.8484  0.4842
  254MOL   H11041096   0.875   4.042   7.077 -1.4159  0.7420  0.6382
  254MOL   H11141097   0.963   3.782   6.963 -2.0909  0.2243  1.0938
  254MOL   H11241098   0.892   3.992   6.838  0.3368 -0.9716 -2.9596
  254MOL   H11341099   1.047   4.040   6.857 -0.8409  0.6604 -2.0557
  254MOL   C11441100   1.119   3.916   7.036 -0.2632 -0.2631  0.9027
  254MOL   C11541101   1.247   3.899   6.959 -0.0645  0.1769  0.4831
  254MOL   N11641102   1.351   3.947   7.044  0.0485 -0.5235 -0.0164
  254MOL   H11741103   1.129   4.021   7.060  1.1725 -0.2015  0.1236
  254MOL   H11841104   1.134   3.848   7.120  1.3832 -1.4132 -0.2846
  254MOL   H11941105   1.242   3.958   6.868 -1.3582 -2.4434 -1.1854
  254MOL   H12041106   1.441   3.937   7.000  1.4685 -2.2001  3.1449
  254MOL   H12141107   1.341   4.048   7.050 -3.0004 -0.7903  0.0290
  254MOL   C12241108   1.276   3.754   6.915 -0.1147  0.0600 -0.0033
  254MOL   C12341109   1.212   3.718   6.778  0.2826  0.2421 -0.1303
  254MOL   N12441110   1.297   3.757   6.671  0.4524 -0.5151 -0.8811
  254MOL   H12541111   1.382   3.736   6.894 -0.5957  0.7981 -3.3415
  254MOL   H12641112   1.246   3.675   6.984 -0.6585  1.2060  1.0674
  254MOL   H12741113   1.119   3.772   6.760 -1.3156 -2.1301  0.7438
  254MOL   H12841114   1.369   3.689   6.648  0.8899 -0.6505  0.8337
  254MOL   H12941115   1.247   3.754   6.583 -1.4266 -0.0058  0.1463
  254MOL   C13041116   1.200   3.563   6.748  0.3293  0.0163 -0.0517
  254MOL   C13141117   1.112   3.536   6.619 -0.1891 -0.1035  0.3034
  254MOL   N13241118   1.175   3.429   6.541  0.8786 -0.3989  0.2589
  254MOL   H13341119   1.303   3.528   6.743  0.2598 -0.5426  1.8612
  254MOL   H13441120   1.157   3.511   6.834 -1.1885 -0.4481 -1.0774
  254MOL   H13541121   1.122   3.624   6.555 -1.5142 -0.3810 -0.3072
  254MOL   H13641122   1.167   3.341   6.589  0.6375  1.3644  3.6360
  254MOL   H13741123   1.121   3.413   6.458 -0.1659 -0.7566  0.9967
  254MOL   C13841124   0.964   3.512   6.653  0.1059  0.1969 -0.0890
  254MOL   C13941125   0.881   3.624   6.721 -0.3003 -0.7043  0.0725
  254MOL   N14041126   0.891   3.743   6.642 -0.3411 -0.3011 -0.1008
  254MOL   H14141127   0.925   3.486   6.555  3.5953  0.6450 -1.6448
  254MOL   H14241128   0.946   3.417   6.703  0.4550  0.3527  0.3410
  254MOL   H14341129   0.918   3.644   6.821  0.0319  0.2105 -0.2281
  254MOL   H14441130   0.900   3.825   6.701  1.2842 -1.0762  0.7648
  254MOL   H14541131   0.967   3.740   6.575 -1.6597  0.2426 -1.6613
  254MOL   C14641132   0.731   3.597   6.726  0.9932 -0.4471  0.2314
  254MOL   C14741133   0.646   3.698   6.812 -0.8745 -0.7065  0.2688
  254MOL   N14841134   0.615   3.817   6.733  0.4152 -0.4782 -0.0542
  254MOL   H14941135   0.682   3.599   6.629 -1.7922 -1.3520  1.5715
  254MOL   H15041136   0.713   3.496   6.762 -2.3193 -0.6712 -1.7828
  254MOL   H15141137   0.707   3.723   6.899 -2.1434 -1.2399  1.3270
  254MOL   H15241138   0.567   3.793   6.648 -0.7684  2.9041 -0.4070
  254MOL   H15341139   0.700   3.852   6.693  1.1977 -2.4196 -0.1611
  254MOL   C15441140   0.503   3.651   6.864  0.7569 -0.0614  0.2185
  254MOL   C15541141   0.512   3.537   6.966  0.1417  0.4762 -0.1514
  254MOL   N15641142   0.373   3.505   6.999 -0.6115 -0.0407 -0.0807
  254MOL   H15741143   0.439   3.734   6.893 -2.3107 -1.6423 -1.8643
  254MOL   H15841144   0.446   3.613   6.780 -3.3570  2.2470  1.8101
  254MOL   H15941145   0.576   3.560   7.052 -0.6559 -3.0359  1.4786
  254MOL   H16041146   0.313   3.474   6.924 -0.6722  0.8201 -0.3949
  254MOL   H16141147   0.370   3.423   7.058  2.8266  0.0758  0.3772
  254MOL   H16241148   0.547   3.442   6.928  1.1980 -0.2275  2.4140
  255MOL     C141149   4.322   6.734   5.383 -0.0981 -0.2725  0.1921
  255MOL     C241150   4.362   6.737   5.233 -0.3023  0.9936 -0.2536
  255MOL     N341151   4.493   6.664   5.229  0.6601 -0.6651  0.2914
  255MOL     H441152   4.314   6.634   5.425 -0.7360 -0.7666 -1.0853
  255MOL     H541153   4.225   6.784   5.388 -0.0987 -0.1519 -0.9662
  255MOL     H641154   4.383   6.839   5.200  0.7719  0.3433 -1.6795
  255MOL     H741155   4.567   6.729   5.254  1.7153 -1.1017 -1.5915
  255MOL     H841156   4.515   6.639   5.134 -1.1035  0.4193 -0.4263
  255MOL     H941157   4.388   6.786   5.452  1.0816 -1.4896 -0.0117
  255MOL    C1041158   4.258   6.672   5.137 -0.5741 -0.6180  0.4858
  255MOL    C1141159   4.269   6.714   4.989  0.2590  0.3311 -0.0274
  255MOL    N1241160   4.385   6.655   4.918  0.1071 -0.2794  0.7000
  255MOL    H1341161   4.256   6.565   5.155  1.7418 -0.7221  0.3103
  255MOL    H1441162   4.161   6.711   5.169 -0.0997  0.5496  0.5478
  255MOL    H1541163   4.272   6.822   5.000 -0.5005  0.3823 -0.3430
  255MOL    H1641164   4.418   6.701   4.834 -1.7546  1.6265  0.9608
  255MOL    H1741165   4.374   6.558   4.894  0.1802 -0.5598  1.7737
  255MOL    C1841166   4.151   6.683   4.897 -0.0106  0.0750  0.0478
  255MOL    C1941167   4.025   6.767   4.936  0.4428  0.4095  0.2014
  255MOL    N2041168   4.009   6.858   4.831  0.5652 -0.1614 -0.4657
  255MOL    H2141169   4.188   6.710   4.799  0.1577 -0.6592 -0.0917
  255MOL    H2241170   4.125   6.578   4.890  2.0601 -0.4884  0.5157
  255MOL    H2341171   4.037   6.815   5.033  1.9381  0.1575  0.1558
  255MOL    H2441172   4.103   6.892   4.813  0.9684 -1.4911 -0.9356
  255MOL    H2541173   3.950   6.930   4.869  0.3920  1.9513 -4.4691
  255MOL    C2641174   3.894   6.691   4.955  0.5011 -0.7834  0.6467
  255MOL    C2741175   3.904   6.574   5.061  0.0365 -0.2041 -0.0933
  255MOL    N2841176   3.899   6.610   5.196 -0.1762 -0.1831  0.3632
  255MOL    H2941177   3.823   6.762   4.998  0.5433 -0.6449  0.4860
  255MOL    H3041178   3.845   6.665   4.861  0.4707 -1.8424  0.9508
  255MOL    H3141179   3.998   6.520   5.051  1.3610  2.2315 -1.1414
  255MOL    H3241180   3.972   6.675   5.222  1.4088 -1.9717  0.5115
  255MOL    H3341181   3.935   6.527   5.241 -1.5573 -0.0534  1.7687
  255MOL    C3441182   3.798   6.460   5.036 -0.4650 -0.5074 -0.5425
  255MOL    C3541183   3.809   6.383   4.902 -0.5196 -1.0293 -0.1547
  255MOL    N3641184   3.940   6.329   4.877 -0.1012  0.0265  0.3374
  255MOL    H3741185   3.803   6.397   5.124  1.3801 -0.2918 -0.4616
  255MOL    H3841186   3.703   6.514   5.041 -0.4409 -0.4256 -0.9482
  255MOL    H3941187   3.785   6.462   4.832  1.2591  0.2539  0.6237
  255MOL    H4041188   4.021   6.389   4.886  0.0705 -0.0656 -0.5266
  255MOL    H4141189   3.939   6.287   4.785 -1.5871 -0.2003  0.4440
  255MOL    C4241190   3.721   6.259   4.906  0.2364  0.0918  0.1224
  255MOL    C4341191   3.574   6.285   4.928 -0.5638  0.2236 -0.4371
  255MOL    N4441192   3.518   6.352   4.812  0.4992 -0.3194  0.8253
  255MOL    H4541193   3.728   6.212   4.808 -1.4985 -0.3930  0.2112
  255MOL    H4641194   3.751   6.190   4.985  1.2603  0.6490  0.2337
  255MOL    H4741195   3.557   6.358   5.007 -1.6178 -0.2581 -0.2149
  255MOL    H4841196   3.549   6.311   4.725 -1.2952  0.0314 -0.0043
  255MOL    H4941197   3.420   6.329   4.814  0.5240 -0.3294  2.8729
  255MOL    C5041198   3.498   6.159   4.956 -0.6135 -0.0937  0.2285
  255MOL    C5141199   3.502   6.120   5.107  0.1698  0.8497 -0.2884
  255MOL    N5241200   3.401   6.201   5.177 -0.4431 -0.2024  0.2693
  255MOL    H5341201   3.398   6.155   4.913 -0.4338  2.3201 -0.4726
  255MOL    H5441202   3.546   6.082   4.896 -0.9343 -1.3943  1.5859
  255MOL    H5541203   3.596   6.158   5.148  0.2744  1.2104 -0.8607
  255MOL    H5641204   3.318   6.161   5.134 -1.4499 -1.3008  3.0713
  255MOL    H5741205   3.409   6.174   5.274  2.1386  0.0990  0.1657
  255MOL    C5841206   3.492   5.970   5.132 -0.6094  0.4114  0.2363
  255MOL    C5941207   3.606   5.875   5.081  0.4002  0.2997  0.0138
  255MOL    N6041208   3.728   5.895   5.156 -0.5063 -0.3080  0.5391
  255MOL    H6141209   3.483   5.948   5.238  0.9304 -3.3137 -0.3256
  255MOL    H6241210   3.404   5.925   5.085 -1.7527 -0.2931  2.9922
  255MOL    H6341211   3.620   5.905   4.978  0.7215  0.6904  0.1696
  255MOL    H6441212   3.808   5.878   5.097 -1.2601 -1.7760 -0.0821
  255MOL    H6541213   3.736   5.995   5.164 -1.5979 -0.2167  0.5361
  255MOL    C6641214   3.556   5.724   5.093  0.0534 -0.2876  0.4772
  255MOL    C6741215   3.443   5.681   4.995 -0.8089 -0.0385 -0.0493
  255MOL    N6841216   3.485   5.724   4.860 -0.6415 -0.0194  0.1338
  255MOL    H6941217   3.637   5.657   5.065  0.5520  1.0564 -1.3791
  255MOL    H7041218   3.525   5.703   5.195  1.4822  0.4526  1.0794
  255MOL    H7141219   3.354   5.735   5.029 -1.5319 -0.0199 -1.8980
  255MOL    H7241220   3.581   5.696   4.870  0.2264  2.1459 -1.9489
  255MOL    H7341221   3.455   5.647   4.802  0.2005 -0.5279  0.3766
  255MOL    C7441222   3.417   5.530   4.998 -0.2311  0.3162 -0.2043
  255MOL    C7541223   3.374   5.477   5.132 -0.1363 -0.4631 -0.1934
  255MOL    N7641224   3.243   5.424   5.121 -0.0199 -0.5711 -0.3860
  255MOL    H7741225   3.334   5.504   4.931 -0.6019  0.9662  0.0001
  255MOL    H7841226   3.502   5.477   4.955  1.0300  0.2270  2.3132
  255MOL    H7941227   3.368   5.564   5.198  0.8858 -1.2249  0.9347
  255MOL    H8041228   3.227   5.381   5.211  0.4436  2.3294  1.1514
  255MOL    H8141229   3.186   5.507   5.108  1.8794  0.9442  0.7566
  255MOL    C8241230   3.460   5.364   5.196 -0.6714  0.3947 -0.0174
  255MOL    C8341231   3.611   5.387   5.229 -0.3504  0.3065 -0.0194
  255MOL    N8441232   3.629   5.459   5.356  0.9189 -0.6193  0.0821
  255MOL    H8541233   3.408   5.330   5.286  0.1460  1.7010  0.9727
  255MOL    H8641234   3.463   5.277   5.131  2.7017  0.4585 -0.0295
  255MOL    H8741235   3.662   5.450   5.156  4.4799 -0.9507  2.1190
  255MOL    H8841236   3.591   5.551   5.343  0.0683 -0.7310  1.5878
  255MOL    H8941237   3.725   5.473   5.384  1.7687 -1.0318 -2.4914
  255MOL    C9041238   3.694   5.257   5.233 -0.1925  0.3056 -0.1008
  255MOL    C9141239   3.719   5.176   5.100  0.3321  0.4773 -0.0691
  255MOL    N9241240   3.816   5.254   5.013 -0.1405 -0.0473 -0.2545
  255MOL    H9341241   3.787   5.300   5.270 -0.2819 -0.6987  1.3587
  255MOL    H9441242   3.653   5.191   5.309  2.7103  1.3210  2.4877
  255MOL    H9541243   3.631   5.164   5.037  0.1220 -1.9387  0.6039
  255MOL    H9641244   3.872   5.188   4.961 -2.2024 -2.0138 -0.0381
  255MOL    H9741245   3.881   5.290   5.082 -1.7894  1.3417  0.6114
  255MOL    C9841246   3.773   5.028   5.117 -0.9317 -0.3088  0.4342
  255MOL    C9941247   3.683   4.933   5.033  1.3379 -0.0557  0.0618
  255MOL   N10041248   3.751   4.818   4.977  0.1154  0.6178  0.0034
  255MOL   H10141249   3.876   5.023   5.084 -0.5476 -5.2363  1.9653
  255MOL   H10241250   3.757   5.005   5.222  1.3572  1.7755  1.2619
  255MOL   H10341251   3.660   4.993   4.945 -0.9291 -0.2318  0.5021
  255MOL   H10441252   3.691   4.794   4.899  0.7333 -0.1061 -0.2535
  255MOL   H10541253   3.728   4.743   5.040  1.2317  0.4138  0.1773
  255MOL   C10641254   3.558   4.897   5.109  0.1047 -0.5532  0.6218
  255MOL   C10741255   3.432   4.874   5.025  0.2031 -0.0776 -0.0662
  255MOL   N10841256   3.349   4.793   5.112  0.4040 -0.7122 -0.3767
  255MOL   H10941257   3.594   4.824   5.181  2.5383  0.2046  0.1942
  255MOL   H11041258   3.538   4.985   5.171  0.7245 -0.6899  1.0123
  255MOL   H11141259   3.455   4.808   4.941  1.5308  1.2013 -0.7215
  255MOL   H11241260   3.413   4.728   5.155  0.2871 -0.6253 -0.0725
  255MOL   H11341261   3.271   4.746   5.068  0.2334 -0.1362 -0.7068
  255MOL   C11441262   3.355   4.997   4.984  0.2168 -0.0004 -0.5334
  255MOL   C11541263   3.337   4.997   4.832 -0.1707  0.0484 -0.5278
  255MOL   N11641264   3.212   5.060   4.801  0.0496  0.1287 -0.1363
  255MOL   H11741265   3.262   5.003   5.040  1.9089  0.9740  2.2289
  255MOL   H11841266   3.404   5.090   5.012 -1.5018  1.1998 -1.4252
  255MOL   H11941267   3.319   4.900   4.786  1.3217 -0.1429 -0.7393
  255MOL   H12041268   3.194   5.148   4.847 -1.4740  0.4048 -1.2391
  255MOL   H12141269   3.139   4.994   4.824  0.2703  0.0235  0.2850
  255MOL   C12241270   3.452   5.048   4.739 -0.1888  0.4094 -0.7993
  255MOL   C12341271   3.512   5.187   4.765  0.6362 -0.3221  0.3910
  255MOL   N12441272   3.655   5.167   4.761 -0.0723  0.4692 -0.6707
  255MOL   H12541273   3.526   4.968   4.741  0.2092  0.7747 -0.8567
  255MOL   H12641274   3.419   5.066   4.636  1.1099  0.7270 -1.1649
  255MOL   H12741275   3.488   5.221   4.865 -1.1952 -1.7972  0.4798
  255MOL   H12841276   3.694   5.229   4.692 -1.2657  3.1309  0.9451
  255MOL   H12941277   3.690   5.194   4.851 -1.4696 -0.2652  0.1166
  255MOL   C13041278   3.499   5.292   4.650 -0.5896  0.9427  0.2574
  255MOL   C13141279   3.356   5.332   4.619 -0.2069  0.6216 -0.1096
  255MOL   N13241280   3.309   5.432   4.709 -0.8675  0.4566  0.3550
  255MOL   H13341281   3.548   5.386   4.673 -0.3445  0.8597  0.0785
  255MOL   H13441282   3.549   5.252   4.562 -1.6930  1.3385 -0.5652
  255MOL   H13541283   3.295   5.244   4.638  2.3849 -1.7686 -2.4993
  255MOL   H13641284   3.208   5.437   4.706 -0.9417 -0.1460  1.5115
  255MOL   H13741285   3.336   5.412   4.804  0.7926  0.0582 -0.1878
  255MOL   C13841286   3.330   5.389   4.480  0.4097 -0.0023  0.1630
  255MOL   C13941287   3.330   5.291   4.357 -0.2764 -0.0654  0.3679
  255MOL   N14041288   3.472   5.273   4.320 -0.0713  0.0208 -0.0378
  255MOL   H14141289   3.235   5.442   4.490  1.8190  3.0638 -1.6154
  255MOL   H14241290   3.394   5.476   4.463  0.9188 -0.4083  0.0075
  255MOL   H14341291   3.283   5.349   4.278 -0.2168  2.1555  1.9195
  255MOL   H14441292   3.524   5.216   4.386  0.8215  1.0029  0.1135
  255MOL   H14541293   3.479   5.222   4.233 -1.0767 -0.2786  0.0523
  255MOL   C14641294   3.260   5.159   4.386  0.0778  0.0874 -0.1379
  255MOL   C14741295   3.109   5.150   4.432 -0.0278 -0.0071 -0.3253
  255MOL   N14841296   3.026   5.222   4.344  0.8095  0.0486 -0.0667
  255MOL   H14941297   3.260   5.106   4.290 -0.7971 -0.9687  0.4371
  255MOL   H15041298   3.329   5.113   4.456 -0.1746  0.9636  0.6858
  255MOL   H15141299   3.102   5.205   4.526  0.1333  1.4125 -1.1451
  255MOL   H15241300   2.938   5.253   4.382 -0.8369 -2.3670 -1.7369
  255MOL   H15341301   2.999   5.174   4.258  1.9504 -2.0229  0.6918
  255MOL   C15441302   3.065   5.009   4.469 -0.8125  0.0063 -0.5633
  255MOL   C15541303   2.926   5.005   4.523 -0.6986  0.1289 -0.8952
  255MOL   N15641304   2.876   4.873   4.534 -0.6213 -0.3315  0.3755
  255MOL   H15741305   3.076   4.953   4.376  0.4011  0.2401 -0.5636
  255MOL   H15841306   3.135   4.966   4.540 -0.6173  1.4459  0.1298
  255MOL   H15941307   2.870   5.060   4.447 -0.5582  1.6287  0.0712
  255MOL   H16041308   2.861   4.826   4.445 -1.3142 -0.7553  0.7106
  255MOL   H16141309   2.781   4.869   4.569 -0.4266 -2.4421  0.7104
  255MOL   H16241310   2.914   5.068   4.611 -2.7885  0.0481 -1.0950
  256MOL     C141311   6.743   1.778   0.215 -0.0912 -0.1614 -0.1204
  256MOL     C241312   6.612   1.855   0.210  0.3815 -0.0665 -0.2896
  256MOL     N341313   6.637   1.998   0.230 -0.0629 -0.0465 -0.4407
  256MOL     H441314   6.803   1.811   0.130 -0.9337 -0.5931 -0.8995
  256MOL     H541315   6.744   1.669   0.204  2.1804 -0.1150 -0.5715
  256MOL     H641316   6.551   1.822   0.294 -1.2944  1.3409 -0.9076
  256MOL     H741317   6.701   2.015   0.306 -2.0560  1.4719  0.9465
  256MOL     H841318   6.551   2.048   0.249  0.4945  1.9475 -2.9329
  256MOL     H941319   6.798   1.789   0.308 -1.0316  0.0415  0.4133
  256MOL    C1041320   6.535   1.821   0.081 -0.1506  0.0361 -0.0710
  256MOL    C1141321   6.447   1.701   0.101  0.6595  0.3258  0.5306
  256MOL    N1241322   6.329   1.739   0.168 -0.3496  0.4098 -0.0751
  256MOL    H1341323   6.475   1.908   0.055  0.5387  1.1162  1.8761
  256MOL    H1441324   6.611   1.791   0.009 -0.7604 -4.1752  0.8794
  256MOL    H1541325   6.504   1.638   0.170 -0.4168 -1.0809  0.1614
  256MOL    H1641326   6.353   1.777   0.258 -0.6658  0.8379 -0.1724
  256MOL    H1741327   6.287   1.815   0.117  0.3318  0.4009 -0.6595
  256MOL    C1841328   6.419   1.610   7.255 -0.7772  0.7461  0.5559
  256MOL    C1941329   6.526   1.496   7.241  0.4285 -0.4269 -0.1568
  256MOL    N2041330   6.496   1.386   0.057 -0.0172  0.2566 -0.2889
  256MOL    H2141331   6.320   1.568   7.243 -1.1779  1.9580 -0.5529
  256MOL    H2241332   6.421   1.674   7.166  0.4478 -0.4919 -0.3352
  256MOL    H2341333   6.625   1.534   7.262  0.6008 -0.5097 -0.7858
  256MOL    H2441334   6.579   1.329   0.067 -0.4144  0.2617  4.2611
  256MOL    H2541335   6.487   1.430   0.147  1.3552  1.7262 -0.8568
  256MOL    C2641336   6.544   1.451   7.096  0.5520  0.3375  0.3255
  256MOL    C2741337   6.679   1.514   7.035  0.5701  0.3661  0.0621
  256MOL    N2841338   6.701   1.432   6.915 -0.2906 -0.0704  0.4284
  256MOL    H2941339   6.580   1.349   7.108 -2.2505 -1.0130 -2.1380
  256MOL    H3041340   6.449   1.452   7.041  1.2646 -2.5095 -1.0373
  256MOL    H3141341   6.762   1.487   7.100  1.3971  0.0223 -1.1077
  256MOL    H3241342   6.764   1.483   6.855  1.3516 -1.5475  0.8685
  256MOL    H3341343   6.755   1.352   6.943 -0.2180  0.4507  1.8508
  256MOL    C3441344   6.660   1.663   6.991  0.1650 -0.3258  0.2895
  256MOL    C3541345   6.793   1.730   6.947 -0.4092 -0.5568 -0.0633
  256MOL    N3641346   6.754   1.837   6.858  0.2887  0.6993 -0.3542
  256MOL    H3741347   6.595   1.669   6.904  2.3771  2.8192 -1.2318
  256MOL    H3841348   6.607   1.726   7.063  0.4631 -1.3117  1.3858
  256MOL    H3941349   6.858   1.659   6.896 -0.6467 -2.0873  1.6933
  256MOL    H4041350   6.822   1.830   6.783 -0.3033 -0.4747 -0.7839
  256MOL    H4141351   6.778   1.921   6.910 -2.5708  0.5987  1.2299
  256MOL    C4241352   6.874   1.781   7.068  0.6105 -0.5552  0.4403
  256MOL    C4341353   7.020   1.817   7.025  0.0996 -0.1039 -0.4874
  256MOL    N4441354   7.028   1.931   6.932 -0.7196  0.4175 -1.1532
  256MOL    H4541355   6.837   1.869   7.120 -0.6682  1.0811 -3.0399
  256MOL    H4641356   6.877   1.700   7.141  0.0193  1.0753  2.3088
  256MOL    H4741357   7.051   1.731   6.965  1.2401  0.7958 -1.2006
  256MOL    H4841358   7.124   1.961   6.923 -0.8391  1.7635  1.6074
  256MOL    H4941359   7.015   1.898   6.838 -2.4766  3.3607 -2.0242
  256MOL    C5041360   7.123   1.842   7.133  0.0353 -0.7969  0.2653
  256MOL    C5141361   7.147   1.736   7.239  0.3742  0.1735 -0.0472
  256MOL    N5241362   7.150   1.607   7.183 -0.3486 -0.3824  0.3217
  256MOL    H5341363   7.219   1.855   7.083 -1.1160 -0.1671 -1.8413
  256MOL    H5441364   7.084   1.931   7.182 -0.3252 -0.4892 -0.5560
  256MOL    H5541365   7.068   1.732   0.039  0.4852  1.1724  0.1218
  256MOL    H5641366   7.067   1.597   7.126 -0.8933  0.7062  0.8972
  256MOL    H5741367   7.135   1.542   7.258  1.7778 -1.4327 -0.1421
  256MOL    C5841368   0.006   1.759   0.043  0.3809 -0.1301  0.0410
  256MOL    C5941369   7.276   1.839   0.178 -0.3360  0.4884  0.2003
  256MOL    N6041370   0.125   1.836   0.247  0.1055  0.3792 -0.2795
  256MOL    H6141371   0.036   1.659   0.073 -0.3793  0.2300  2.0920
  256MOL    H6241372   0.093   1.786   7.258 -0.3346 -0.0780 -0.9533
  256MOL    H6341373   7.202   1.798   0.247 -0.5451 -3.5464 -2.2840
  256MOL    H6441374   0.176   1.920   0.224  0.0700  0.3126 -0.6068
  256MOL    H6541375   0.182   1.759   0.214 -1.0224 -1.2544  1.4622
  256MOL    C6641376   7.244   1.989   0.169  0.2339  0.2333  0.7633
  256MOL    C6741377   7.192   2.061   0.290  0.4643  0.2393  0.1603
  256MOL    N6841378   7.227   2.209   0.278  0.1769  0.3144  0.4650
  256MOL    H6941379   0.054   2.033   0.117 -1.5724 -0.2225 -2.7867
  256MOL    H7041380   7.164   1.998   0.095 -0.4513  2.3979  1.7399
  256MOL    H7141381   7.249   2.030   0.377 -1.7597 -1.6572  0.9900
  256MOL    H7241382   7.248   2.239   0.184 -0.4752  1.2863  0.6203
  256MOL    H7341383   0.043   2.216   0.318  1.0710 -0.1230 -1.4309
  256MOL    C7441384   7.042   2.024   0.313  0.4953  0.1612 -0.3521
  256MOL    C7541385   6.988   2.053   0.453 -0.0295 -0.7143 -0.4789
  256MOL    N7641386   6.850   2.009   0.443  0.1876 -0.3305 -0.5975
  256MOL    H7741387   6.979   2.065   0.234  0.9458  0.5414 -0.5093
  256MOL    H7841388   7.031   1.916   0.304 -3.3996  0.3873  0.4614
  256MOL    H7941389   6.995   2.160   0.468 -0.6452 -0.1553 -3.9082
  256MOL    H8041390   6.801   2.034   0.528 -0.1746 -0.9512 -0.6225
  256MOL    H8141391   6.850   1.908   0.441 -1.2193 -0.3349 -1.2286
  256MOL    C8241392   7.064   1.986   0.570  0.2509 -0.2264  0.5612
  256MOL    C8341393   7.093   1.836   0.564 -0.2060  1.1989 -0.2325
  256MOL    N8441394   7.189   1.823   0.675 -0.2211  0.1572 -0.0804
  256MOL    H8541395   7.163   2.028   0.583 -0.1008  0.9747 -0.5651
  256MOL    H8641396   7.024   2.015   0.667  3.3407  2.1717  1.1667
  256MOL    H8741397   7.163   1.809   0.484 -0.1114 -0.0705  0.2701
  256MOL    H8841398   7.215   1.725   0.678 -2.1020 -0.3505  0.1703
  256MOL    H8941399   7.272   1.880   0.660  1.5229 -1.8948  1.4198
  256MOL    C9041400   6.986   1.728   0.583  0.2615  0.4369 -0.2482
  256MOL    C9141401   7.036   1.585   0.515 -0.6180 -0.1528 -0.7595
  256MOL    N9241402   6.944   1.486   0.570  0.7193  0.0735  0.1243
  256MOL    H9341403   6.963   1.712   0.688  0.7199 -1.9167 -0.4651
  256MOL    H9441404   6.886   1.758   0.551 -0.4201 -1.5828 -0.1108
  256MOL    H9541405   7.134   1.547   0.544 -1.0367 -0.0756  0.8269
  256MOL    H9641406   6.971   1.390   0.552  1.9951  0.8126 -2.1424
  256MOL    H9741407   6.951   1.494   0.671 -0.7298 -2.4918  0.4684
  256MOL    C9841408   7.032   1.579   0.356 -0.3282 -0.6156  0.6946
  256MOL    C9941409   7.116   1.453   0.297 -0.7591  0.0669 -0.2378
  256MOL   N10041410   7.088   1.445   0.153 -0.0191  0.1549  0.2460
  256MOL   H10141411   6.928   1.578   0.322 -0.3572  2.3152  0.6557
  256MOL   H10241412   7.066   1.670   0.309 -1.6079 -0.8680 -0.7533
  256MOL   H10341413   7.080   1.357   0.333 -3.1522  1.0457  0.0518
  256MOL   H10441414   6.988   1.432   0.141  0.2311 -4.3158  2.0188
  256MOL   H10541415   7.125   1.357   0.118 -2.9545 -1.0858  0.0905
  256MOL   C10641416   7.267   1.474   0.305  0.0449 -0.0522  0.1678
  256MOL   C10741417   0.060   1.389   0.421  0.5028  0.0810  0.4274
  256MOL   N10841418   0.118   1.268   0.360 -0.4757 -0.4407 -0.8802
  256MOL   H10941419   0.033   1.453   0.207 -1.7526  0.6150 -0.7505
  256MOL   H11041420   0.004   1.580   0.328  0.4205  0.3700 -1.9242
  256MOL   H11141421   7.268   1.356   0.500  0.2586 -0.1003  0.1394
  256MOL   H11241422   0.041   1.219   0.317 -1.9790 -0.0896  1.3067
  256MOL   H11341423   0.167   1.308   0.282 -0.9957 -0.3366 -1.1504
  256MOL   C11441424   0.178   1.468   0.485 -0.5732 -0.7954 -0.3552
  256MOL   C11541425   0.137   1.576   0.592  0.5675  0.0434  0.2193
  256MOL   N11641426   0.072   1.517   0.706  0.1054 -0.8456  0.1394
  256MOL   H11741427   0.256   1.403   0.524  1.0500  0.3675 -1.5647
  256MOL   H11841428   0.221   1.524   0.402 -0.6786 -0.2948 -0.0743
  256MOL   H11941429   0.067   1.638   0.536 -0.8899  0.3484  2.3317
  256MOL   H12041430   0.137   1.457   0.755  0.1603 -0.5802  0.3880
  256MOL   H12141431   0.063   1.589   0.775  1.0589 -0.0119 -0.6063
  256MOL   C12241432   0.262   1.654   0.643 -0.3049 -0.1796  0.1042
  256MOL   C12341433   0.306   1.774   0.548 -1.4741  0.7948 -0.9325
  256MOL   N12441434   0.205   1.878   0.529  0.6837 -0.5982 -0.5258
  256MOL   H12541435   0.228   1.702   0.735 -0.7124  2.8099 -1.5641
  256MOL   H12641436   0.346   1.587   0.662 -0.1678 -0.3305 -1.0355
  256MOL   H12741437   0.331   1.748   0.446  1.6682  0.3620 -0.0898
  256MOL   H12841438   0.160   1.867   0.439 -1.1809  1.6687  0.0786
  256MOL   H12941439   0.239   1.972   0.516  1.3349 -0.3870  2.3366
  256MOL   C13041440   0.443   1.833   0.597  0.0115 -0.3069  0.2523
  256MOL   C13141441   0.568   1.741   0.583  0.4175 -0.0995 -0.2836
  256MOL   N13241442   0.604   1.735   0.441 -0.6012 -0.5211  0.0474
  256MOL   H13341443   0.454   1.934   0.556 -2.5846 -0.3552 -0.6363
  256MOL   H13441444   0.421   1.854   0.701  0.5896  0.1761  0.2757
  256MOL   H13541445   0.558   1.638   0.618 -2.0179  0.0360 -0.4506
  256MOL   H13641446   0.525   1.702   0.388  1.4413 -2.5591 -1.8529
  256MOL   H13741447   0.660   1.651   0.427 -0.4746 -0.0311 -2.6731
  256MOL   C13841448   0.691   1.782   0.671  0.4040 -0.8335 -0.5515
  256MOL   C13941449   0.661   1.757   0.824 -0.0464  0.4182  0.1053
  256MOL   N14041450   0.648   1.613   0.846 -0.4542  0.6993  0.5561
  256MOL   H14141451   0.770   1.718   0.632  1.1362  0.0419 -0.4983
  256MOL   H14241452   0.725   1.882   0.647 -1.4034 -0.0076  0.2664
  256MOL   H14341453   0.559   1.792   0.841 -0.5330 -1.5762  1.5512
  256MOL   H14441454   0.593   1.591   0.928  0.4360 -1.2066  0.6838
  256MOL   H14541455   0.606   1.574   0.763  1.2885  0.6391 -0.3354
  256MOL   C14641456   0.762   1.829   0.923 -0.2635 -0.9344 -0.0626
  256MOL   C14741457   0.763   1.977   0.924  0.2770  0.6977 -0.2136
  256MOL   N14841458   0.624   2.034   0.934 -0.6594 -0.1110 -0.4196
  256MOL   H14941459   0.736   1.794   1.023  1.5354 -0.6204  0.5283
  256MOL   H15041460   0.864   1.791   0.915 -0.3720 -1.0673 -0.8299
  256MOL   H15141461   0.801   2.001   0.824 -1.1396 -1.1004 -1.2218
  256MOL   H15241462   0.569   1.997   0.858  0.7023  1.1542 -2.0651
  256MOL   H15341463   0.624   2.134   0.925 -0.3751 -0.2049 -1.5080
  256MOL   C15441464   0.853   2.046   1.035  0.2885  0.0729  0.1222
  256MOL   C15541465   1.006   2.030   0.998  0.0396 -0.0474 -0.9582
  256MOL   N15641466   1.085   2.088   1.103  0.1092 -0.3024 -0.8908
  256MOL   H15741467   0.832   2.152   1.024 -1.5786 -0.3585 -0.7536
  256MOL   H15841468   0.839   2.008   1.136 -0.2092  0.3244  0.1465
  256MOL   H15941469   1.034   2.093   0.913  0.8195 -0.6251 -1.1343
  256MOL   H16041470   1.176   2.092   1.058 -1.2506 -0.1994 -3.7253
  256MOL   H16141471   1.063   2.187   1.106 -1.8446 -0.7551  0.1910
  256MOL   H16241472   1.032   1.927   0.973 -2.2123 -1.2018  1.2344
  257MOL     C141473   2.296   2.319   2.438 -0.5357 -0.3781 -0.2514
  257MOL     C241474   2.242   2.175   2.414 -0.1139  0.3880 -0.2821
  257MOL     N341475   2.200   2.122   2.541  0.4359  0.1556 -0.1831
  257MOL     H441476   2.326   2.369   2.346 -0.1928 -1.2742 -0.6315
  257MOL     H541477   2.387   2.322   2.499 -1.6887 -0.0740  1.4911
  257MOL     H641478   2.327   2.118   2.378  0.4685  0.7115  0.5423
  257MOL     H741479   2.216   2.207   2.593 -0.2232  0.2464 -0.1261
  257MOL     H841480   2.275   2.070   2.585  0.7860  0.3834 -0.5012
  257MOL     H941481   2.227   2.392   2.480 -0.4188 -1.2028  1.4258
  257MOL    C1041482   2.114   2.167   2.323  0.1651 -0.4958 -0.0924
  257MOL    C1141483   2.131   2.168   2.172  0.1642  0.0011  0.5943
  257MOL    N1241484   2.005   2.146   2.108 -0.2569  0.0878  0.4355
  257MOL    H1341485   2.063   2.073   2.342  1.1990 -1.0938 -0.2546
  257MOL    H1441486   2.049   2.249   2.355  1.2035  0.0799  0.5794
  257MOL    H1541487   2.196   2.081   2.165  0.5130  0.3259 -0.2890
  257MOL    H1641488   1.960   2.061   2.138 -2.2923  1.2065  0.6144
  257MOL    H1741489   2.029   2.125   2.012 -0.7602 -0.3521  0.4060
  257MOL    C1841490   2.207   2.289   2.114  0.3058  0.0162  0.0034
  257MOL    C1941491   2.360   2.279   2.088 -0.3425  0.5449  0.1815
  257MOL    N2041492   2.386   2.173   1.988 -0.0019  0.1912 -0.4975
  257MOL    H2141493   2.181   2.295   2.008  2.9734 -1.7889 -0.8011
  257MOL    H2241494   2.171   2.383   2.155  1.4228 -0.1974  1.5040
  257MOL    H2341495   2.415   2.247   2.177  0.9956 -0.1761 -0.8816
  257MOL    H2441496   2.466   2.189   1.929  0.1903 -1.5142 -0.7080
  257MOL    H2541497   2.313   2.159   1.920  0.7193  0.5761 -1.3630
  257MOL    C2641498   2.421   2.405   2.029 -0.0405  0.4318 -0.1974
  257MOL    C2741499   2.462   2.505   2.140  0.2190 -0.4778  0.3298
  257MOL    N2841500   2.592   2.558   2.109  0.0720  0.9809 -0.3492
  257MOL    H2941501   2.514   2.381   1.977 -0.4931 -0.9747 -0.3666
  257MOL    H3041502   2.359   2.448   1.949  0.2781  0.4313 -0.4450
  257MOL    H3141503   2.468   2.461   2.240 -1.0478  0.5913  0.8881
  257MOL    H3241504   2.628   2.522   2.021 -2.6784 -1.3072 -0.5947
  257MOL    H3341505   2.568   2.656   2.101 -1.0222  0.8711  1.4347
  257MOL    C3441506   2.364   2.627   2.140  0.0946  0.7127  0.5273
  257MOL    C3541507   2.377   2.723   2.255  0.7037  0.6860 -0.6158
  257MOL    N3641508   2.310   2.842   2.223  0.2181 -0.3197  0.1228
  257MOL    H3741509   2.383   2.687   2.051 -0.2438 -0.6938 -0.5200
  257MOL    H3841510   2.261   2.591   2.131  0.7589 -1.5650  1.5962
  257MOL    H3941511   2.479   2.754   2.276  0.2999 -0.1679  2.8611
  257MOL    H4041512   2.327   2.911   2.295 -2.5078  2.2398 -1.5821
  257MOL    H4141513   2.371   2.881   2.153 -2.6023  1.1952 -1.5811
  257MOL    C4241514   2.319   2.669   2.388  0.5912 -0.6267 -0.3714
  257MOL    C4341515   2.311   2.751   2.522  0.0704  0.1406 -0.2874
  257MOL    N4441516   2.265   2.655   2.616  0.1961 -0.3000 -0.0865
  257MOL    H4541517   2.218   2.636   2.364  0.5301  0.0393 -1.0626
  257MOL    H4641518   2.372   2.575   2.401 -1.5826 -1.6933  1.0836
  257MOL    H4741519   2.245   2.838   2.528 -2.3591 -1.6461 -0.1552
  257MOL    H4841520   2.171   2.639   2.583 -0.2607  1.4974  0.3248
  257MOL    H4941521   2.248   2.688   2.710 -0.9171 -2.9048  0.6733
  257MOL    C5041522   2.445   2.804   2.579 -0.0138 -0.0783 -0.8109
  257MOL    C5141523   2.502   2.927   2.507 -0.4419  0.5451  0.0100
  257MOL    N5241524   2.418   3.043   2.528 -0.1400  0.6799  0.7320
  257MOL    H5341525   2.453   2.825   2.685  0.8752  2.0052 -1.2638
  257MOL    H5441526   2.510   2.717   2.567 -0.0405  0.3198 -4.4691
  257MOL    H5541527   2.514   2.910   2.400 -2.1795 -0.0533 -0.1093
  257MOL    H5641528   2.460   3.132   2.504 -1.8817  0.9716 -1.3575
  257MOL    H5741529   2.331   3.044   2.479 -0.0823  1.6965  0.6296
  257MOL    C5841530   2.646   2.973   2.553  0.0327 -0.1903  0.3478
  257MOL    C5941531   2.752   2.869   2.517  0.2410  0.1443 -0.2344
  257MOL    N6041532   2.880   2.932   2.494  0.5173  0.7094  0.1093
  257MOL    H6141533   2.668   3.057   2.487  0.0646  0.1810  0.8267
  257MOL    H6241534   2.640   3.009   2.656 -4.1103  2.2898 -0.6436
  257MOL    H6341535   2.730   2.806   2.431 -0.1566 -0.8536  0.5956
  257MOL    H6441536   2.942   2.853   2.504 -0.7539 -0.4204 -0.7078
  257MOL    H6541537   2.902   2.970   2.585 -0.1262  0.6945  0.2706
  257MOL    C6641538   2.797   2.779   2.640  0.5128 -0.7726  0.1615
  257MOL    C6741539   2.870   2.650   2.593  0.3764 -0.4751  0.2724
  257MOL    N6841540   3.010   2.674   2.567  0.3793 -0.4159  0.1807
  257MOL    H6941541   2.857   2.826   2.718  1.4231 -0.4873 -0.7085
  257MOL    H7041542   2.708   2.737   2.688 -1.0342  0.4065 -1.5712
  257MOL    H7141543   2.816   2.632   2.500 -0.0381  1.1294  0.1831
  257MOL    H7241544   3.055   2.615   2.636 -1.5552 -1.3368  0.7053
  257MOL    H7341545   3.035   2.624   2.482 -1.0999 -0.6522 -0.1317
  257MOL    C7441546   2.860   2.533   2.695 -0.0388  0.5093 -0.3030
  257MOL    C7541547   2.875   2.389   2.644  0.4455 -0.1375 -0.2164
  257MOL    N7641548   2.860   2.297   2.754 -0.0615 -0.3262  0.4445
  257MOL    H7741549   2.932   2.540   2.776 -1.2761  1.0786  0.7533
  257MOL    H7841550   2.759   2.529   2.735 -0.1702  0.1943 -0.6640
  257MOL    H7941551   2.967   2.372   2.589 -2.3690 -1.4541 -4.7439
  257MOL    H8041552   2.810   2.326   2.836 -0.6310 -1.5277  0.5249
  257MOL    H8141553   2.820   2.209   2.726 -1.1029  0.8030 -1.7436
  257MOL    C8241554   2.761   2.346   2.541  0.3207  0.2345  0.6246
  257MOL    C8341555   2.779   2.201   2.488 -0.8551  0.3711 -0.0211
  257MOL    N8441556   2.730   2.102   2.581 -0.2375 -0.7424  0.4516
  257MOL    H8541557   2.662   2.358   2.583  0.9533  0.9300  1.9518
  257MOL    H8641558   2.761   2.413   2.454 -0.2244 -0.2865  0.2180
  257MOL    H8741559   2.885   2.185   2.471 -0.6606  0.2779  1.2743
  257MOL    H8841560   2.774   2.019   2.545 -2.2751 -1.9404  0.5864
  257MOL    H8941561   2.629   2.090   2.587 -0.5860  1.1059 -1.3677
  257MOL    C9041562   2.698   2.175   2.356  0.0433 -0.3159 -0.7897
  257MOL    C9141563   2.788   2.175   2.232 -0.1190 -0.5757  0.5012
  257MOL    N9241564   2.728   2.089   2.138 -0.1827  0.1814  0.2584
  257MOL    H9341565   2.650   2.078   2.366 -0.7343  0.2925  1.8314
  257MOL    H9441566   2.613   2.243   2.355 -1.4800 -2.1315  1.2287
  257MOL    H9541567   2.891   2.152   2.259  0.5258  0.9997 -0.4867
  257MOL    H9641568   2.655   2.136   2.087 -2.4742 -2.3339  1.1217
  257MOL    H9741569   2.795   2.059   2.068  0.9219 -0.0848  1.4085
  257MOL    C9841570   2.800   2.308   2.164 -0.6546 -0.6995  0.6016
  257MOL    C9941571   2.949   2.356   2.145 -0.3486 -0.4048  0.5131
  257MOL   N10041572   2.965   2.466   2.049 -0.1112  0.4998 -0.1938
  257MOL   H10141573   2.762   2.315   2.062 -2.2253 -2.9588  0.9989
  257MOL   H10241574   2.744   2.385   2.218  0.6894  1.3071 -0.7990
  257MOL   H10341575   3.008   2.282   2.092  0.0767  0.8259 -0.7626
  257MOL   H10441576   3.018   2.535   2.099 -0.9970  0.3795  0.9308
  257MOL   H10541577   2.882   2.519   2.029  0.2365  0.9681 -0.4074
  257MOL   C10641578   3.011   2.396   2.285  0.5747  0.0066 -0.3412
  257MOL   C10741579   3.161   2.414   2.283 -1.0868 -0.3011  0.0929
  257MOL   N10841580   3.197   2.504   2.398 -0.4575 -0.6282 -0.2591
  257MOL   H10941581   2.952   2.476   2.330 -0.7602 -1.5298  0.7358
  257MOL   H11041582   2.997   2.313   2.355  2.6570 -2.3490 -2.5978
  257MOL   H11141583   3.181   2.488   2.205 -3.1112  2.2552  1.9148
  257MOL   H11241584   3.240   2.449   2.471  0.3934  2.2238  1.4677
  257MOL   H11341585   3.264   2.575   2.375 -1.0456  0.2305  0.6610
  257MOL   C11441586   3.250   2.284   2.272 -0.1620  0.5340  0.1512
  257MOL   C11541587   3.401   2.322   2.224 -0.8396 -0.3445 -0.2665
  257MOL   N11641588   3.489   2.237   2.310  0.3390  0.2240 -0.3549
  257MOL   H11741589   3.247   2.225   2.364 -0.0637  1.8370  1.0011
  257MOL   H11841590   3.203   2.216   2.202 -1.1500  1.0185  0.3372
  257MOL   H11941591   3.430   2.426   2.239  0.2682 -0.3324 -2.2914
  257MOL   H12041592   3.486   2.278   2.402  1.1021 -0.4316 -0.0427
  257MOL   H12141593   3.438   2.152   2.326 -1.2068  1.4011  1.2541
  257MOL   C12241594   3.413   2.265   2.077  0.4697 -0.1477  0.1494
  257MOL   C12341595   3.323   2.352   1.978  0.6960  0.1030  0.0390
  257MOL   N12441596   3.379   2.485   1.981 -0.1967  0.2114  0.1736
  257MOL   H12541597   3.519   2.262   2.053  0.9115 -0.4602  2.0513
  257MOL   H12641598   3.393   2.158   2.075  0.6435 -0.1743 -0.1742
  257MOL   H12741599   3.227   2.361   2.030  1.0153 -1.9890  1.0476
  257MOL   H12841600   3.403   2.508   2.076 -0.1606  0.2732  0.1497
  257MOL   H12941601   3.467   2.488   1.932 -0.5999  1.5176 -0.5147
  257MOL   C13041602   3.290   2.294   1.844  0.1555 -0.0267 -0.0057
  257MOL   C13141603   3.184   2.182   1.848 -0.1397 -0.3833  0.3375
  257MOL   N13241604   3.055   2.236   1.815 -0.0181  0.1143  0.0470
  257MOL   H13341605   3.272   2.369   1.767  2.5095 -1.5271 -2.0850
  257MOL   H13441606   3.381   2.253   1.801  0.2012  0.3231 -0.2482
  257MOL   H13541607   3.172   2.146   1.950 -1.2618 -1.4178 -0.1523
  257MOL   H13641608   3.039   2.327   1.857  1.6013 -0.5424  2.1575
  257MOL   H13741609   3.034   2.257   1.718 -0.3126  2.1326  0.5245
  257MOL   C13841610   3.226   2.053   1.775 -0.3118 -0.0555  0.2917
  257MOL   C13941611   3.272   1.933   1.861 -0.1980  0.1566  0.2355
  257MOL   N14041612   3.151   1.859   1.894 -0.3129 -0.5224  0.9152
  257MOL   H14141613   3.146   2.030   1.704 -0.8468  2.5069  0.0021
  257MOL   H14241614   3.311   2.075   1.711 -1.3436 -0.6217 -1.3262
  257MOL   H14341615   3.310   1.970   1.956  0.2734 -0.1439  0.1640
  257MOL   H14441616   3.127   1.811   1.809 -2.0880 -0.2001  1.2138
  257MOL   H14541617   3.181   1.783   1.953  1.6648  0.4613  1.2462
  257MOL   C14641618   3.382   1.844   1.793 -0.0279 -0.3426  0.2240
  257MOL   C14741619   3.517   1.919   1.808 -0.2807  0.8368 -0.0932
  257MOL   N14841620   3.576   1.874   1.937 -0.8465 -0.1588  0.0674
  257MOL   H14941621   3.386   1.742   1.832 -1.2099 -0.2334  0.6326
  257MOL   H15041622   3.353   1.824   1.690 -2.3632  0.3966  0.7258
  257MOL   H15141623   3.493   2.025   1.810 -1.6921  0.5319 -0.3787
  257MOL   H15241624   3.649   1.941   1.958 -1.2975  0.8425 -1.5321
  257MOL   H15341625   3.509   1.898   2.008 -0.5220 -1.0590  0.6957
  257MOL   C15441626   3.623   1.882   1.699  0.1333 -0.4307 -0.3517
  257MOL   C15541627   3.586   1.938   1.560 -0.3135 -0.3975 -0.0405
  257MOL   N15641628   3.698   1.921   1.469  0.0482  0.6051 -0.0841
  257MOL   H15741629   3.708   1.941   1.733 -0.1030 -0.2900  0.0033
  257MOL   H15841630   3.644   1.775   1.707  2.5099  0.1983  2.8107
  257MOL   H15941631   3.574   2.047   1.561  0.3446 -0.3221  0.5840
  257MOL   H16041632   3.651   1.918   1.380 -2.0904 -0.0395  1.0486
  257MOL   H16141633   3.757   2.003   1.472  1.5517 -0.3324 -2.4257
  257MOL   H16241634   3.503   1.882   1.517 -1.3174  1.5220 -0.7095
  258MOL     C141635   5.844   2.803   5.096  0.0030  0.0706 -0.3344
  258MOL     C241636   5.932   2.744   4.981  0.2922 -0.1158  0.7998
  258MOL     N341637   6.038   2.840   4.954 -0.5386  0.0561  0.0643
  258MOL     H441638   5.905   2.807   5.186 -1.3822 -4.2362  0.8840
  258MOL     H541639   5.754   2.742   5.100 -0.2177  0.1347 -3.3049
  258MOL     H641640   5.871   2.742   4.891 -1.3932  1.5980  1.8861
  258MOL     H741641   5.998   2.916   4.900  1.1223  1.3140  0.5546
  258MOL     H841642   6.066   2.877   5.044 -2.2287 -1.5609  1.2857
  258MOL     H941643   5.810   2.904   5.075  1.6984  1.3080  2.6111
  258MOL    C1041644   5.990   2.601   5.007  0.2963 -0.1595 -0.2807
  258MOL    C1141645   5.901   2.479   4.959 -0.3658 -0.0408 -0.1336
  258MOL    N1241646   5.861   2.481   4.820  0.3320 -0.8171 -0.0476
  258MOL    H1341647   6.088   2.597   4.958  0.8010  0.0657  0.7001
  258MOL    H1441648   6.022   2.601   5.111  1.0015 -2.4409 -0.4671
  258MOL    H1541649   5.808   2.473   5.015 -0.2755 -3.6317 -0.2603
  258MOL    H1641650   5.765   2.450   4.829 -0.2951  2.0294  5.2123
  258MOL    H1741651   5.900   2.405   4.767 -0.6755 -0.0998 -1.8731
  258MOL    C1841652   5.979   2.351   4.986 -0.8205  0.6685 -0.3193
  258MOL    C1941653   5.944   2.279   5.113 -0.1913  0.8669  0.0734
  258MOL    N2041654   5.812   2.219   5.089  0.5058  0.8447  0.1695
  258MOL    H2141655   5.967   2.282   4.902 -0.1376 -0.6454  0.6519
  258MOL    H2241656   6.084   2.382   4.980 -0.3777 -0.7385  0.0522
  258MOL    H2341657   5.927   2.358   5.186  2.4086  1.3891  0.1734
  258MOL    H2441658   5.828   2.143   5.024 -1.9447 -0.5963  1.1440
  258MOL    H2541659   5.782   2.177   5.176  0.3564  1.9395  0.6570
  258MOL    C2641660   6.037   2.165   5.162  0.4012 -0.4039  0.1125
  258MOL    C2741661   6.174   2.213   5.220  0.2255  0.1979  0.2330
  258MOL    N2841662   6.150   2.257   5.357  0.3064  0.0334 -0.0723
  258MOL    H2941663   6.008   2.098   5.243  2.1242 -2.3905 -0.8639
  258MOL    H3041664   6.061   2.103   5.075 -1.9849 -0.4192 -0.5976
  258MOL    H3141665   6.201   2.301   5.162 -1.4227 -0.1252 -1.0749
  258MOL    H3241666   6.099   2.344   5.347 -1.0851 -0.9155 -1.5700
  258MOL    H3341667   6.096   2.190   5.409 -0.6579 -0.8620 -2.1544
  258MOL    C3441668   6.302   2.132   5.218  0.5608 -0.0875  0.3236
  258MOL    C3541669   6.358   2.110   5.072 -0.6985 -0.2478  0.6096
  258MOL    N3641670   6.463   2.218   5.060  0.3562  0.3104 -0.7441
  258MOL    H3741671   6.375   2.182   5.283  0.6769  0.0904  0.0586
  258MOL    H3841672   6.292   2.034   5.265  0.5586 -0.4353 -0.3949
  258MOL    H3941673   6.286   2.130   4.993  0.6578  2.1680 -0.0754
  258MOL    H4041674   6.486   2.213   4.961 -0.5918 -1.7135 -0.8823
  258MOL    H4141675   6.435   2.308   5.096 -2.3323 -0.2860 -1.2061
  258MOL    C4241676   6.419   1.969   5.040  0.0597  0.5482  0.1112
  258MOL    C4341677   6.310   1.866   5.008  0.2971  0.1568  0.4396
  258MOL    N4441678   6.355   1.781   4.904 -0.5731 -0.2811 -0.0562
  258MOL    H4541679   6.484   1.986   4.954  1.5602  1.1369  1.3315
  258MOL    H4641680   6.479   1.934   5.124 -2.0163 -0.4700  1.2128
  258MOL    H4741681   6.225   1.927   4.975  0.3297  0.6238  1.2112
  258MOL    H4841682   6.385   1.842   4.829  0.5205  1.1635  1.5164
  258MOL    H4941683   6.273   1.736   4.867 -1.0163 -0.3364  0.9911
  258MOL    C5041684   6.254   1.782   5.123  0.0300 -0.3708  0.4163
  258MOL    C5141685   6.100   1.761   5.124  0.3416 -0.1153  0.8284
  258MOL    N5241686   6.069   1.688   5.008 -0.1264  0.4535  0.8848
  258MOL    H5341687   6.300   1.683   5.124 -0.2870 -0.5412 -0.9906
  258MOL    H5441688   6.285   1.818   5.221 -2.6970 -0.1109  1.2025
  258MOL    H5541689   6.032   1.845   5.112  0.4547  0.0177  1.1032
  258MOL    H5641690   6.117   1.735   4.932 -1.5449 -2.7011 -2.0749
  258MOL    H5741691   6.136   1.613   5.010  0.9487  1.3729  0.5147
  258MOL    C5841692   6.053   1.684   5.250 -0.1393 -0.7450  0.2562
  258MOL    C5941693   6.070   1.749   5.381  0.2943 -0.3687  0.9181
  258MOL    N6041694   5.993   1.874   5.394  0.4690  0.6410 -0.1798
  258MOL    H6141695   5.949   1.656   5.232  0.3067 -1.0038 -2.2332
  258MOL    H6241696   6.100   1.587   5.231  0.0517 -0.3035 -1.7167
  258MOL    H6341697   6.176   1.764   5.404  0.2003  0.5523  0.7980
  258MOL    H6441698   5.897   1.845   5.405 -0.0823  2.1711 -0.8350
  258MOL    H6541699   5.986   1.928   5.309 -1.6308  1.0655  0.2339
  258MOL    C6641700   6.024   1.666   5.498  0.1924  0.3899  0.1875
  258MOL    C6741701   6.132   1.569   5.555 -0.6959  0.0197 -0.2621
  258MOL    N6841702   6.090   1.527   5.690  0.0181 -0.7535  0.1766
  258MOL    H6941703   5.985   1.731   5.576  0.3900  0.4704  0.2203
  258MOL    H7041704   5.934   1.609   5.473  0.4255 -0.6298  1.6117
  258MOL    H7141705   6.224   1.625   5.573 -0.8672  0.2994 -0.2531
  258MOL    H7241706   6.161   1.473   5.736  1.4091 -1.7849 -3.0937
  258MOL    H7341707   6.021   1.453   5.684  1.1601 -1.7402 -0.8364
  258MOL    C7441708   6.155   1.445   5.464 -0.5255  0.0130  0.1780
  258MOL    C7541709   6.284   1.438   5.390 -0.1665  0.2513  0.1381
  258MOL    N7641710   6.396   1.454   5.478 -0.1918 -0.4523  0.3082
  258MOL    H7741711   6.162   1.354   5.525 -1.3919  0.6092  1.1796
  258MOL    H7841712   6.070   1.424   5.399 -0.6349 -2.2035  0.9671
  258MOL    H7941713   6.295   1.532   5.337 -1.2491  1.0881  1.3705
  258MOL    H8041714   6.477   1.465   5.419 -0.5387  0.2370 -0.0342
  258MOL    H8141715   6.385   1.536   5.536  0.8002 -2.4698  3.4864
  258MOL    C8241716   6.306   1.304   5.306  0.1017  0.9847 -0.8805
  258MOL    C8341717   6.223   1.284   5.179  0.4987 -0.5061  0.0936
  258MOL    N8441718   6.267   1.381   5.075 -0.5992  0.6467 -0.2206
  258MOL    H8541719   6.410   1.295   5.274  0.1587 -0.9851 -0.2222
  258MOL    H8641720   6.293   1.221   5.375  0.0522  1.2715 -0.5423
  258MOL    H8741721   6.119   1.306   5.206  0.8150  2.1711 -0.7325
  258MOL    H8841722   6.235   1.349   4.985  1.8445  2.1161 -1.6559
  258MOL    H8941723   6.367   1.371   5.061 -0.4606  2.0770 -0.2826
  258MOL    C9041724   6.234   1.137   5.124  0.0390  0.1078 -0.3286
  258MOL    C9141725   6.214   1.011   5.207  0.3983 -0.2332 -0.2831
  258MOL    N9241726   6.156   0.907   5.128  0.1424 -0.4681  0.6859
  258MOL    H9341727   6.163   1.137   5.041  2.8393  1.4167 -2.7945
  258MOL    H9441728   6.329   1.137   5.071 -0.9923  1.6776 -2.2673
  258MOL    H9541729   6.137   1.048   5.275 -1.0217  1.8197 -2.9251
  258MOL    H9641730   6.086   0.956   5.075  0.9542  2.6133  2.4003
  258MOL    H9741731   6.100   0.838   5.177 -1.4365 -0.6425 -1.3040
  258MOL    C9841732   6.344   0.955   5.272 -0.6573  0.5204 -0.1544
  258MOL    C9941733   6.305   0.868   5.392 -0.2524 -0.2958  0.1231
  258MOL   N10041734   6.420   0.795   5.429 -0.1331  0.5527  0.0510
  258MOL   H10141735   6.402   0.897   5.200  0.6822  0.6366  0.8237
  258MOL   H10241736   6.412   1.034   5.303  1.2698 -0.6325 -1.3386
  258MOL   H10341737   6.226   0.801   5.359  0.6279 -2.0424  1.4897
  258MOL   H10441738   6.404   0.727   5.501  3.9055 -0.2442  0.2830
  258MOL   H10541739   6.435   0.737   5.348 -1.2957  0.9143 -0.4386
  258MOL   C10641740   6.264   0.952   5.522  0.2248  0.2317 -0.9276
  258MOL   C10741741   6.202   0.871   5.635  0.3476  0.1567 -0.1935
  258MOL   N10841742   6.138   0.955   5.732  0.0176 -0.3908  0.1218
  258MOL   H10941743   6.344   1.011   5.568 -0.8804  0.3042  0.9537
  258MOL   H11041744   6.189   1.025   5.495 -0.7762 -0.3964  0.1128
  258MOL   H11141745   6.293   0.834   5.684 -1.0118  0.6914  2.8727
  258MOL   H11241746   6.109   0.901   5.812 -3.0995 -0.0363 -0.7067
  258MOL   H11341747   6.054   0.997   5.696  1.2063  1.5926 -0.4779
  258MOL   C11441748   6.112   0.750   5.593  0.2208 -0.9150  0.9588
  258MOL   C11541749   5.974   0.789   5.538 -0.0696 -0.8590  0.4013
  258MOL   N11641750   5.975   0.819   5.400 -0.4899 -0.1750  0.6238
  258MOL   H11741751   6.153   0.676   5.525 -0.1837 -1.5647  1.4110
  258MOL   H11841752   6.113   0.694   5.687  0.4029 -0.5610  1.1679
  258MOL   H11941753   5.928   0.877   5.583  2.1480  1.0050 -0.8237
  258MOL   H12041754   5.934   0.910   5.385 -0.2699 -0.2528 -0.5406
  258MOL   H12141755   6.075   0.829   5.391 -0.7749  1.9497 -0.5599
  258MOL   C12241756   5.876   0.682   5.550  0.2349 -0.0575  0.3463
  258MOL   C12341757   5.845   0.622   5.693 -0.0867 -0.2613 -0.5926
  258MOL   N12441758   5.772   0.719   5.774 -0.0915  0.0501  0.6730
  258MOL   H12541759   5.777   0.711   5.515  0.4367  1.1793  0.7680
  258MOL   H12641760   5.901   0.601   5.481 -2.0014 -0.9080  0.5169
  258MOL   H12741761   5.938   0.602   5.747 -1.5435 -1.3615  1.5927
  258MOL   H12841762   5.794   0.813   5.745  3.0548 -0.0228  2.6881
  258MOL   H12941763   5.798   0.697   5.869 -1.4217 -2.4667  0.4858
  258MOL   C13041764   5.757   0.490   5.668  0.8219  0.6047 -0.3006
  258MOL   C13141765   5.841   0.358   5.649 -0.1703 -0.3481 -0.7152
  258MOL   N13241766   5.904   0.322   5.777  0.3128  0.2525  0.1863
  258MOL   H13341767   5.688   0.480   5.752 -1.7564 -1.2701 -2.5440
  258MOL   H13441768   5.696   0.515   5.581 -0.5259  0.3712  0.5523
  258MOL   H13541769   5.917   0.379   5.574  0.3372  0.0744 -0.0759
  258MOL   H13641770   5.839   0.324   5.854  0.6063 -0.2588  0.4496
  258MOL   H13741771   5.965   0.243   5.791 -0.6998 -0.8427 -1.5255
  258MOL   C13841772   5.761   0.235   5.597 -0.1025  0.3588  0.3675
  258MOL   C13941773   5.727   0.252   5.443 -0.0730 -0.1497  1.1152
  258MOL   N14041774   5.735   0.118   5.387 -0.3544 -0.8330  0.6417
  258MOL   H14141775   5.810   0.138   5.607 -1.4872 -0.4367 -0.4425
  258MOL   H14241776   5.676   0.227   5.665 -0.6714 -0.3140 -0.4178
  258MOL   H14341777   5.803   0.304   5.385 -1.2319  0.7181  0.3635
  258MOL   H14441778   5.734   0.123   5.286 -0.3356  0.7866  0.7124
  258MOL   H14541779   5.825   0.080   5.412  0.1410  0.0494  0.2129
  258MOL   C14641780   5.584   0.305   5.411  0.3893  0.1164 -0.2791
  258MOL   C14741781   5.557   0.327   5.261 -0.0160  0.5415  0.1822
  258MOL   N14841782   5.423   0.369   5.226  0.3976 -0.4203  0.2815
  258MOL   H14941783   5.511   0.231   5.444  1.5041 -2.0890 -2.5665
  258MOL   H15041784   5.554   0.391   5.471 -0.3834  0.5625 -1.2842
  258MOL   H15141785   5.566   0.232   5.208 -2.0069  0.9939 -1.0257
  258MOL   H15241786   5.407   0.378   5.127 -0.4679 -0.7910  0.3912
  258MOL   H15341787   5.355   0.300   5.255 -0.0773  0.3843  1.1342
  258MOL   C15441788   5.660   0.413   5.191 -0.1844  0.7847  0.7059
  258MOL   C15541789   5.701   0.547   5.258  0.9577 -0.8220 -0.3481
  258MOL   N15641790   5.806   0.603   5.188 -0.6087 -0.7187  0.4149
  258MOL   H15741791   5.750   0.354   5.169  1.6531  3.4544  0.7583
  258MOL   H15841792   5.633   0.434   5.087  0.4458 -1.4958  0.0447
  258MOL   H15941793   5.729   0.539   5.363 -0.1201 -0.4320 -0.0293
  258MOL   H16041794   5.822   0.696   5.224  1.6882 -0.8565 -0.1884
  258MOL   H16141795   5.770   0.627   5.096  0.7983 -2.2721 -0.5740
  258MOL   H16241796   5.632   0.631   5.250  1.3435 -0.4309  0.4077
  259MOL     C141797   0.247   3.136   0.387  0.0688 -0.3263 -0.0296
  259MOL     C241798   0.184   3.058   0.273  0.0882 -0.0971 -0.0801
  259MOL     N341799   0.056   3.116   0.242 -0.6343 -0.7669  0.6674
  259MOL     H441800   0.330   3.076   0.425 -0.9280 -2.0422 -0.5126
  259MOL     H541801   0.182   3.157   0.472 -0.8808 -0.5937 -0.6851
  259MOL     H641802   0.166   2.954   0.298 -1.3153 -0.0606 -0.8791
  259MOL     H741803   7.275   3.108   0.326  0.8194 -1.6154  1.5841
  259MOL     H841804   0.008   3.059   0.175  0.2502 -1.2450  0.4292
  259MOL     H941805   0.287   3.232   0.353 -0.4643  0.6389  1.9653
  259MOL    C1041806   0.273   3.050   0.151 -0.3313 -0.0648 -0.5283
  259MOL    C1141807   0.351   2.917   0.108 -0.9979  0.0314  0.7220
  259MOL    N1241808   0.432   2.943   7.267 -0.5723  0.0439  0.5190
  259MOL    H1341809   0.218   3.084   0.064 -1.0635 -0.4850 -0.2396
  259MOL    H1441810   0.350   3.127   0.142  1.4595 -1.6159  0.9896
  259MOL    H1541811   0.280   2.841   0.076  0.4439 -0.1851 -2.0656
  259MOL    H1641812   0.504   3.014   7.272 -0.6820  0.1692  0.3419
  259MOL    H1741813   0.366   2.986   7.203  1.4714  0.5829 -1.3121
  259MOL    C1841814   0.447   2.867   0.221  0.8353 -0.0502  0.2684
  259MOL    C1941815   0.471   2.713   0.208  0.1761 -0.4354 -0.2161
  259MOL    N2041816   0.578   2.680   0.283 -0.5875  0.2733 -0.1082
  259MOL    H2141817   0.528   2.939   0.229 -1.1677  2.1666  1.1690
  259MOL    H2241818   0.400   2.880   0.318  0.4809 -0.0474  0.0972
  259MOL    H2341819   0.494   2.689   0.104 -0.6085 -0.4513 -0.3835
  259MOL    H2441820   0.659   2.731   0.251 -0.2930 -0.3238 -0.3169
  259MOL    H2541821   0.600   2.586   0.253  0.2935  0.6633 -0.7097
  259MOL    C2641822   0.354   2.623   0.263  0.0187 -0.8598 -0.0558
  259MOL    C2741823   0.346   2.490   0.186  0.0171  0.3176  0.0123
  259MOL    N2841824   0.239   2.410   0.249 -0.2635  0.0828  0.1168
  259MOL    H2941825   0.354   2.611   0.371 -0.9668 -0.2247  0.0248
  259MOL    H3041826   0.261   2.675   0.238  0.5036  0.4467  0.8102
  259MOL    H3141827   0.439   2.438   0.204  0.4341  0.8447 -0.5907
  259MOL    H3241828   0.213   2.347   0.175  0.2988  0.9400 -0.8194
  259MOL    H3341829   0.154   2.458   0.273 -0.1710  0.5527 -0.4992
  259MOL    C3441830   0.322   2.494   0.037  0.3941 -0.4263  0.0453
  259MOL    C3541831   0.348   2.352   7.257 -0.6484  0.2259  0.0717
  259MOL    N3641832   0.240   2.262   0.009 -0.0085 -0.1188  0.3470
  259MOL    H3741833   0.225   2.535   0.009  0.2128 -1.6636 -1.2391
  259MOL    H3841834   0.393   2.562   7.264  0.5352  1.4076  2.7216
  259MOL    H3941835   0.440   2.312   0.024 -0.0361  2.6769  1.1794
  259MOL    H4041836   0.151   2.295   7.251 -0.7426 -1.8192  0.5438
  259MOL    H4141837   0.240   2.181   7.224 -2.2097 -1.6962  2.3060
  259MOL    C4241838   0.388   2.354   7.105  0.1837 -0.2930 -0.1477
  259MOL    C4341839   0.531   2.404   7.072 -0.1608  0.2203 -1.1344
  259MOL    N4441840   0.649   2.337   7.119  0.3789 -0.3719 -0.4900
  259MOL    H4541841   0.377   2.249   7.081 -0.7617 -0.2752  0.1829
  259MOL    H4641842   0.314   2.415   7.053  0.2678 -0.2371 -0.2028
  259MOL    H4741843   0.549   2.504   7.114 -0.7396 -0.2608  0.3004
  259MOL    H4841844   0.733   2.374   7.077 -0.1582  0.5594 -0.7645
  259MOL    H4941845   0.636   2.243   7.086  1.3972 -0.8565  0.4567
  259MOL    C5041846   0.539   2.413   6.922 -0.5542 -0.0460 -0.0199
  259MOL    C5141847   0.592   2.547   6.869  0.4143  0.3386 -0.8368
  259MOL    N5241848   0.643   2.519   6.737  0.0250 -0.9569  0.1262
  259MOL    H5341849   0.604   2.334   6.886 -1.7314 -1.1996  0.3476
  259MOL    H5441850   0.441   2.393   6.879 -1.4295  1.9624  1.0054
  259MOL    H5541851   0.672   2.591   6.928 -1.4919  1.6382  0.8555
  259MOL    H5641852   0.693   2.597   6.696 -0.1793 -1.5542 -1.2874
  259MOL    H5741853   0.719   2.455   6.755  0.5515 -0.5856 -0.7684
  259MOL    C5841854   0.477   2.654   6.858 -0.2296  0.6603  0.5042
  259MOL    C5941855   0.427   2.720   6.994  0.2682  0.4106  0.0956
  259MOL    N6041856   0.537   2.792   7.049  0.2751 -0.2721  0.4856
  259MOL    H6141857   0.500   2.737   6.792  0.7281 -0.4268 -0.5612
  259MOL    H6241858   0.389   2.617   6.805 -0.3704 -0.4603  1.4971
  259MOL    H6341859   0.403   2.647   7.071  1.0163  0.8520  0.7428
  259MOL    H6441860   0.612   2.734   7.084  2.5243  1.8436 -0.6914
  259MOL    H6541861   0.502   2.843   7.129  0.2160 -1.8115  1.4592
  259MOL    C6641862   0.309   2.820   6.970 -0.5123  0.1158  0.8092
  259MOL    C6741863   0.178   2.787   7.048  0.1875 -0.1978 -0.5469
  259MOL    N6841864   0.090   2.897   7.065  0.0077 -0.1147  0.2538
  259MOL    H6941865   0.333   2.918   7.011  0.8728  0.6092 -1.1447
  259MOL    H7041866   0.296   2.830   6.863  1.0113  3.1015  0.8390
  259MOL    H7141867   0.212   2.755   7.146 -0.0861 -0.2601 -0.4730
  259MOL    H7241868   0.073   2.926   6.969  3.5639  0.6267 -0.2207
  259MOL    H7341869   0.004   2.853   7.092  0.0775 -0.9592 -0.8594
  259MOL    C7441870   0.100   2.661   6.992 -0.0555  0.3330 -0.8179
  259MOL    C7541871   7.241   2.621   7.063 -0.0603 -0.4287  0.0345
  259MOL    N7641872   7.139   2.725   7.042 -0.0519  0.0372  0.1444
  259MOL    H7741873   0.066   2.685   6.891  0.2106  2.5688 -0.4018
  259MOL    H7841874   0.174   2.583   6.975 -0.9638 -0.8368  0.5071
  259MOL    H7941875   7.268   2.631   7.168 -1.8584  2.1518  0.3126
  259MOL    H8041876   7.119   2.715   6.943 -0.1736 -1.8488  0.3401
  259MOL    H8141877   7.049   2.692   7.075  1.0834 -2.2109  1.0208
  259MOL    C8241878   7.188   2.480   7.028 -0.0225  0.6126 -0.0163
  259MOL    C8341879   7.275   2.365   7.077  0.6366 -0.6681  0.0476
  259MOL    N8441880   7.233   2.316   7.215  0.7054  0.3084 -0.1705
  259MOL    H8541881   7.094   2.485   7.083  0.6714  1.9554  1.0921
  259MOL    H8641882   7.171   2.474   6.921  1.9969  1.3088 -0.4013
  259MOL    H8741883   0.104   2.394   7.089  0.6598 -0.6618 -0.1750
  259MOL    H8841884   7.140   2.277   7.202  0.1582  1.7921 -0.9335
  259MOL    H8941885   7.218   2.393   0.003 -1.7909 -0.0150 -0.3105
  259MOL    C9041886   7.263   2.238   6.987 -0.6359  0.2384 -0.4229
  259MOL    C9141887   0.050   2.253   6.847  0.0748  0.1638  0.6373
  259MOL    N9241888   0.188   2.223   6.876 -0.5114 -0.1244 -0.6458
  259MOL    H9341889   0.043   2.158   7.035 -0.7239 -0.2997 -1.2144
  259MOL    H9441890   7.158   2.209   6.981 -0.5756 -0.2974  0.9169
  259MOL    H9541891   0.047   2.357   6.814 -0.3483  0.1960  0.7693
  259MOL    H9641892   0.226   2.306   6.920 -0.0371 -0.8668  0.3596
  259MOL    H9741893   0.241   2.212   6.790  0.0859  2.4347 -0.6481
  259MOL    C9841894   7.260   2.161   6.733 -0.0924 -0.5392  1.3933
  259MOL    C9941895   7.112   2.202   6.690  0.0029 -0.2867  0.9135
  259MOL   N10041896   7.104   2.348   6.680  0.4958  0.1136 -0.1852
  259MOL   H10141897   0.052   2.163   6.648 -1.4572 -1.7717  0.2483
  259MOL   H10241898   7.271   2.054   6.753 -0.3009 -0.9154 -0.4547
  259MOL   H10341899   7.042   2.161   6.763  0.5184 -1.1479  0.9281
  259MOL   H10441900   7.166   2.386   6.609  0.0156  0.0869 -0.6170
  259MOL   H10541901   7.010   2.379   6.663  0.7864  0.2420 -1.7042
  259MOL   C10641902   7.073   2.145   6.549  0.3658 -0.2429  0.0870
  259MOL   C10741903   7.076   1.992   6.529  0.0527  0.2471  0.0271
  259MOL   N10841904   6.946   1.944   6.586  0.3626 -0.0947  0.1202
  259MOL   H10941905   6.980   2.194   6.519  0.1002  0.0124  1.3127
  259MOL   H11041906   7.150   2.188   6.484 -0.0687  1.0000  0.3754
  259MOL   H11141907   7.157   1.946   6.585  1.1520  1.0012 -0.9098
  259MOL   H11241908   6.913   1.859   6.542  0.7958  0.1518 -0.6892
  259MOL   H11341909   6.883   2.016   6.552  1.9877  1.4874  0.3792
  259MOL   C11441910   7.079   1.943   6.381  0.0764 -0.2407  0.0120
  259MOL   C11541911   7.216   1.961   6.304 -0.0753  0.4418 -0.2071
  259MOL   N11641912   0.024   1.849   6.344 -0.7221  0.0387 -0.5971
  259MOL   H11741913   7.061   1.836   6.375  1.2759 -0.4561  0.1136
  259MOL   H11841914   6.993   1.990   6.333 -1.2547 -3.8403 -1.2597
  259MOL   H11941915   7.254   2.054   6.345 -0.2643  0.2740  0.3514
  259MOL   H12041916   7.249   1.763   6.327  1.2924 -1.0307 -1.3501
  259MOL   H12141917   0.047   1.838   6.442  3.2596  1.5479 -1.2707
  259MOL   C12241918   7.207   1.959   6.146  0.1911  0.8321  0.1447
  259MOL   C12341919   0.032   2.041   6.066 -0.5348  0.5553  0.1434
  259MOL   N12441920   0.027   1.995   5.923  0.9094 -0.2357 -0.4419
  259MOL   H12541921   7.208   1.855   6.114  0.9288 -0.0730  2.9553
  259MOL   H12641922   7.108   1.992   6.116 -0.6354 -1.4119  0.2700
  259MOL   H12741923   0.133   2.017   6.098 -1.1341 -2.0859  0.1847
  259MOL   H12841924   0.043   1.896   5.907  4.7224  0.2544  0.0143
  259MOL   H12941925   0.082   2.050   5.859 -0.0913 -1.0982 -2.0786
  259MOL   C13041926   0.016   2.194   6.066 -0.8241 -0.2507 -0.0836
  259MOL   C13141927   0.115   2.280   6.149 -0.1114  0.2964  0.2783
  259MOL   N13241928   0.234   2.278   6.069  0.0326 -0.1043  0.3344
  259MOL   H13341929   0.010   2.231   5.964 -2.3190  2.2286  0.8405
  259MOL   H13441930   7.188   2.203   6.102 -0.8515 -1.3625  0.1538
  259MOL   H13541931   0.143   2.236   6.244  2.8245  2.1571  0.3436
  259MOL   H13641932   0.267   2.184   6.049  0.4369  0.3843 -1.3215
  259MOL   H13741933   0.292   2.321   6.139  0.5338  0.6252 -0.5209
  259MOL   C13841934   0.060   2.415   6.182  0.7368  0.1646 -1.6931
  259MOL   C13941935   7.230   2.426   6.291  0.8979  0.5857 -0.3881
  259MOL   N14041936   0.018   2.440   6.423  0.0279  0.1921 -0.5601
  259MOL   H14141937   0.145   2.479   6.206 -0.8429  1.9714 -0.7415
  259MOL   H14241938   0.024   2.465   6.092  1.2704 -1.5813 -2.8865
  259MOL   H14341939   7.183   2.327   6.290  1.2819  0.3972 -3.5958
  259MOL   H14441940   0.003   2.527   6.472  0.2436 -0.6734  1.0635
  259MOL   H14541941   0.119   2.428   6.423 -0.4094 -4.0220 -1.4917
  259MOL   C14641942   7.113   2.532   6.261  0.0668  0.0572 -0.4085
  259MOL   C14741943   7.044   2.499   6.115 -0.0011 -0.7584 -0.2536
  259MOL   N14841944   6.934   2.403   6.141  0.2134 -0.0891 -0.0165
  259MOL   H14941945   7.033   2.524   6.334  1.1035 -3.8270  0.3974
  259MOL   H15041946   7.161   2.630   6.261 -1.6175  0.9052 -0.6994
  259MOL   H15141947   7.106   2.447   6.041  2.1294 -0.4675  1.2536
  259MOL   H15241948   6.857   2.444   6.192  0.5755 -0.1019  0.5521
  259MOL   H15341949   6.969   2.333   6.205  1.0934  0.0179 -0.3810
  259MOL   C15441950   6.990   2.621   6.043 -0.1407  0.1830  0.1915
  259MOL   C15541951   7.090   2.673   5.937 -0.4220 -0.6081 -0.9152
  259MOL   N15641952   7.031   2.779   5.862  0.4038  0.0012  0.2486
  259MOL   H15741953   6.898   2.594   5.993  0.0367 -0.0821  0.0056
  259MOL   H15841954   6.960   2.700   6.112  0.5682 -0.0745  0.8034
  259MOL   H15941955   7.121   2.590   5.873 -1.0329 -1.3512 -0.2576
  259MOL   H16041956   7.056   2.759   5.766  1.6730  1.1333  0.3361
  259MOL   H16141957   7.088   2.861   5.876 -0.7280  1.0570 -1.1390
  259MOL   H16241958   7.176   2.724   5.979 -0.2957 -0.6202 -1.1583
  260MOL     C141959   1.077   3.406   6.160 -0.6114  0.7245  0.8805
  260MOL     C241960   0.934   3.455   6.141 -0.1944  0.1030  0.0229
  260MOL     N341961   0.857   3.332   6.126  0.0032  0.5985 -0.0549
  260MOL     H441962   1.107   3.337   6.081 -2.7155 -0.4324  1.0606
  260MOL     H541963   1.087   3.348   6.252  0.1884  2.7346  2.0832
  260MOL     H641964   0.937   3.522   6.055 -1.1436  0.3673  0.2009
  260MOL     H741965   0.793   3.347   6.050 -0.8527  0.5863  0.6496
  260MOL     H841966   0.794   3.336   6.206 -0.3371 -1.9886 -0.1353
  260MOL     H941967   1.140   3.495   6.168  1.1825 -0.3837 -0.5437
  260MOL    C1041968   0.885   3.526   6.261  0.1691 -0.5412 -0.2542
  260MOL    C1141969   0.754   3.595   6.233  0.4484 -0.6253  0.3217
  260MOL    N1241970   0.678   3.587   6.357  0.2571  0.9158  0.0390
  260MOL    H1341971   0.863   3.449   6.336 -0.8111 -0.6789 -0.6784
  260MOL    H1441972   0.956   3.593   6.309 -1.4843  0.5414  0.7239
  260MOL    H1541973   0.710   3.545   6.147  1.1234 -0.1882 -0.2799
  260MOL    H1641974   0.742   3.605   6.433  1.3657  1.1073 -0.9312
  260MOL    H1741975   0.600   3.651   6.352 -2.3273 -2.2670 -2.0788
  260MOL    C1841976   0.785   3.742   6.206  0.3328  0.5367 -0.2359
  260MOL    C1941977   0.673   3.832   6.160 -0.1024 -0.5352  0.9222
  260MOL    N2041978   0.700   3.977   6.196  0.0450  0.8546  0.1243
  260MOL    H2141979   0.827   3.804   6.285  0.4375  0.3503 -0.1459
  260MOL    H2241980   0.861   3.747   6.129 -1.0564  2.8846 -1.4961
  260MOL    H2341981   0.581   3.801   6.210  1.3566 -1.2277  3.2740
  260MOL    H2441982   0.690   3.991   6.295  0.8660  0.0510  0.3188
  260MOL    H2541983   0.798   3.996   6.181 -0.2168 -0.0757 -3.1258
  260MOL    C2641984   0.649   3.829   6.008 -0.2655  0.0978 -0.4739
  260MOL    C2741985   0.569   3.707   5.959  0.5104  0.3868  0.6529
  260MOL    N2841986   0.451   3.697   6.039 -0.0634  0.1099  0.0157
  260MOL    H2941987   0.608   3.925   5.976  0.7445  0.4441 -0.7537
  260MOL    H3041988   0.747   3.826   5.960 -0.6022 -1.7440 -1.0780
  260MOL    H3141989   0.618   3.612   5.979  0.9605  0.2275 -1.1257
  260MOL    H3241990   0.392   3.779   6.034  0.1744  0.1601 -2.7152
  260MOL    H3341991   0.390   3.625   6.006 -0.4173  0.4615 -0.1003
  260MOL    C3441992   0.539   3.714   5.809  0.5068  0.0925 -0.2531
  260MOL    C3541993   0.551   3.582   5.726 -0.2452 -0.5125 -0.3657
  260MOL    N3641994   0.487   3.617   5.596  0.7794 -0.1590 -0.0043
  260MOL    H3741995   0.441   3.762   5.798  0.3038 -0.8379 -2.8147
  260MOL    H3841996   0.610   3.784   5.765  2.1570  0.4845  2.9010
  260MOL    H3941997   0.495   3.499   5.768 -1.9043  0.5446 -0.4450
  260MOL    H4041998   0.493   3.539   5.532 -0.0518  0.8500 -1.3373
  260MOL    H4141999   0.387   3.626   5.608  0.8916  2.7238 -0.6687
  260MOL    C4242000   0.698   3.542   5.691  0.7169  0.0726  0.1804
  260MOL    C4342001   0.778   3.483   5.813  0.5899 -0.0641 -0.3111
  260MOL    N4442002   0.696   3.387   5.876 -0.1267 -0.6435 -0.5387
  260MOL    H4542003   0.700   3.465   5.614 -0.8107 -1.2015  1.3878
  260MOL    H4642004   0.749   3.631   5.653  2.2686 -0.4722  0.9446
  260MOL    H4742005   0.805   3.566   5.878  1.7173  0.8630 -1.9201
  260MOL    H4842006   0.603   3.425   5.891  0.1178 -0.9403  1.8640
  260MOL    H4942007   0.689   3.303   5.821  1.3989  0.3446 -2.2914
  260MOL    C5042008   0.916   3.434   5.774 -0.6081 -0.0484 -0.7597
  260MOL    C5142009   0.934   3.310   5.680  0.1338 -0.1372  0.1361
  260MOL    N5242010   1.020   3.339   5.562  0.4744  0.2051 -1.2051
  260MOL    H5342011   0.963   3.525   5.736 -1.1417  0.9806  0.9732
  260MOL    H5442012   0.983   3.437   5.860  1.7951  1.9444 -2.6179
  260MOL    H5542013   0.842   3.282   5.629 -0.3242 -0.0936  0.9281
  260MOL    H5642014   1.007   3.262   5.499 -2.8242 -0.3155  0.0301
  260MOL    H5742015   0.973   3.413   5.512 -0.6405  0.9409  0.8546
  260MOL    C5842016   0.996   3.185   5.754  0.6869  0.0455  0.3219
  260MOL    C5942017   0.905   3.117   5.858  0.0402  0.6052 -0.5495
  260MOL    N6042018   0.788   3.066   5.784  0.1237  0.3502 -0.0229
  260MOL    H6142019   1.025   3.104   5.687 -0.8291 -0.2547  0.0188
  260MOL    H6242020   1.083   3.218   5.811  1.1107 -2.0249  0.9334
  260MOL    H6342021   0.890   3.182   5.944  0.7480 -0.3719  0.3225
  260MOL    H6442022   0.714   3.025   5.839  1.1487 -2.4278 -0.5824
  260MOL    H6542023   0.823   2.996   5.719  0.4668  1.3339 -0.9013
  260MOL    C6642024   0.980   2.995   5.913 -0.5157  0.0033 -0.8112
  260MOL    C6742025   1.108   3.030   5.994  0.0004 -0.1598 -0.2318
  260MOL    N6842026   1.057   3.068   6.130  1.2585 -0.0394  0.8192
  260MOL    H6942027   0.915   2.931   5.971 -0.8949  2.7331  1.9021
  260MOL    H7042028   1.021   2.937   5.830  2.3799 -0.3518  0.8158
  260MOL    H7142029   1.164   3.112   5.950  1.6699 -2.1157 -1.8713
  260MOL    H7242030   0.974   3.010   6.129  0.1957  1.4483 -0.4801
  260MOL    H7342031   1.021   3.162   6.126 -1.2571 -0.9400  1.6994
  260MOL    C7442032   1.191   2.903   6.008 -0.4214  0.8502 -0.6277
  260MOL    C7542033   1.276   2.863   5.883  0.0320 -1.3119 -1.0790
  260MOL    N7642034   1.371   2.965   5.847  0.6145 -0.3902 -0.1540
  260MOL    H7742035   1.268   2.910   6.085  0.1039 -4.0189 -0.5319
  260MOL    H7842036   1.114   2.829   6.030  0.2201 -0.1977 -1.8886
  260MOL    H7942037   1.215   2.855   5.793 -0.1822 -1.1281 -0.9487
  260MOL    H8042038   1.451   2.971   5.908 -0.3408  1.1607  0.9889
  260MOL    H8142039   1.330   3.058   5.846  2.6720  0.5968  2.0886
  260MOL    C8242040   1.370   2.743   5.893 -0.0889 -0.1433  0.2192
  260MOL    C8342041   1.292   2.609   5.916 -0.2238 -0.4815  0.3558
  260MOL    N8442042   1.236   2.566   5.789  0.4862  0.1654  0.0270
  260MOL    H8542043   1.442   2.737   5.811 -0.0293 -3.6819  0.4615
  260MOL    H8642044   1.433   2.771   5.978  3.6321  1.8445 -2.9899
  260MOL    H8742045   1.208   2.622   5.985 -1.1066 -0.0805 -0.7881
  260MOL    H8842046   1.186   2.638   5.738 -2.1319 -1.1677  0.6151
  260MOL    H8942047   1.164   2.509   5.832 -0.6062  2.1250  0.8976
  260MOL    C9042048   1.382   2.491   5.960 -0.0343  0.3162  0.3371
  260MOL    C9142049   1.454   2.514   6.099  0.0630 -0.0203  0.5432
  260MOL    N9242050   1.347   2.508   6.204  0.1455  0.1254  0.0336
  260MOL    H9342051   1.328   2.397   5.970  0.2890 -0.0292 -1.1326
  260MOL    H9442052   1.463   2.471   5.890  0.5681 -0.9107  1.3569
  260MOL    H9542053   1.496   2.615   6.105 -0.5693  0.3501 -0.8444
  260MOL    H9642054   1.262   2.556   6.180 -0.7664 -1.5130 -0.0704
  260MOL    H9742055   1.325   2.411   6.221  0.7458  0.4376  2.9405
  260MOL    C9842056   1.558   2.406   6.141  0.0093  0.0759  0.2346
  260MOL    C9942057   1.663   2.460   6.245  0.4617  0.8031 -0.1453
  260MOL   N10042058   1.709   2.338   6.322  0.1950  0.5597 -0.6077
  260MOL   H10142059   1.506   2.319   6.182  1.3355 -0.5686  0.5950
  260MOL   H10242060   1.618   2.363   6.060  0.5472 -0.0422  0.6897
  260MOL   H10342061   1.617   2.536   6.308 -1.5880 -0.5353  0.0025
  260MOL   H10442062   1.798   2.359   6.365  0.8850 -1.5163 -0.9392
  260MOL   H10542063   1.647   2.315   6.399 -0.5532  1.8742 -0.8019
  260MOL   C10642064   1.791   2.515   6.191  0.4908 -0.5670  0.7449
  260MOL   C10742065   1.784   2.643   6.100 -0.9379  0.1366 -0.2527
  260MOL   N10842066   1.717   2.753   6.174 -0.3352  1.1216 -0.4720
  260MOL   H10942067   1.859   2.541   6.272  0.6563  4.0267 -0.7330
  260MOL   H11042068   1.833   2.438   6.127 -0.3919  0.5180 -1.1834
  260MOL   H11142069   1.724   2.610   6.015  0.6644  0.0342 -1.3698
  260MOL   H11242070   1.642   2.726   6.236 -0.0205  3.1587  0.8156
  260MOL   H11342071   1.685   2.824   6.110  1.2515  2.0098 -0.2949
  260MOL   C11442072   1.926   2.691   6.054  0.2598  0.3849 -0.1394
  260MOL   C11542073   2.025   2.597   5.980  0.8030  0.1906  0.5309
  260MOL   N11642074   2.083   2.512   6.078 -0.3514  0.7508  0.1911
  260MOL   H11742075   1.920   2.782   5.995 -0.5364  0.7213  0.4652
  260MOL   H11842076   1.978   2.719   6.146  0.9933 -1.6094  0.0872
  260MOL   H11942077   2.105   2.659   5.939  0.0907  0.6297 -0.2169
  260MOL   H12042078   2.093   2.572   6.159 -1.7521  1.3556 -0.0686
  260MOL   H12142079   2.029   2.434   6.111  2.3489 -1.3269 -0.1421
  260MOL   C12242080   1.957   2.513   5.873  0.4244 -0.1862  0.1980
  260MOL   C12342081   1.932   2.582   5.733  0.3080 -0.6471 -0.9725
  260MOL   N12442082   1.943   2.486   5.625  0.3729  0.3771  0.1362
  260MOL   H12542083   2.024   2.428   5.862 -1.6542 -1.8459  0.0008
  260MOL   H12642084   1.871   2.461   5.914 -0.6832  1.3055 -0.1982
  260MOL   H12742085   2.002   2.666   5.730  4.2877 -3.8300 -1.5397
  260MOL   H12842086   1.898   2.397   5.644  2.2506 -0.4881  0.6490
  260MOL   H12942087   1.873   2.521   5.561 -0.1991  0.4152  0.7795
  260MOL   C13042088   1.787   2.644   5.720 -0.4765 -0.3333 -0.2367
  260MOL   C13142089   1.774   2.737   5.593  0.0007 -0.8478  0.1660
  260MOL   N13242090   1.631   2.748   5.585 -0.2142  0.2894 -0.2486
  260MOL   H13342091   1.712   2.565   5.715  0.4225 -1.1445 -1.2824
  260MOL   H13442092   1.774   2.703   5.811  0.3343  0.6176 -0.7378
  260MOL   H13542093   1.805   2.683   5.504  0.0566  1.9336 -1.5417
  260MOL   H13642094   1.606   2.799   5.669  1.6011  1.0447 -0.1548
  260MOL   H13742095   1.582   2.660   5.592 -0.7151  0.6908  1.8596
  260MOL   C13842096   1.836   2.877   5.615  0.3095  0.0685  0.2035
  260MOL   C13942097   1.916   2.917   5.489  0.7879  0.0120  0.5793
  260MOL   N14042098   1.955   3.051   5.512 -1.0110  0.6641  0.0177
  260MOL   H14142099   1.771   2.955   5.655 -2.0128 -1.0114 -1.3323
  260MOL   H14242100   1.908   2.859   5.695  0.2236 -1.0076  0.0495
  260MOL   H14342101   1.848   2.925   5.405 -0.0983 -0.2975  1.2524
  260MOL   H14442102   1.872   3.108   5.506 -1.1395  0.2972 -1.7187
  260MOL   H14542103   2.002   3.066   5.601 -0.6256 -1.5987  0.2266
  260MOL   C14642104   2.048   2.833   5.481  0.2396 -0.5466  0.0187
  260MOL   C14742105   2.116   2.814   5.348  0.3875  0.3770  0.1211
  260MOL   N14842106   2.252   2.774   5.370 -0.0387 -0.4584  0.0120
  260MOL   H14942107   2.120   2.871   5.553 -0.5801  0.1632  0.4723
  260MOL   H15042108   2.026   2.732   5.518 -3.7196  0.5779  1.0646
  260MOL   H15142109   2.119   2.917   5.311  3.0464  0.0206 -0.7843
  260MOL   H15242110   2.257   2.703   5.442  0.2720 -1.0467 -0.5896
  260MOL   H15342111   2.283   2.726   5.287  1.9635  0.3560  0.2694
  260MOL   C15442112   2.042   2.715   5.251 -0.8178  0.3656  0.1275
  260MOL   C15542113   1.923   2.776   5.179  0.1593 -0.0429 -0.8145
  260MOL   N15642114   1.858   2.672   5.096 -0.1737 -0.0007  0.2657
  260MOL   H15742115   2.113   2.673   5.179 -0.1763 -1.3210  1.7159
  260MOL   H15842116   2.005   2.625   5.300 -1.6029  0.2556 -0.6573
  260MOL   H15942117   1.943   2.857   5.110  0.1356 -0.2056 -1.0129
  260MOL   H16042118   1.773   2.689   5.045 -1.0640 -2.8177  0.7213
  260MOL   H16142119   1.919   2.654   5.017  2.3032  2.6427  1.4699
  260MOL   H16242120   1.843   2.817   5.242 -0.8918  0.6981 -2.6093
  261MOL     C142121   3.518   5.441   7.178  0.1857 -0.1250  0.3014
  261MOL     C242122   3.668   5.470   7.189  0.2948 -0.2775  0.6061
  261MOL     N342123   3.679   5.611   7.202 -0.2161  0.2877  0.5079
  261MOL     H442124   3.462   5.488   7.259 -0.7445 -0.6784 -0.0103
  261MOL     H542125   3.513   5.332   7.178  1.7820 -0.2082 -0.3141
  261MOL     H642126   3.713   5.433   7.097  0.7991  0.9756  0.3336
  261MOL     H742127   3.774   5.633   7.176 -0.6906  3.6464  1.4595
  261MOL     H842128   3.674   5.636   0.024 -0.9366  1.1860  0.2455
  261MOL     H942129   3.470   5.473   7.085  2.7527  1.2229 -0.5963
  261MOL    C1042130   3.738   5.400   0.029 -0.1932  0.1643 -0.3214
  261MOL    C1142131   3.848   5.306   7.258 -0.2145  0.4977  0.2302
  261MOL    N1242132   3.955   5.310   0.079  0.1794  0.1391 -0.3777
  261MOL    H1342133   3.764   5.475   0.103 -5.0057  0.0341  1.6587
  261MOL    H1442134   3.662   5.346   0.084 -0.2567  0.7450  0.1574
  261MOL    H1542135   3.896   5.353   7.172  1.7092 -2.0346 -0.1459
  261MOL    H1642136   4.033   5.249   0.059  1.9446  2.2223  0.0114
  261MOL    H1742137   3.924   5.286   0.172  1.9938  1.8511  0.7183
  261MOL    C1842138   3.801   5.161   7.222  0.1395 -0.7921  0.1361
  261MOL    C1942139   3.910   5.068   7.177  0.0453  0.7033  0.7132
  261MOL    N2042140   3.840   4.938   7.156 -0.0168 -0.3563  0.1158
  261MOL    H2142141   3.741   5.124   0.030 -1.2967  1.1028 -0.0135
  261MOL    H2242142   3.735   5.165   7.135 -0.1739  1.5363  0.4447
  261MOL    H2342143   3.980   5.075   7.260  1.3500  1.5095 -0.4272
  261MOL    H2442144   3.903   4.877   7.106  1.0865 -0.1960  1.2752
  261MOL    H2542145   3.769   4.963   7.088 -0.2861  1.7264  1.1249
  261MOL    C2642146   3.973   5.102   7.034  0.4787 -0.3528 -0.3939
  261MOL    C2742147   4.128   5.074   7.004  0.4284 -0.4736 -0.4071
  261MOL    N2842148   4.198   5.139   7.117 -0.2921 -0.1878 -0.2589
  261MOL    H2942149   3.926   5.051   6.950 -0.5498 -0.6980  0.3831
  261MOL    H3042150   3.961   5.209   7.023  1.0659 -0.3332 -0.8560
  261MOL    H3142151   4.155   5.124   6.910  0.6461 -2.6469 -1.5389
  261MOL    H3242152   4.297   5.138   7.099 -0.4694  1.4179 -1.4004
  261MOL    H3342153   4.168   5.233   7.135  0.8726  0.1687 -0.1515
  261MOL    C3442154   4.169   4.929   6.979 -0.6943  0.5557 -0.2752
  261MOL    C3542155   4.206   4.883   6.835  0.3805  0.2493 -0.2694
  261MOL    N3642156   4.239   4.739   6.839  0.0180  0.2499  0.7681
  261MOL    H3742157   4.263   4.908   7.031 -1.0727 -1.4781 -0.3594
  261MOL    H3842158   4.085   4.869   7.012 -1.5528  0.4909 -2.4934
  261MOL    H3942159   4.300   4.930   6.805  1.3684 -1.5205 -0.0070
  261MOL    H4042160   4.292   4.716   6.756 -1.8257  1.9768 -0.9328
  261MOL    H4142161   4.286   4.705   6.922  1.0337 -1.0831 -0.3230
  261MOL    C4242162   4.101   4.914   6.717  0.2063 -0.7223 -0.2340
  261MOL    C4342163   4.141   4.901   6.564 -0.4438 -0.4578 -0.5010
  261MOL    N4442164   4.132   4.770   6.516  0.3279 -0.3330  0.0170
  261MOL    H4542165   4.008   4.868   6.749 -0.5868  0.9136 -0.0989
  261MOL    H4642166   4.075   5.020   6.723  3.0320  0.0503 -1.0164
  261MOL    H4742167   4.238   4.952   6.564 -0.5429 -0.2431  0.5912
  261MOL    H4842168   4.217   4.727   6.549  0.1617  0.2855  1.2828
  261MOL    H4942169   4.146   4.769   6.416 -0.3352  0.8945 -0.0913
  261MOL    C5042170   4.042   4.978   6.474  0.1697  0.1299 -0.5180
  261MOL    C5142171   4.107   5.111   6.412  0.3310 -0.3173 -0.0129
  261MOL    N5242172   3.998   5.185   6.355  0.3452  0.0473 -0.1430
  261MOL    H5342173   4.023   4.921   6.383  0.1313 -0.4090 -0.1748
  261MOL    H5442174   3.950   5.000   6.526  1.2317  2.4112  0.4344
  261MOL    H5542175   4.182   5.084   6.338 -0.4667 -0.7626 -0.6627
  261MOL    H5642176   4.013   5.284   6.341  0.1665  0.4653  2.4272
  261MOL    H5742177   3.997   5.163   6.256 -0.6361 -0.4834 -0.0234
  261MOL    C5842178   4.159   5.210   6.524 -0.1495  0.9264 -0.8477
  261MOL    C5942179   4.269   5.316   6.469  0.3953  0.2761 -0.0357
  261MOL    N6042180   4.272   5.417   6.579 -0.4504 -0.3794  0.1030
  261MOL    H6142181   4.078   5.261   6.576 -0.7520  0.3443 -1.2262
  261MOL    H6242182   4.218   5.157   6.599 -0.3488 -0.9378 -1.9970
  261MOL    H6342183   4.242   5.371   6.379  1.5007 -0.9014 -1.1038
  261MOL    H6442184   4.346   5.485   6.567  0.1945 -0.7833  1.7152
  261MOL    H6542185   4.299   5.377   6.667  2.1956  0.9736 -0.0403
  261MOL    C6642186   4.403   5.244   6.442  0.7906  0.5448 -0.6706
  261MOL    C6742187   4.490   5.312   6.337 -1.0964 -0.4007 -0.2300
  261MOL    N6842188   4.625   5.262   6.351  0.7842  0.3481 -0.4210
  261MOL    H6942189   4.458   5.251   6.536 -0.5941  1.4987  0.1047
  261MOL    H7042190   4.395   5.143   6.403 -2.0360  0.0022  1.1524
  261MOL    H7142191   4.492   5.419   6.360  0.7235 -0.6792  1.0936
  261MOL    H7242192   4.655   5.284   6.445 -0.2659  0.8952 -0.2008
  261MOL    H7342193   4.690   5.301   6.285 -0.9292 -0.8362 -2.8535
  261MOL    C7442194   4.447   5.295   6.188 -1.1220  0.3994 -0.7583
  261MOL    C7542195   4.459   5.423   6.102 -0.0937  0.1393  0.0386
  261MOL    N7642196   4.442   5.395   5.958  0.4211  0.1328  0.3644
  261MOL    H7742197   4.484   5.208   6.134 -0.3348 -0.1102  0.5892
  261MOL    H7842198   4.341   5.274   6.198 -1.4769  1.5669 -1.9724
  261MOL    H7942199   4.562   5.449   6.124  0.6114 -1.9487 -0.6579
  261MOL    H8042200   4.349   5.356   5.950  1.5793 -2.7410  0.1180
  261MOL    H8142201   4.425   5.488   5.924  0.2620 -0.2359 -0.5704
  261MOL    C8242202   4.351   5.533   6.134  0.8356  0.2912 -0.6805
  261MOL    C8342203   4.406   5.679   6.149  0.3923  0.0688  0.1582
  261MOL    N8442204   4.325   5.779   6.071 -0.3634  0.0116  0.0426
  261MOL    H8542205   4.282   5.539   6.050 -0.3865 -0.9896  0.2180
  261MOL    H8642206   4.279   5.515   6.213 -0.0376 -0.2536 -1.5844
  261MOL    H8742207   4.498   5.691   6.092 -0.4162 -0.8624 -1.3927
  261MOL    H8842208   4.369   5.869   6.088 -2.1462  0.9368 -0.1996
  261MOL    H8942209   4.237   5.790   6.119  0.0888 -0.7152  1.0752
  261MOL    C9042210   4.426   5.729   6.297  0.6029  0.3012 -0.1409
  261MOL    C9142211   4.573   5.709   6.338 -0.6487  0.2261  0.0838
  261MOL    N9242212   4.647   5.816   6.267 -0.0581 -0.4273 -0.6589
  261MOL    H9342213   4.395   5.829   6.327  1.1707  0.3461  0.2856
  261MOL    H9442214   4.361   5.668   6.360 -1.8600  0.6373 -2.2343
  261MOL    H9542215   4.621   5.624   6.290 -1.7063 -1.5976  2.1786
  261MOL    H9642216   4.625   5.910   6.299  1.2874 -1.3238  3.2230
  261MOL    H9742217   4.746   5.813   6.291  0.2403  0.4243 -1.7531
  261MOL    C9842218   4.593   5.711   6.499 -0.0294  0.7982  0.0689
  261MOL    C9942219   4.733   5.697   6.560  0.0264 -0.3282  0.4363
  261MOL   N10042220   4.731   5.721   6.706 -0.9309  0.0858  0.2531
  261MOL   H10142221   4.544   5.799   6.539  0.2385  0.9533  0.0565
  261MOL   H10242222   4.537   5.628   6.543  1.2075 -0.7986 -1.3001
  261MOL   H10342223   4.785   5.782   6.516 -1.3691 -0.7066 -2.0468
  261MOL   H10442224   4.822   5.701   6.746 -1.1129  1.1712  1.2119
  261MOL   H10542225   4.722   5.819   6.726  2.0507  0.4733 -0.0269
  261MOL   C10642226   4.798   5.564   6.517  0.4248 -0.7538  0.0184
  261MOL   C10742227   4.953   5.558   6.529 -0.1589 -0.4778 -0.8991
  261MOL   N10842228   4.977   5.416   6.504  0.2416  0.3986 -0.5684
  261MOL   H10942229   4.757   5.474   6.563  1.1641 -1.1855 -0.1554
  261MOL   H11042230   4.773   5.554   6.412  1.2331  1.8442 -0.4546
  261MOL   H11142231   4.986   5.589   6.628  0.1031 -1.7455 -0.5753
  261MOL   H11242232   4.937   5.361   6.578  2.6142 -0.8061 -0.1174
  261MOL   H11342233   5.076   5.397   6.508  0.0158 -0.5819  0.4610
  261MOL   C11442234   5.016   5.644   6.420 -0.4835 -0.0880  0.2409
  261MOL   C11542235   5.159   5.682   6.446 -0.4059  0.8222 -0.5527
  261MOL   N11642236   5.236   5.706   6.325 -0.1139  0.2318 -0.3075
  261MOL   H11742237   5.012   5.586   6.328  2.4677 -1.8458  1.1506
  261MOL   H11842238   4.948   5.726   6.399 -2.8570 -1.8220  0.8488
  261MOL   H11942239   5.202   5.593   6.493 -1.3977  0.1345 -0.9563
  261MOL   H12042240   5.333   5.726   6.345  0.0760 -1.4637  0.4778
  261MOL   H12142241   5.232   5.624   6.267 -1.2084  0.6162 -0.7921
  261MOL   C12242242   5.184   5.801   6.537 -0.2249 -0.4407 -0.3107
  261MOL   C12342243   5.223   5.782   6.684  0.1919 -0.0209 -0.7022
  261MOL   N12442244   5.359   5.722   6.686  0.0002 -0.1642 -0.6492
  261MOL   H12542245   5.250   5.876   6.492 -2.0007  0.5699 -1.2699
  261MOL   H12642246   5.090   5.856   6.540  1.1715  2.1195 -1.2784
  261MOL   H12742247   5.162   5.705   6.732  1.5987 -0.6519  0.0865
  261MOL   H12842248   5.414   5.753   6.608  0.0050 -0.5968 -0.8174
  261MOL   H12942249   5.351   5.622   6.678 -1.0557 -0.1179 -0.2265
  261MOL   C13042250   5.216   5.911   6.758 -0.9318 -0.2391  0.7087
  261MOL   C13142251   5.082   5.958   6.803  0.0566  0.2728  0.0551
  261MOL   N13242252   5.028   5.868   6.899 -0.3938 -0.0712 -0.2524
  261MOL   H13342253   5.270   5.911   6.852 -2.1453 -0.4482  1.4146
  261MOL   H13442254   5.270   5.993   6.710 -2.7191  0.3047 -0.4603
  261MOL   H13542255   5.006   5.968   6.726 -1.0712  0.0300  1.1276
  261MOL   H13642256   5.100   5.861   6.968 -1.4129  1.4271  1.0114
  261MOL   H13742257   4.949   5.912   6.944 -2.0334 -1.3178 -1.8188
  261MOL   C13842258   5.087   6.097   6.872 -0.0177  0.6428  0.9899
  261MOL   C13942259   5.129   6.219   6.787  0.2147  0.0932 -0.3221
  261MOL   N14042260   5.043   6.244   6.678 -0.2194  0.5686  0.2079
  261MOL   H14142261   4.985   6.123   6.901 -0.2187  0.5116  0.3956
  261MOL   H14242262   5.143   6.093   6.966 -1.0225 -0.8908  1.5427
  261MOL   H14342263   5.224   6.197   6.738  1.0190 -2.0356  2.0793
  261MOL   H14442264   5.064   6.158   6.629  1.7996  0.6693  0.8700
  261MOL   H14542265   5.084   6.312   6.617 -1.1884  1.5241  0.5956
  261MOL   C14642266   5.140   6.347   6.870  0.3686  0.2144  0.9165
  261MOL   C14742267   5.256   6.358   6.970  1.1196 -0.4072 -0.3738
  261MOL   N14842268   5.383   6.383   6.907 -0.3154 -0.3259  0.1407
  261MOL   H14942269   5.145   6.432   6.801 -1.2628 -0.5164 -0.1289
  261MOL   H15042270   5.046   6.353   6.925 -0.3809  0.1935 -0.3498
  261MOL   H15142271   5.263   6.264   7.025 -1.4598 -1.3885 -1.6575
  261MOL   H15242272   5.378   6.467   6.851 -2.9756  0.1082  0.9526
  261MOL   H15342273   5.413   6.312   6.843  1.1115  0.8385 -0.5074
  261MOL   C15442274   5.236   6.478   7.078  0.3019  1.1708 -0.6342
  261MOL   C15542275   5.107   6.454   7.167 -0.0736  0.0083 -0.2218
  261MOL   N15642276   5.101   6.544   0.009  0.5325 -0.0759  0.5204
  261MOL   H15742277   5.319   6.473   7.147  0.2056  0.9188 -0.5352
  261MOL   H15842278   5.238   6.582   7.044  0.3171  1.1870 -0.5831
  261MOL   H15942279   5.090   6.353   7.206 -2.3910  0.6762  0.6149
  261MOL   H16042280   5.000   6.547   0.014  0.4251 -3.1157  0.6918
  261MOL   H16142281   5.102   6.642   7.260  1.8723 -0.6345 -1.7845
  261MOL   H16242282   5.019   6.476   7.106 -1.0940  0.1489  1.2694
  262MOL     C142283   4.920   1.853   1.315 -0.3904 -0.9549  0.3344
  262MOL     C242284   4.921   1.758   1.199 -0.6417  0.0190  0.5532
  262MOL     N342285   4.957   1.840   1.084 -0.5122 -0.2462  0.3160
  262MOL     H442286   4.851   1.934   1.292 -0.9548 -0.9525  1.9729
  262MOL     H542287   5.019   1.887   1.345 -1.1188  0.2078  1.4788
  262MOL     H642288   4.822   1.719   1.175 -0.5236  0.2152 -0.2835
  262MOL     H742289   4.869   1.886   1.065 -1.4194 -2.2288 -0.4214
  262MOL     H842290   4.954   1.775   1.006 -0.3301  0.9155 -0.6846
  262MOL     H942291   4.869   1.795   1.392 -2.4192 -1.7155 -1.5270
  262MOL    C1042292   5.016   1.630   1.209 -1.1561  0.6601 -0.4738
  262MOL    C1142293   4.978   1.533   1.326 -0.0825  0.1183 -0.0887
  262MOL    N1242294   5.010   1.401   1.286 -0.3256 -0.0124  0.4045
  262MOL    H1342295   5.018   1.569   1.119  0.8398 -0.1460  0.0991
  262MOL    H1442296   5.119   1.663   1.215 -0.9567 -0.4467  3.3597
  262MOL    H1542297   4.870   1.537   1.343  0.0974  1.4436  0.7649
  262MOL    H1642298   5.091   1.408   1.227 -1.6636 -1.5983 -1.6713
  262MOL    H1742299   5.035   1.350   1.370  0.7988  0.9862  0.6840
  262MOL    C1842300   5.053   1.572   1.452  0.2446 -0.9534  0.0824
  262MOL    C1942301   5.002   1.517   1.596 -0.0475 -0.3577 -0.1071
  262MOL    N2042302   5.105   1.551   1.698  0.2608  0.2011  0.7461
  262MOL    H2142303   5.157   1.546   1.437 -0.3886 -3.7067  0.1960
  262MOL    H2242304   5.059   1.681   1.457  2.5123 -1.1117  1.3954
  262MOL    H2342305   4.991   1.409   1.593 -1.3837 -0.2514  0.3761
  262MOL    H2442306   5.117   1.647   1.729  0.6664  0.8365 -1.2918
  262MOL    H2542307   5.195   1.510   1.677 -0.2094 -0.1374 -0.6950
  262MOL    C2642308   4.861   1.578   1.631 -0.0599 -0.3336  0.7596
  262MOL    C2742309   4.779   1.499   1.731 -0.3687 -0.6047 -0.7758
  262MOL    N2842310   4.861   1.499   1.850 -0.4186  0.5674  0.1078
  262MOL    H2942311   4.870   1.683   1.659  2.6266  0.0680 -1.4095
  262MOL    H3042312   4.800   1.565   1.542 -0.1084 -0.9948  0.8848
  262MOL    H3142313   4.763   1.398   1.694 -2.7007 -0.6740  0.3269
  262MOL    H3242314   4.843   1.421   1.912  0.3016  1.1100  1.0018
  262MOL    H3342315   4.955   1.482   1.815  0.1064 -0.1105  1.7987
  262MOL    C3442316   4.640   1.558   1.766 -0.5013  0.0251 -0.4359
  262MOL    C3542317   4.542   1.477   1.857  0.4905 -0.5697 -0.1420
  262MOL    N3642318   4.419   1.555   1.864  0.1709 -0.0447 -0.2581
  262MOL    H3742319   4.656   1.660   1.801 -1.0767  0.5059 -1.5576
  262MOL    H3842320   4.595   1.568   1.668 -2.8868  0.4183  0.6499
  262MOL    H3942321   4.582   1.461   1.957  1.1139  1.2880 -0.0583
  262MOL    H4042322   4.341   1.496   1.890 -0.1184  1.3400  2.2244
  262MOL    H4142323   4.421   1.612   1.948 -1.8232 -1.7666  1.0122
  262MOL    C4242324   4.514   1.332   1.804 -0.5284  0.8193 -0.1588
  262MOL    C4342325   4.419   1.238   1.883  0.6212 -0.1681 -1.0543
  262MOL    N4442326   4.350   1.156   1.785  0.0433  0.2431  0.2621
  262MOL    H4542327   4.465   1.335   1.707  0.5277 -0.0394 -0.7220
  262MOL    H4642328   4.605   1.277   1.781 -0.2091  0.5838  1.6221
  262MOL    H4742329   4.344   1.307   1.921  1.4404  0.3435 -0.3331
  262MOL    H4842330   4.350   1.200   1.694 -0.2003 -0.2857  0.0015
  262MOL    H4942331   4.398   1.068   1.772  1.8610  1.3361 -0.6913
  262MOL    C5042332   4.487   1.145   1.992 -0.3298  0.1172  0.0110
  262MOL    C5142333   4.402   1.036   2.059  0.3403  0.7868 -0.5982
  262MOL    N5242334   4.450   0.903   2.020  0.6787  0.0766  0.8761
  262MOL    H5342335   4.569   1.105   1.932 -0.0041 -0.0616  0.5755
  262MOL    H5442336   4.533   1.208   2.068 -1.4574 -1.6042  2.1894
  262MOL    H5542337   4.296   1.049   2.035  0.2338 -2.1788 -1.9046
  262MOL    H5642338   4.435   0.891   1.921  0.4648 -1.6597  1.0970
  262MOL    H5742339   4.401   0.821   2.052 -1.6363  1.1465  0.1901
  262MOL    C5842340   4.430   1.046   2.211 -0.1612  0.2661  0.1006
  262MOL    C5942341   4.366   1.157   2.286  0.2355 -0.2706 -0.1550
  262MOL    N6042342   4.220   1.152   2.275  0.2224  0.7128  0.0994
  262MOL    H6142343   4.399   0.952   2.257 -3.6459  1.2484 -0.1253
  262MOL    H6242344   4.538   1.051   2.224 -0.0125 -0.2173 -0.8990
  262MOL    H6342345   4.377   1.255   2.240  2.9993 -0.9889 -1.0965
  262MOL    H6442346   4.203   1.186   2.181  0.9026  3.1018  0.7928
  262MOL    H6542347   4.180   1.227   2.329  1.7117  1.3197  0.3992
  262MOL    C6642348   4.416   1.167   2.434  0.5197 -0.2024  0.6484
  262MOL    C6742349   4.507   1.288   2.468 -0.1359  0.5680  0.8658
  262MOL    N6842350   4.534   1.279   2.611 -0.1963 -1.1056  0.3344
  262MOL    H6942351   4.322   1.188   2.485  0.0905 -1.2958  0.3312
  262MOL    H7042352   4.441   1.069   2.473  2.6504 -0.1815 -0.5978
  262MOL    H7142353   4.449   1.379   2.454 -0.3136  0.2297 -0.6484
  262MOL    H7242354   4.586   1.192   2.622  0.7357 -0.7190 -0.8392
  262MOL    H7342355   4.458   1.276   2.677  1.3078 -0.6541  2.1347
  262MOL    C7442356   4.634   1.309   2.378  0.5247  0.0512 -0.4051
  262MOL    C7542357   4.699   1.451   2.395 -0.5633 -0.0764 -0.9296
  262MOL    N7642358   4.840   1.441   2.371  0.4083  0.3873 -0.4745
  262MOL    H7742359   4.704   1.227   2.387  1.0879  0.6744  1.1278
  262MOL    H7842360   4.596   1.317   2.276  2.5763 -1.7710 -1.3361
  262MOL    H7942361   4.684   1.482   2.498  0.3966 -0.5449 -0.6441
  262MOL    H8042362   4.858   1.342   2.372  1.5425  0.5900 -0.5952
  262MOL    H8142363   4.875   1.481   2.285  1.5318 -1.4923 -0.8947
  262MOL    C8242364   4.652   1.567   2.319 -0.4880  0.1968 -0.0724
  262MOL    C8342365   4.510   1.624   2.348 -0.3316  0.2120  0.4625
  262MOL    N8442366   4.504   1.768   2.377 -0.5206  0.2153  0.0013
  262MOL    H8542367   4.726   1.645   2.339 -0.2292  0.3666 -1.6459
  262MOL    H8642368   4.649   1.530   2.217  0.9515  1.9399 -0.7732
  262MOL    H8742369   4.467   1.577   2.437 -1.7204  0.5414 -0.0154
  262MOL    H8842370   4.599   1.801   2.382 -0.8332  1.0486  0.7861
  262MOL    H8942371   4.467   1.824   2.301  2.9534  2.4214 -0.1524
  262MOL    C9042372   4.418   1.596   2.232  0.1723 -0.1144  0.1528
  262MOL    C9142373   4.268   1.647   2.235 -0.1326 -0.0073 -0.8389
  262MOL    N9242374   4.212   1.608   2.107 -0.1802  0.4580  0.2901
  262MOL    H9342375   4.470   1.623   2.141  2.4065 -1.0728  1.1188
  262MOL    H9442376   4.414   1.488   2.218  0.2581  0.0123 -0.8847
  262MOL    H9542377   4.269   1.756   2.237 -1.8030  0.0061 -0.5372
  262MOL    H9642378   4.116   1.594   2.135  0.0748  0.7556  1.3068
  262MOL    H9742379   4.191   1.685   2.044 -2.5773 -0.5030 -0.1511
  262MOL    C9842380   4.178   1.589   2.349  0.5440 -0.3947  0.0265
  262MOL    C9942381   4.029   1.630   2.363  0.8822  0.2163 -0.2265
  262MOL   N10042382   3.949   1.515   2.396  0.4766 -0.1713 -0.3102
  262MOL   H10142383   4.188   1.481   2.341  0.3462 -0.3945 -0.2254
  262MOL   H10242384   4.231   1.606   2.443  0.4653 -0.0686  0.0138
  262MOL   H10342385   3.995   1.664   2.265  1.9435  0.8597 -0.3832
  262MOL   H10442386   3.854   1.538   2.419  0.4621 -0.0763 -0.4641
  262MOL   H10542387   3.939   1.469   2.308 -1.7180 -0.3002 -0.0158
  262MOL   C10642388   4.001   1.739   2.469  0.0131 -0.3556 -0.3141
  262MOL   C10742389   4.095   1.866   2.482  0.2598  0.4733 -0.3333
  262MOL   N10842390   4.014   1.979   2.444 -0.0536 -0.0014  0.8057
  262MOL   H10942391   3.896   1.764   2.460  0.5690  2.9770  1.6224
  262MOL   H11042392   4.007   1.689   2.566  2.3738  1.2708  0.4343
  262MOL   H11142393   4.170   1.853   2.404  0.0883  2.1604 -0.7908
  262MOL   H11242394   4.042   2.073   2.469  1.7842  0.5546 -3.0358
  262MOL   H11342395   4.006   1.986   2.344 -0.4390  0.7928  0.8915
  262MOL   C11442396   4.147   1.884   2.624 -0.4620  0.4458  0.1087
  262MOL   C11542397   4.245   1.775   2.677 -0.4550 -0.6202 -0.0262
  262MOL   N11642398   4.383   1.806   2.643 -0.2288 -0.1248  0.0415
  262MOL   H11742399   4.180   1.988   2.629 -0.3055  0.5111 -1.8646
  262MOL   H11842400   4.061   1.887   2.691 -1.8061 -1.1862 -1.4852
  262MOL   H11942401   4.217   1.682   2.628 -0.5634  0.5215 -2.1496
  262MOL   H12042402   4.393   1.802   2.542 -1.0145 -2.7972  0.0282
  262MOL   H12142403   4.457   1.750   2.682  0.2837  0.7423  0.3283
  262MOL   C12242404   4.228   1.755   2.831  0.2044  0.0705 -1.0100
  262MOL   C12342405   4.138   1.634   2.870  0.4901  0.5273 -0.2432
  262MOL   N12442406   4.196   1.510   2.817 -0.7303 -0.3178  0.2011
  262MOL   H12542407   4.322   1.751   2.886 -1.1117  1.3923  1.4256
  262MOL   H12642408   4.171   1.840   2.867 -2.8087 -1.1443 -2.6559
  262MOL   H12742409   4.039   1.633   2.825  1.2196  1.5468 -1.8946
  262MOL   H12842410   4.227   1.535   2.724 -0.8457  1.0108  0.5104
  262MOL   H12942411   4.284   1.500   2.865 -1.1121  2.9958  1.7228
  262MOL   C13042412   4.134   1.607   3.020  0.2682 -0.0992 -0.0459
  262MOL   C13142413   4.052   1.720   3.090  0.4457  0.4973  0.0428
  262MOL   N13242414   3.958   1.656   3.180  0.3910 -0.5371 -0.2442
  262MOL   H13342415   4.091   1.510   3.045  0.8844  0.1373  1.9544
  262MOL   H13442416   4.233   1.605   3.065 -0.1197 -1.9256  0.7694
  262MOL   H13542417   3.991   1.777   3.020 -1.1703 -0.5674  0.5500
  262MOL   H13642418   3.953   1.729   3.249  2.3613  2.4660 -3.0922
  262MOL   H13742419   4.013   1.579   3.215 -0.7083 -1.1465  0.1683
  262MOL   C13842420   4.140   1.814   3.174 -0.2873 -0.0613 -0.4987
  262MOL   C13942421   4.085   1.944   3.199  0.2161 -0.0013 -0.6003
  262MOL   N14042422   3.991   1.924   3.313 -0.0528  0.1017  0.2900
  262MOL   H14142423   4.156   1.765   3.270  0.2718 -1.9056 -1.5012
  262MOL   H14242424   4.240   1.815   3.130 -0.3976 -0.7483 -0.7836
  262MOL   H14342425   4.031   1.971   3.109  0.6966  0.2985 -0.7991
  262MOL   H14442426   4.040   1.882   3.390  0.5432 -0.9470 -0.6422
  262MOL   H14542427   3.957   2.012   3.349 -0.6093  0.8368 -1.9246
  262MOL   C14642428   4.195   2.052   3.236  0.2710  0.0542  0.1642
  262MOL   C14742429   4.220   2.143   3.115 -0.2563 -0.3784  0.5858
  262MOL   N14842430   4.271   2.269   3.170 -0.7368 -0.3218 -0.5267
  262MOL   H14942431   4.168   2.116   3.320 -0.9990 -2.1691  1.4912
  262MOL   H15042432   4.278   2.002   3.286 -0.0103  0.8370  1.4372
  262MOL   H15142433   4.127   2.163   3.061  0.5048 -0.1728 -0.6502
  262MOL   H15242434   4.282   2.341   3.100 -1.4442 -0.0129 -0.3186
  262MOL   H15342435   4.200   2.311   3.228  1.5948  1.7635  0.9340
  262MOL   C15442436   4.320   2.079   3.010  0.0764  0.2318  0.4231
  262MOL   C15542437   4.309   2.132   2.869  0.0650  0.3335 -0.0829
  262MOL   N15642438   4.425   2.083   2.791  0.2627  0.1843  0.0524
  262MOL   H15742439   4.420   2.104   3.045 -0.4006  0.7982  1.3870
  262MOL   H15842440   4.311   1.970   3.006  0.5341  0.2498 -1.6909
  262MOL   H15942441   4.332   2.238   2.854  0.6138 -0.1914 -3.2951
  262MOL   H16042442   4.400   1.986   2.780  1.6400 -0.0640 -0.9251
  262MOL   H16142443   4.419   2.128   2.701 -1.8986 -1.1728 -0.5201
  262MOL   H16242444   4.221   2.110   2.809  0.1921  0.2620 -0.2446
  263MOL     C142445   6.170   2.041   3.270  0.7226 -0.0884  0.4878
  263MOL     C242446   6.035   2.010   3.209  0.4263 -1.2083 -0.1310
  263MOL     N342447   5.954   2.134   3.229  0.1901 -0.0057 -0.5081
  263MOL     H442448   6.165   2.045   3.379  0.5888  0.3038  0.4682
  263MOL     H542449   6.218   2.125   3.221  2.7120  0.6383  3.5363
  263MOL     H642450   5.983   1.927   3.256  0.1224 -0.3059  1.1668
  263MOL     H742451   5.985   2.202   3.162 -0.4481  0.6499 -0.1456
  263MOL     H842452   5.968   2.172   3.322 -1.4439 -1.5544  0.4070
  263MOL     H942453   6.246   1.967   3.245  1.2002  0.9274 -1.1267
  263MOL    C1042454   6.040   1.971   3.061 -0.1002 -0.1445  1.2861
  263MOL    C1142455   5.904   1.933   2.997 -0.0375  0.8431 -0.0383
  263MOL    N1242456   5.830   2.052   2.958 -0.5371 -0.6704  0.2210
  263MOL    H1342457   6.084   2.046   2.996  1.3519 -2.1764 -0.1480
  263MOL    H1442458   6.111   1.888   3.055  1.1246  1.0293 -0.9601
  263MOL    H1542459   5.853   1.893   3.084  0.4989 -0.2465 -0.2131
  263MOL    H1642460   5.845   2.114   3.037 -1.0722 -0.0743 -0.1391
  263MOL    H1742461   5.886   2.100   2.890 -1.2524  0.0467  0.1196
  263MOL    C1842462   5.894   1.828   2.882 -0.0698 -0.1195 -0.8369
  263MOL    C1942463   5.871   1.682   2.918  0.1547 -0.2221 -0.7334
  263MOL    N2042464   5.868   1.606   2.792  0.3116  0.2335 -0.6338
  263MOL    H2142465   5.810   1.860   2.820 -1.6377 -0.3538  1.0952
  263MOL    H2242466   5.983   1.840   2.821  1.2745 -0.0679  1.0661
  263MOL    H2342467   5.770   1.682   2.958  0.9156  0.5016  1.2353
  263MOL    H2442468   5.801   1.659   2.739  0.0352  0.9033  0.3841
  263MOL    H2542469   5.830   1.512   2.799  0.3798  0.3110  0.9497
  263MOL    C2642470   5.970   1.615   3.015  0.5907  0.5476  0.5497
  263MOL    C2742471   5.932   1.478   3.084  0.3165  0.0679  0.7026
  263MOL    N2842472   6.049   1.424   3.145  0.2535 -0.7404  0.9102
  263MOL    H2942473   6.065   1.614   2.961  1.5946 -2.2050  2.2843
  263MOL    H3042474   5.994   1.690   3.091 -1.1499  0.5211  1.1296
  263MOL    H3142475   5.903   1.416   2.999 -0.4006  2.5363 -0.9388
  263MOL    H3242476   6.137   1.460   3.112  1.2385 -1.1433  2.9925
  263MOL    H3342477   6.028   1.450   3.241 -0.5294 -1.9924  1.0804
  263MOL    C3442478   5.821   1.482   3.186  0.9035  0.4790  0.2799
  263MOL    C3542479   5.699   1.393   3.161  0.0072 -0.2140  0.2594
  263MOL    N3642480   5.745   1.261   3.166 -0.0817 -0.3885  0.4151
  263MOL    H3742481   5.854   1.461   3.288 -2.6188 -1.4856  1.1274
  263MOL    H3842482   5.775   1.581   3.190  1.7344  0.9465 -1.2735
  263MOL    H3942483   5.658   1.403   3.060 -1.5209 -0.6641  0.8298
  263MOL    H4042484   5.844   1.262   3.146 -0.3896 -1.8976 -1.2515
  263MOL    H4142485   5.706   1.201   3.094  0.0191  2.1791 -1.8398
  263MOL    C4242486   5.577   1.417   3.260  0.1992  0.3459  0.4240
  263MOL    C4342487   5.443   1.344   3.230  0.4023  0.7125 -0.4050
  263MOL    N4442488   5.373   1.331   3.353  0.3013 -0.1612  0.2403
  263MOL    H4542489   5.606   1.400   3.363  1.8295 -0.7054 -0.1881
  263MOL    H4642490   5.554   1.523   3.252 -1.9271 -0.1358 -0.3444
  263MOL    H4742491   5.474   1.243   3.202  0.5191  0.4206  0.7381
  263MOL    H4842492   5.299   1.264   3.337  0.9307 -0.7398 -0.2683
  263MOL    H4942493   5.440   1.283   3.410  1.4980  0.2410 -0.8124
  263MOL    C5042494   5.344   1.403   3.122 -0.1614  0.2956 -0.1985
  263MOL    C5142495   5.374   1.371   2.978 -0.0006 -0.0753  0.2810
  263MOL    N5242496   5.321   1.240   2.943 -0.2513  0.2542  0.1059
  263MOL    H5342497   5.241   1.369   3.136 -0.5548  0.6406 -2.0584
  263MOL    H5442498   5.347   1.511   3.128  0.4834  0.2594  0.1870
  263MOL    H5542499   5.483   1.370   2.982  0.0427 -0.0255 -0.8089
  263MOL    H5642500   5.394   1.190   2.894 -1.1237 -0.6375 -0.3213
  263MOL    H5742501   5.313   1.189   3.030 -1.4061  0.2082 -0.0268
  263MOL    C5842502   5.308   1.471   2.887  1.0449 -0.1061 -0.3338
  263MOL    C5942503   5.351   1.475   2.745 -0.6451 -0.6902  0.3855
  263MOL    N6042504   5.248   1.545   2.663 -0.1022 -0.8486 -0.5435
  263MOL    H6142505   5.199   1.463   2.889  0.7901  2.4450 -1.7956
  263MOL    H6242506   5.329   1.570   2.927  1.5006 -0.7404  1.0414
  263MOL    H6342507   5.356   1.374   2.704  1.6415 -0.1912 -0.6862
  263MOL    H6442508   5.218   1.639   2.687  1.1005 -0.4108 -0.7052
  263MOL    H6542509   5.165   1.487   2.661 -0.9143  0.2946 -2.4923
  263MOL    C6642510   5.484   1.560   2.742  0.1384 -0.1080  0.2295
  263MOL    C6742511   5.558   1.562   2.607  0.4150 -0.8713  0.4013
  263MOL    N6842512   5.642   1.681   2.604 -0.0523  0.0483 -0.6367
  263MOL    H6942513   5.460   1.666   2.757 -3.1638 -0.6087 -1.1636
  263MOL    H7042514   5.557   1.539   2.820  0.8418  1.3575 -0.0053
  263MOL    H7142515   5.488   1.576   2.526  0.5840  1.6448  0.6725
  263MOL    H7242516   5.652   1.699   2.505  1.6729  0.3020 -0.4194
  263MOL    H7342517   5.569   1.747   2.630  0.6336  0.0994  1.2343
  263MOL    C7442518   5.651   1.441   2.569 -0.0950  0.1193 -0.2973
  263MOL    C7542519   5.582   1.306   2.544 -0.2809 -0.1882  0.0838
  263MOL    N7642520   5.477   1.333   2.450  0.1827  0.5044  0.1467
  263MOL    H7742521   5.708   1.461   2.479 -0.8219 -1.3502 -1.0970
  263MOL    H7842522   5.720   1.423   2.652 -0.1677 -1.4823 -0.5799
  263MOL    H7942523   5.533   1.269   2.634 -2.4020  1.7559 -0.2443
  263MOL    H8042524   5.515   1.366   2.362  1.5556  0.0080  0.5386
  263MOL    H8142525   5.407   1.399   2.482 -1.2252  0.1265 -1.9884
  263MOL    C8242526   5.671   1.195   2.487  0.3687 -0.3541  0.6607
  263MOL    C8342527   5.805   1.166   2.564  0.5430 -0.0248  0.4516
  263MOL    N8442528   5.800   1.030   2.617  0.7022 -0.5504  0.1288
  263MOL    H8542529   5.609   1.106   2.481  2.0606 -1.5192  0.2782
  263MOL    H8642530   5.700   1.219   2.385 -0.1367 -0.9105  0.3844
  263MOL    H8742531   5.815   1.235   2.648 -1.0218  0.5321  0.1923
  263MOL    H8842532   5.727   1.034   2.686  0.8174  0.3831  0.2082
  263MOL    H8942533   5.761   0.970   2.545  2.2136  0.0805 -1.2629
  263MOL    C9042534   5.933   1.177   2.494 -0.1136 -0.4013 -0.0015
  263MOL    C9142535   6.057   1.163   2.580 -0.4081 -0.1521 -0.3587
  263MOL    N9242536   6.167   1.165   2.482 -0.3808  0.1175 -0.1816
  263MOL    H9342537   5.934   1.115   2.405  0.9803  0.4378 -0.5893
  263MOL    H9442538   5.924   1.273   2.443  0.5628 -0.4686 -0.2554
  263MOL    H9542539   6.041   1.069   2.632 -1.3669 -0.9330 -2.0455
  263MOL    H9642540   6.119   1.113   2.410  1.9520 -1.4042 -0.6743
  263MOL    H9742541   6.241   1.098   2.499  1.1053  1.9108  0.5198
  263MOL    C9842542   6.082   1.276   2.681  0.4523  0.7307  0.4124
  263MOL    C9942543   6.204   1.275   2.767 -0.0011  0.4148  0.7677
  263MOL   N10042544   6.197   1.378   2.876  0.0265 -0.3424  0.1757
  263MOL   H10142545   6.085   1.364   2.617  1.3198  0.5702  0.2228
  263MOL   H10242546   5.996   1.290   2.747 -2.6959 -0.9120 -3.1286
  263MOL   H10342547   6.298   1.294   2.715 -0.4936  1.0930  0.1041
  263MOL   H10442548   6.149   1.338   2.956  0.4099 -1.6185 -0.2163
  263MOL   H10542549   6.134   1.451   2.847 -0.7277 -1.6307 -1.4659
  263MOL   C10642550   6.234   1.138   2.831 -0.6471  0.4782  0.3407
  263MOL   C10742551   6.376   1.135   2.891 -0.1099  0.2515  0.3895
  263MOL   N10842552   6.379   1.025   2.988  0.4633  0.2548  0.2546
  263MOL   H10942553   6.157   1.125   2.907 -2.6877  2.5535 -1.2913
  263MOL   H11042554   6.230   1.063   2.752  0.9520  1.4351 -0.6878
  263MOL   H11142555   6.387   1.226   2.949  0.1551  0.3244  0.2217
  263MOL   H11242556   6.362   0.936   2.942  0.5097 -0.3742  1.4413
  263MOL   H11342557   6.464   1.008   3.039 -0.0623  1.1741  1.4651
  263MOL   C11442558   6.499   1.113   2.796  0.3630  0.4575 -0.1565
  263MOL   C11542559   6.631   1.088   2.870 -0.6700  0.1881 -0.0613
  263MOL   N11642560   6.740   1.067   2.772 -0.3668  0.7120 -0.7437
  263MOL   H11742561   6.477   1.027   2.733 -2.0415  0.2064  0.9556
  263MOL   H11842562   6.488   1.201   2.733 -0.0427  0.4525 -0.0945
  263MOL   H11942563   6.622   0.990   2.916 -3.5954  0.7780  0.7528
  263MOL   H12042564   6.736   1.125   2.690 -2.3532  0.7608 -0.6530
  263MOL   H12142565   6.716   0.975   2.737 -0.5946  0.5862 -0.2626
  263MOL   C12242566   6.680   1.205   2.960  0.6497 -0.2796  0.2235
  263MOL   C12342567   6.744   1.157   3.087 -0.4817  0.5791 -0.1394
  263MOL   N12442568   6.870   1.084   3.053  0.2781 -0.2946 -0.0807
  263MOL   H12542569   6.730   1.286   2.907 -1.0903  0.8626  0.2904
  263MOL   H12642570   6.591   1.256   2.998  0.7510  1.6101 -1.9870
  263MOL   H12742571   6.686   1.084   3.143 -2.1223 -0.9483 -3.6839
  263MOL   H12842572   6.948   1.148   3.061  0.3105 -0.2785 -0.5040
  263MOL   H12942573   6.852   1.081   2.953 -1.7554  0.1888  0.2406
  263MOL   C13042574   6.779   1.284   3.179 -0.2468  0.8159  0.7800
  263MOL   C13142575   6.661   1.354   3.247  0.0624 -0.1822 -0.1527
  263MOL   N13242576   6.706   1.403   3.376 -0.7757  0.0722 -0.5076
  263MOL   H13342577   6.839   1.233   3.253  0.8354  0.8484 -0.0584
  263MOL   H13442578   6.840   1.353   3.120 -1.2174  0.4877 -0.6212
  263MOL   H13542579   6.591   1.273   3.266 -0.3091  0.6448  2.2036
  263MOL   H13642580   6.627   1.455   3.411 -0.8363 -0.3899  0.0474
  263MOL   H13742581   6.770   1.473   3.340  0.6500 -1.6393 -1.4233
  263MOL   C13842582   6.606   1.480   3.181  0.2856  0.0489 -0.0006
  263MOL   C13942583   6.452   1.477   3.142  0.2555 -0.2491  0.2909
  263MOL   N14042584   6.377   1.469   3.264 -0.1062  0.1690 -0.0734
  263MOL   H14142585   6.624   1.573   3.236 -2.5482  0.6382  0.0118
  263MOL   H14242586   6.656   1.499   3.086  0.2995  2.0339  0.3852
  263MOL   H14342587   6.418   1.395   3.079  1.5847 -0.3297 -0.3524
  263MOL   H14442588   6.430   1.511   3.339  0.7153  2.4620 -1.8836
  263MOL   H14542589   6.379   1.372   3.294  2.3084 -0.0143 -0.6559
  263MOL   C14642590   6.414   1.615   3.084  0.0507  0.7566  0.5640
  263MOL   C14742591   6.485   1.674   2.956 -0.1055  0.0745  0.6551
  263MOL   N14842592   6.480   1.565   2.860  0.1438  0.6669 -0.3163
  263MOL   H14942593   6.308   1.633   3.067 -0.0088 -1.6596 -1.9356
  263MOL   H15042594   6.420   1.699   3.153  0.2147  0.9830  0.2748
  263MOL   H15142595   6.590   1.696   2.978 -0.0324  0.0256  0.3558
  263MOL   H15242596   6.386   1.532   2.846  0.2186  0.1680  0.3610
  263MOL   H15342597   6.499   1.609   2.771 -0.7116  2.4597  0.3579
  263MOL   C15442598   6.420   1.811   2.901 -0.2744 -0.0746  0.0485
  263MOL   C15542599   6.428   1.940   2.986  0.7828  0.8250  0.1044
  263MOL   N15642600   6.355   2.053   2.932  0.1104 -0.4776  0.2076
  263MOL   H15742601   6.462   1.855   2.811 -2.0308  2.8823  0.5978
  263MOL   H15842602   6.315   1.790   2.878 -0.3225 -0.4240  0.5658
  263MOL   H15942603   6.528   1.980   2.998  1.8115 -1.7806  0.4588
  263MOL   H16042604   6.410   2.101   2.862  0.7839 -0.0849  0.9996
  263MOL   H16142605   6.281   2.017   2.873 -0.0655 -0.9134  0.6908
  263MOL   H16242606   6.378   1.929   3.083  2.6224 -1.7042  0.7922
  264MOL     C142607   2.100   2.588   1.879  0.3791 -1.0446  0.1751
  264MOL     C242608   1.984   2.617   1.786 -0.6443  0.5478 -0.1183
  264MOL     N342609   2.045   2.624   1.656 -0.4948  0.4017  0.1646
  264MOL     H442610   2.187   2.654   1.878  1.0741 -1.9415 -1.2253
  264MOL     H542611   2.148   2.497   1.842 -0.0443 -1.4287  0.5719
  264MOL     H642612   1.963   2.720   1.814 -0.0830  0.3921  0.9318
  264MOL     H742613   2.118   2.694   1.663  0.0590 -0.3004  1.5128
  264MOL     H842614   1.975   2.672   1.600 -0.6576  2.3065  1.9623
  264MOL     H942615   2.056   2.569   1.976 -0.1619 -2.0939 -0.2703
  264MOL    C1042616   1.862   2.518   1.784 -0.6385  0.1050 -0.5085
  264MOL    C1142617   1.776   2.521   1.910  1.0332 -0.2536  0.7625
  264MOL    N1242618   1.647   2.580   1.873 -0.1079 -0.4619 -0.0600
  264MOL    H1342619   1.803   2.531   1.694 -1.5627 -0.7682 -0.0379
  264MOL    H1442620   1.902   2.416   1.781 -1.5590 -0.3640  1.9882
  264MOL    H1542621   1.804   2.598   1.982 -0.4072  0.3123  0.7325
  264MOL    H1642622   1.596   2.518   1.812 -0.1342 -1.9182  1.4068
  264MOL    H1742623   1.591   2.602   1.954 -0.0083 -2.6234  0.6288
  264MOL    C1842624   1.756   2.393   1.985 -0.3599 -0.4429  0.0550
  264MOL    C1942625   1.733   2.399   2.140  0.1918 -0.0365 -0.1970
  264MOL    N2042626   1.715   2.264   2.191  0.0418  0.3296 -0.1329
  264MOL    H2142627   1.678   2.340   1.930 -1.6060  0.5889  0.8034
  264MOL    H2242628   1.844   2.330   1.972  1.2574  1.5647  0.9940
  264MOL    H2342629   1.635   2.445   2.150 -0.3956 -1.2683 -0.1533
  264MOL    H2442630   1.802   2.212   2.192 -0.1792 -0.0366  2.3469
  264MOL    H2542631   1.694   2.278   2.289 -0.9689  2.6675 -0.6494
  264MOL    C2642632   1.849   2.474   2.220 -0.5034  0.4170  0.4159
  264MOL    C2742633   1.806   2.616   2.260 -0.0456  0.1966  0.5240
  264MOL    N2842634   1.727   2.612   2.383 -0.3126 -0.4360  0.0149
  264MOL    H2942635   1.889   2.414   2.302 -0.2007  0.1766  0.0941
  264MOL    H3042636   1.934   2.485   2.152 -0.5794  0.0064  0.2501
  264MOL    H3142637   1.740   2.666   2.189  1.4157  0.3148 -0.7747
  264MOL    H3242638   1.796   2.585   2.452  0.4356  3.8463  1.1179
  264MOL    H3342639   1.666   2.532   2.379 -1.6796  0.6660 -3.9889
  264MOL    C3442640   1.923   2.699   2.299 -0.6116 -0.1465  0.5355
  264MOL    C3542641   1.892   2.846   2.303  0.4541  0.1730  0.7478
  264MOL    N3642642   1.998   2.904   2.384 -0.5647  0.1132  0.2905
  264MOL    H3742643   1.966   2.658   2.390 -2.6019 -5.0799 -0.6086
  264MOL    H3842644   2.006   2.683   2.229  1.1345  2.2169  1.9938
  264MOL    H3942645   1.803   2.866   2.363 -1.0585  0.7899 -1.6581
  264MOL    H4042646   2.090   2.890   2.344 -0.6187  0.3390  0.0920
  264MOL    H4142647   1.995   2.842   2.464 -0.0530 -0.4372 -0.1111
  264MOL    C4242648   1.874   2.909   2.164 -0.3167 -0.5381 -0.4537
  264MOL    C4342649   1.756   3.007   2.150  0.9151  0.8314 -0.2343
  264MOL    N4442650   1.770   3.095   2.031  0.1630 -0.0648  0.0698
  264MOL    H4542651   1.962   2.966   2.136 -2.1806  1.4341 -2.5412
  264MOL    H4642652   1.862   2.828   2.091  0.5907 -0.7217 -0.4072
  264MOL    H4742653   1.759   3.068   2.240 -1.2261  2.1127 -0.9942
  264MOL    H4842654   1.747   3.038   1.951 -0.9122 -2.2933  1.9056
  264MOL    H4942655   1.869   3.111   2.030 -0.0329  1.2144 -0.2384
  264MOL    C5042656   1.616   2.935   2.153 -0.3489  0.2685  0.5468
  264MOL    C5142657   1.495   3.038   2.155  0.2760  0.0132 -0.5921
  264MOL    N5242658   1.479   3.105   2.024  0.4920  0.2901 -0.5375
  264MOL    H5342659   1.603   2.853   2.083  0.8603  0.5482 -0.0167
  264MOL    H5442660   1.611   2.876   2.244 -0.3415 -2.7553 -1.3775
  264MOL    H5542661   1.493   3.114   2.233  0.2568 -0.1033 -0.4791
  264MOL    H5642662   1.435   3.196   2.020  1.5948  0.8197 -1.0181
  264MOL    H5742663   1.578   3.117   2.005  0.6412 -1.0241 -0.6072
  264MOL    C5842664   1.371   2.956   2.192  0.5650 -0.3345  0.2108
  264MOL    C5942665   1.360   2.910   2.341 -0.8212  0.3367  0.2209
  264MOL    N6042666   1.359   3.026   2.428 -0.1655  0.1848 -0.8278
  264MOL    H6142667   1.281   3.005   2.156  1.2084  0.5707 -0.1723
  264MOL    H6242668   1.378   2.869   2.126  1.7610 -0.7781  0.9089
  264MOL    H6342669   1.445   2.845   2.358  0.3171  1.1299 -2.2283
  264MOL    H6442670   1.415   3.107   2.405  0.4597 -0.3387 -1.1533
  264MOL    H6542671   1.389   2.990   2.518  1.8026  1.7338 -0.8394
  264MOL    C6642672   1.227   2.843   2.375 -0.3298  0.3402  0.0383
  264MOL    C6742673   1.202   2.702   2.312 -0.0007  0.8576 -0.0556
  264MOL    N6842674   1.301   2.613   2.387  0.5765 -0.1133  0.6466
  264MOL    H6942675   1.198   2.847   2.480 -0.0786 -0.9012  0.1654
  264MOL    H7042676   1.166   2.914   2.320 -1.0203 -0.2335  0.0588
  264MOL    H7142677   1.223   2.695   2.205  3.1802  0.5708  0.5268
  264MOL    H7242678   1.370   2.668   2.437  0.2352 -0.7190  1.7989
  264MOL    H7342679   1.237   2.588   2.461  1.9079  2.8504  2.8953
  264MOL    C7442680   1.055   2.653   2.336  0.0364 -0.0228  0.1440
  264MOL    C7542681   0.995   2.581   2.218 -0.7559 -0.4269  0.4524
  264MOL    N7642682   0.885   2.490   2.254  0.0500 -0.3173  0.8156
  264MOL    H7742683   1.062   2.589   2.424 -0.5098 -0.6845 -0.2920
  264MOL    H7842684   0.983   2.732   2.357  1.1242  0.7355  1.0393
  264MOL    H7942685   1.074   2.515   2.183 -0.8049 -0.7603  0.9558
  264MOL    H8042686   0.877   2.432   2.171  1.7279  0.0433  0.3760
  264MOL    H8142687   0.910   2.422   2.324 -0.1902 -1.1210  0.1326
  264MOL    C8242688   0.946   2.674   2.103 -0.0368 -0.9687  0.3820
  264MOL    C8342689   1.034   2.789   2.037 -0.1094  0.3898  0.4685
  264MOL    N8442690   1.134   2.732   1.945 -0.4031 -0.1411  0.2143
  264MOL    H8542691   0.910   2.608   2.025 -2.2103  2.2486 -1.4651
  264MOL    H8642692   0.850   2.715   2.136 -0.9954 -2.4148 -0.5930
  264MOL    H8742693   1.077   2.839   2.124  0.9933 -0.1433  0.2383
  264MOL    H8842694   1.204   2.802   1.927 -1.3650  0.6623 -0.4494
  264MOL    H8942695   1.080   2.705   1.863 -1.3894 -0.5958  1.0061
  264MOL    C9042696   0.939   2.887   1.963 -0.6605 -0.2804  0.0250
  264MOL    C9142697   0.992   3.040   1.955 -0.5328  0.2132 -0.2890
  264MOL    N9242698   0.916   3.099   1.853 -0.3493  0.2232 -0.5452
  264MOL    H9342699   0.913   2.854   1.862  0.5557  1.2693 -0.8220
  264MOL    H9442700   0.844   2.888   2.016  0.0038  1.9643  1.2628
  264MOL    H9542701   1.095   3.037   1.920 -0.6057  1.0932 -0.5914
  264MOL    H9642702   0.974   3.157   1.794 -0.6431 -0.2125 -1.2669
  264MOL    H9742703   0.847   3.160   1.895 -0.2423 -0.3643  0.5151
  264MOL    C9842704   0.977   3.110   2.088  0.5300 -0.6980 -0.4725
  264MOL    C9942705   1.035   3.254   2.086 -0.0901 -0.4305 -0.7107
  264MOL   N10042706   0.989   3.331   2.200 -0.2026 -0.3722 -0.1010
  264MOL   H10142707   0.873   3.136   2.107  0.3234 -1.9446  0.1369
  264MOL   H10242708   1.017   3.060   2.176  2.8031  1.4597 -0.2093
  264MOL   H10342709   1.000   3.299   1.993  1.6791  1.0415 -0.6706
  264MOL   H10442710   0.889   3.342   2.208 -0.2683 -1.7137  0.9891
  264MOL   H10542711   1.005   3.286   2.288 -0.3928 -0.8760 -0.3258
  264MOL   C10642712   1.190   3.260   2.080 -0.1227 -0.1205 -0.5583
  264MOL   C10742713   1.246   3.404   2.054  0.5189  0.2539  0.0697
  264MOL   N10842714   1.390   3.412   2.066 -0.2064 -0.1247  0.3690
  264MOL   H10942715   1.237   3.220   2.170 -0.8589 -0.1200 -0.1606
  264MOL   H11042716   1.216   3.199   1.993 -0.5875  0.4053 -1.0662
  264MOL   H11142717   1.202   3.477   2.122  2.0717  1.7728 -0.5340
  264MOL   H11242718   1.404   3.396   2.165 -3.0177 -0.0876  0.8219
  264MOL   H11342719   1.410   3.509   2.048 -0.8106 -0.1759 -0.5981
  264MOL   C11442720   1.222   3.453   1.919  0.3847 -0.5180 -0.1804
  264MOL   C11542721   1.247   3.608   1.904 -0.3497  0.6420 -0.2203
  264MOL   N11642722   1.241   3.634   1.758  0.4631  0.2728  0.5823
  264MOL   H11742723   1.286   3.389   1.857  0.1935  0.1604 -1.0815
  264MOL   H11842724   1.118   3.439   1.893 -0.0041  2.5052 -0.4152
  264MOL   H11942725   1.346   3.649   1.928 -1.1089  2.2611  0.2344
  264MOL   H12042726   1.238   3.735   1.754 -0.5365  0.3357  2.4456
  264MOL   H12142727   1.334   3.614   1.725  0.3007 -1.5635  1.1510
  264MOL   C12242728   1.124   3.687   1.967  0.2470  0.3610 -0.4928
  264MOL   C12342729   1.177   3.820   2.032  0.5536 -0.2409 -0.5494
  264MOL   N12442730   1.151   3.934   1.939  0.0534 -0.2033  0.0141
  264MOL   H12542731   1.048   3.710   1.893  0.3985  0.8876 -0.4869
  264MOL   H12642732   1.069   3.635   2.045  2.8355 -0.0621  1.1251
  264MOL   H12742733   1.278   3.796   2.064 -0.5616 -0.6870  2.7907
  264MOL   H12842734   1.230   3.949   1.877 -0.7616  0.8638 -0.7808
  264MOL   H12942735   1.075   3.908   1.879 -1.5314  2.1267  0.9475
  264MOL   C13042736   1.096   3.859   2.160 -1.0666  0.0175  0.3552
  264MOL   C13142737   1.111   3.764   2.278 -0.4332 -0.5707  0.0350
  264MOL   N13242738   1.246   3.779   2.334 -0.3039 -0.1953 -0.8723
  264MOL   H13342739   1.119   3.958   2.200  0.9320  0.4733 -1.8530
  264MOL   H13442740   0.993   3.875   2.127 -0.9027  1.0810  0.3170
  264MOL   H13542741   1.119   3.661   2.242 -0.6605 -0.4431 -0.3819
  264MOL   H13642742   1.273   3.685   2.357  1.4495  0.9099  1.8530
  264MOL   H13742743   1.311   3.808   2.262 -1.4654  1.0292 -1.4581
  264MOL   C13842744   1.011   3.780   2.394  0.4032 -0.2899  0.3923
  264MOL   C13942745   0.869   3.734   2.373  0.9393  0.3465  0.8371
  264MOL   N14042746   0.878   3.585   2.347 -0.3116 -0.1360 -0.2123
  264MOL   H14142747   1.047   3.726   2.481 -1.4441 -0.2781  1.1760
  264MOL   H14242748   1.018   3.884   2.427 -1.3397  0.3051 -1.0046
  264MOL   H14342749   0.840   3.793   2.286  0.4434 -1.0345  0.0473
  264MOL   H14442750   0.934   3.555   2.268 -2.2172 -1.6275 -1.0444
  264MOL   H14542751   0.785   3.547   2.338 -0.0983  0.0050 -3.7179
  264MOL   C14642752   0.767   3.770   2.486 -0.7988 -0.3764 -0.3812
  264MOL   C14742753   0.689   3.907   2.466 -0.0415 -0.3077  0.5498
  264MOL   N14842754   0.602   3.925   2.572  0.4347 -0.8194 -0.8159
  264MOL   H14942755   0.695   3.688   2.493 -0.9994 -0.2509 -1.0012
  264MOL   H15042756   0.825   3.771   2.578 -0.6097 -2.2336 -0.4600
  264MOL   H15142757   0.624   3.881   2.382 -1.4950  0.9032  1.2653
  264MOL   H15242758   0.647   3.950   2.659  1.0030 -3.0213 -0.4618
  264MOL   H15342759   0.554   3.842   2.603  1.8891 -0.0085  3.9134
  264MOL   C15442760   0.762   4.036   2.424  0.4760 -1.0085 -0.6671
  264MOL   C15542761   0.784   4.057   2.268  0.3336 -0.0416 -0.1352
  264MOL   N15642762   0.841   4.190   2.229 -0.2015 -0.0168 -0.0246
  264MOL   H15742763   0.695   4.119   2.444  0.8383 -0.4476 -1.7523
  264MOL   H15842764   0.855   4.059   2.477 -0.0596 -0.4886  0.0553
  264MOL   H15942765   0.695   4.033   2.210  1.5533 -0.2314 -1.9792
  264MOL   H16042766   0.912   4.175   2.159  1.2901  0.0550  1.4379
  264MOL   H16142767   0.896   4.232   2.302  1.7288 -1.7373 -0.4548
  264MOL   H16242768   0.861   3.985   2.240  1.7991  1.1941  0.6385
  265MOL     C142769   1.112   6.771   2.186 -0.0286 -0.0299  0.4902
  265MOL     C242770   1.214   6.741   2.075  0.1630  0.4700  0.0450
  265MOL     N342771   1.166   6.811   1.960 -0.0677  0.2794 -0.2289
  265MOL     H442772   1.005   6.756   2.166 -0.0166 -0.1422  0.5080
  265MOL     H542773   1.116   6.875   2.219  0.5020 -0.4418  1.7293
  265MOL     H642774   1.195   6.636   2.055  1.9748  0.5290 -2.1230
  265MOL     H742775   1.225   6.790   1.881  0.7225  2.6129 -0.2999
  265MOL     H842776   1.084   6.755   1.943  0.8998 -1.0532 -0.5468
  265MOL     H942777   1.138   6.713   2.274 -0.1045  0.8521  1.0995
  265MOL    C1042778   1.366   6.768   2.117 -0.3003  0.0316  0.3442
  265MOL    C1142779   1.444   6.634   2.106  0.2319  0.0227  0.1239
  265MOL    N1242780   1.583   6.676   2.091 -0.0490  0.6808 -0.0773
  265MOL    H1342781   1.408   6.852   2.062  0.4061  0.0589  0.9214
  265MOL    H1442782   1.365   6.803   2.221  0.6968 -0.2937  0.4633
  265MOL    H1542783   1.419   6.592   2.008 -1.6425  1.3089  0.0400
  265MOL    H1642784   1.570   6.772   2.061  1.8514  0.6855 -1.0022
  265MOL    H1742785   1.619   6.626   2.011  0.2830  0.4196  0.2310
  265MOL    C1842786   1.421   6.541   2.230 -0.0730  0.6914 -0.3171
  265MOL    C1942787   1.480   6.402   2.208  0.3375 -0.5292 -0.5537
  265MOL    N2042788   1.458   6.325   2.329 -0.2557 -0.2645 -0.4149
  265MOL    H2142789   1.466   6.589   2.317 -0.7686 -0.0270  0.4433
  265MOL    H2242790   1.314   6.527   2.242  0.4523 -2.4012  1.1540
  265MOL    H2342791   1.587   6.406   2.190  0.3843  0.1543 -0.1284
  265MOL    H2442792   1.489   6.374   2.412  0.0969  0.5376 -1.0237
  265MOL    H2542793   1.529   6.255   2.313 -0.7426 -0.3997 -2.0970
  265MOL    C2642794   1.426   6.318   2.087 -0.1972  0.1423 -0.4323
  265MOL    C2742795   1.484   6.175   2.074 -0.1926 -1.1424  0.0936
  265MOL    N2842796   1.378   6.084   2.091  0.3253  0.3579  0.6013
  265MOL    H2942797   1.318   6.321   2.102 -0.2385 -1.8934 -0.1401
  265MOL    H3042798   1.432   6.371   1.993 -1.2783 -0.6519 -0.9631
  265MOL    H3142799   1.547   6.153   2.161 -0.2397 -0.4090  0.3223
  265MOL    H3242800   1.327   6.108   2.175 -2.3561  0.3584 -0.9772
  265MOL    H3342801   1.306   6.095   2.021  0.7573 -0.7036 -0.0146
  265MOL    C3442802   1.565   6.148   1.942 -0.1202 -0.0736  0.3592
  265MOL    C3542803   1.679   6.244   1.917 -0.2975 -0.2450  0.3340
  265MOL    N3642804   1.782   6.237   2.016  0.2156  0.1610  0.6776
  265MOL    H3742805   1.612   6.050   1.944  2.0358  0.9558  0.7201
  265MOL    H3842806   1.499   6.155   1.855 -0.4295 -0.7802  0.5274
  265MOL    H3942807   1.642   6.347   1.914  0.3680 -0.0178 -0.3157
  265MOL    H4042808   1.807   6.334   2.031  0.5901  0.3247 -0.9251
  265MOL    H4142809   1.742   6.213   2.106 -0.4542  0.3887  0.4403
  265MOL    C4242810   1.740   6.208   1.781 -0.2446 -0.0603 -0.1915
  265MOL    C4342811   1.685   6.271   1.649 -0.5618  0.3090  0.0740
  265MOL    N4442812   1.622   6.166   1.571  1.0109  0.2595  0.0951
  265MOL    H4542813   1.840   6.252   1.785  0.3372 -1.4158  0.1971
  265MOL    H4642814   1.754   6.101   1.769 -1.4151  0.0395 -2.9946
  265MOL    H4742815   1.770   6.301   1.588 -0.5345 -0.9808 -0.5454
  265MOL    H4842816   1.527   6.145   1.598  0.5587  1.1185 -0.7811
  265MOL    H4942817   1.670   6.077   1.568 -0.6668 -0.6227 -2.2272
  265MOL    C5042818   1.584   6.394   1.655 -0.0107  0.3517 -0.3791
  265MOL    C5142819   1.554   6.462   1.522  0.1255 -0.6760 -0.3875
  265MOL    N5242820   1.423   6.536   1.521 -0.3099 -0.5557  0.0948
  265MOL    H5342821   1.498   6.360   1.712  1.0003  2.8212  2.7532
  265MOL    H5442822   1.625   6.462   1.730  1.2105 -0.7682 -0.0306
  265MOL    H5542823   1.543   6.376   1.455 -2.5256 -1.2918  0.7659
  265MOL    H5642824   1.383   6.550   1.429  1.3368  1.1493 -0.4104
  265MOL    H5742825   1.356   6.478   1.569  1.0427  0.1949  2.9987
  265MOL    C5842826   1.668   6.555   1.467 -0.4467 -0.0345 -0.5470
  265MOL    C5942827   1.632   6.612   1.328  0.0092 -0.1035 -0.4637
  265MOL    N6042828   1.740   6.707   1.298 -0.2464 -0.3631 -0.3493
  265MOL    H6142829   1.685   6.629   1.545  1.8314  1.3215 -2.2939
  265MOL    H6242830   1.762   6.501   1.456  0.8694  2.0469  0.2704
  265MOL    H6342831   1.541   6.672   1.326 -0.3128 -0.4383  2.3031
  265MOL    H6442832   1.742   6.787   1.360 -2.0558 -0.9059  0.4545
  265MOL    H6542833   1.723   6.751   1.209  3.1597 -2.1623 -2.0131
  265MOL    C6642834   1.631   6.506   1.216  0.1812 -0.4560  0.3210
  265MOL    C6742835   1.488   6.442   1.178  0.1601  0.1528  0.0050
  265MOL    N6842836   1.415   6.538   1.092  0.5742 -0.0310  0.0782
  265MOL    H6942837   1.670   6.544   1.121 -0.8278  0.9420  0.4561
  265MOL    H7042838   1.689   6.417   1.241  1.7255  1.0316  2.0764
  265MOL    H7142839   1.434   6.441   1.273 -1.0144  1.2013 -0.6290
  265MOL    H7242840   1.440   6.622   1.142  3.1695 -0.8283  0.1633
  265MOL    H7342841   1.469   6.536   1.007 -0.1981 -2.2078 -0.4008
  265MOL    C7442842   1.498   6.298   1.113 -0.4449 -0.0951 -1.0214
  265MOL    C7542843   1.519   6.193   1.222  0.3710 -0.0739  0.0855
  265MOL    N7642844   1.396   6.114   1.245  0.6915 -0.7099 -0.9949
  265MOL    H7742845   1.424   6.268   1.038 -0.4140  1.2519 -1.6075
  265MOL    H7842846   1.579   6.313   1.041  1.3820 -3.8669  0.1127
  265MOL    H7942847   1.549   6.221   1.323  0.1599 -1.4290  0.5356
  265MOL    H8042848   1.347   6.188   1.294 -0.1635 -1.1825 -1.1293
  265MOL    H8142849   1.412   6.048   1.319  2.1429 -0.4141 -1.0400
  265MOL    C8242850   1.630   6.094   1.188  0.0157  0.3844 -0.2075
  265MOL    C8342851   1.772   6.143   1.178  0.1433  0.4410 -0.6358
  265MOL    N8442852   1.835   6.182   1.301 -0.0264 -0.6176 -0.2033
  265MOL    H8542853   1.633   6.007   1.253 -1.0010  0.8705  0.5033
  265MOL    H8642854   1.601   6.052   1.092  0.9532 -0.2265 -0.2354
  265MOL    H8742855   1.769   6.231   1.114  0.0611  1.1498  0.3428
  265MOL    H8842856   1.801   6.128   1.379 -1.2814 -4.2145 -3.0914
  265MOL    H8942857   1.808   6.279   1.312 -0.8548 -0.4654 -3.0920
  265MOL    C9042858   1.874   6.047   1.106  0.0127  0.3332  0.0700
  265MOL    C9142859   1.857   6.041   0.952  0.6136 -0.1750  0.0298
  265MOL    N9242860   1.915   6.165   0.895  0.0030 -0.2377 -0.1210
  265MOL    H9342861   1.975   6.074   1.136  0.5609 -1.7602  0.1673
  265MOL    H9442862   1.866   5.949   1.152 -0.4075  1.8466  3.3092
  265MOL    H9542863   1.751   6.033   0.928  0.1636 -2.9771  2.6224
  265MOL    H9642864   2.015   6.169   0.908 -0.0464 -1.2722  0.6172
  265MOL    H9742865   1.883   6.253   0.933 -0.2041  0.5299 -1.9984
  265MOL    C9842866   1.934   5.923   0.897  0.4310 -0.4065 -0.4656
  265MOL    C9942867   1.901   5.869   0.754 -0.5271 -0.7964  0.0444
  265MOL   N10042868   1.938   5.979   0.662  0.4232 -0.1950 -0.0040
  265MOL   H10142869   2.040   5.945   0.900  0.7104 -1.7366 -0.0582
  265MOL   H10242870   1.919   5.830   0.952 -2.0570 -1.8633 -3.4052
  265MOL   H10342871   1.793   5.852   0.755 -0.5240 -0.8518 -0.6182
  265MOL   H10442872   1.871   5.987   0.586 -0.2106  1.1954  0.6860
  265MOL   H10542873   1.933   6.067   0.711  1.6773 -0.0506 -0.1380
  265MOL   C10642874   1.971   5.734   0.709 -0.3188 -0.2877 -0.3564
  265MOL   C10742875   1.943   5.607   0.783 -0.2304  0.0727  0.2036
  265MOL   N10842876   1.806   5.562   0.757  0.0331 -0.5010  0.1706
  265MOL   H10942877   1.954   5.729   0.601 -1.2115  0.6005 -0.2686
  265MOL   H11042878   2.076   5.759   0.718 -1.2638  3.1971  2.0289
  265MOL   H11142879   1.962   5.617   0.890  0.8781 -0.4483  0.0706
  265MOL   H11242880   1.735   5.631   0.778 -0.5331 -1.3815  1.1943
  265MOL   H11342881   1.778   5.486   0.817 -1.8904  0.6484  0.7865
  265MOL   C11442882   2.027   5.489   0.733  0.4395  0.2238  0.5817
  265MOL   C11542883   2.172   5.484   0.786  0.7074  0.2442  0.5619
  265MOL   N11642884   2.178   5.368   0.876 -0.2734 -0.1095  0.3882
  265MOL   H11742885   1.976   5.398   0.764  2.7885 -1.1042  0.6556
  265MOL   H11842886   2.022   5.492   0.624  0.5742  1.6956  0.6037
  265MOL   H11942887   2.196   5.574   0.843 -0.7103  1.2947 -0.4612
  265MOL   H12042888   2.097   5.363   0.936  1.0994  0.9119  2.3795
  265MOL   H12142889   2.257   5.379   0.937 -2.3637  1.4509  2.9595
  265MOL   C12242890   2.285   5.470   0.684 -0.0905  0.2228 -0.0601
  265MOL   C12342891   2.292   5.587   0.585 -0.5682 -0.3507  0.4090
  265MOL   N12442892   2.391   5.681   0.637 -0.3371 -0.5834  0.0250
  265MOL   H12542893   2.380   5.452   0.734 -1.2410 -1.9518  1.4377
  265MOL   H12642894   2.270   5.377   0.628 -0.6871  1.7624 -2.5421
  265MOL   H12742895   2.195   5.636   0.573 -1.8452 -2.8162  0.3980
  265MOL   H12842896   2.370   5.717   0.729  0.7438  0.1555 -0.0098
  265MOL   H12942897   2.394   5.761   0.575 -0.2823 -0.5004  0.1344
  265MOL   C13042898   2.338   5.545   0.443 -0.2692  0.3366 -0.0535
  265MOL   C13142899   2.342   5.646   0.327  0.7321  0.6930  0.4534
  265MOL   N13242900   2.462   5.628   0.242  0.2795 -0.1468 -0.3772
  265MOL   H13342901   2.439   5.505   0.457 -0.8260 -1.0997 -0.0645
  265MOL   H13442902   2.284   5.460   0.401  0.6417  0.2859 -1.1494
  265MOL   H13542903   2.363   5.741   0.375  0.7520  1.3910 -0.9248
  265MOL   H13642904   2.444   5.698   0.171 -0.1097 -1.5894 -1.7336
  265MOL   H13742905   2.456   5.543   0.188  2.0103  0.0478 -0.8879
  265MOL   C13842906   2.218   5.655   0.240 -0.2605  0.4411  0.0320
  265MOL   C13942907   2.100   5.722   0.305  0.7526  0.5974  0.9149
  265MOL   N14042908   2.122   5.867   0.333 -0.5677  0.6392  0.2845
  265MOL   H14142909   2.242   5.713   0.151  0.0698  0.3066  0.0342
  265MOL   H14242910   2.190   5.556   0.205  1.0923 -0.2573  0.8787
  265MOL   H14342911   2.073   5.671   0.397 -0.0320 -0.9403 -0.1455
  265MOL   H14442912   2.213   5.895   0.366 -1.4442  1.3868  2.1085
  265MOL   H14542913   2.067   5.897   0.412  1.3938  0.2599  1.8466
  265MOL   C14642914   1.969   5.699   0.232  0.1046  0.2207 -0.7062
  265MOL   C14742915   1.924   5.556   0.229  0.1410  0.0888 -0.0358
  265MOL   N14842916   1.885   5.515   0.366  0.8698  0.2603  0.0712
  265MOL   H14942917   1.904   5.759   0.296 -0.3925  0.9417 -1.8753
  265MOL   H15042918   1.976   5.749   0.136  0.0316 -1.0565 -1.3847
  265MOL   H15142919   2.000   5.483   0.200  1.7589  1.3085  0.9991
  265MOL   H15242920   1.954   5.542   0.435  1.2867 -0.0271 -0.2330
  265MOL   H15342921   1.794   5.556   0.384  0.7881  1.3459 -2.6073
  265MOL   C15442922   1.791   5.549   0.153  0.1675  0.3824 -0.1589
  265MOL   C15542923   1.814   5.490   0.016  0.1400 -0.4603 -0.2781
  265MOL   N15642924   1.692   5.456   7.227 -0.3341 -0.1070  0.0697
  265MOL   H15742925   1.723   5.483   0.207  0.7396 -0.4845 -0.5044
  265MOL   H15842926   1.738   5.644   0.148 -0.2420  0.0848 -1.8356
  265MOL   H15942927   1.880   5.403   0.016 -1.1858 -1.4943  0.0403
  265MOL   H16042928   1.659   5.384   0.015 -1.5153 -0.9554 -1.4590
  265MOL   H16142929   1.629   5.528   7.258 -0.8783  0.0367 -1.3617
  265MOL   H16242930   1.868   5.559   7.228  1.0428 -0.4092  0.5300
  266MOL     C142931   3.703   6.650   0.555 -0.1130 -0.5323  0.4660
  266MOL     C242932   3.782   6.757   0.475  0.6147 -0.6225  0.0683
  266MOL     N342933   3.721   6.892   0.507 -0.5671 -0.0119 -0.1454
  266MOL     H442934   3.600   6.644   0.520  0.3762 -0.4602 -1.0256
  266MOL     H542935   3.704   6.673   0.661  0.1884 -3.6579  1.1819
  266MOL     H642936   3.772   6.739   0.368  0.1681  0.4674 -0.0834
  266MOL     H742937   3.780   6.960   0.462 -1.8214  1.4683  0.4201
  266MOL     H842938   3.630   6.905   0.466 -1.8119 -0.1143  2.4387
  266MOL     H942939   3.733   6.546   0.542 -4.8862 -1.8507 -1.0685
  266MOL    C1042940   3.932   6.756   0.513 -0.1584 -0.4217 -0.6075
  266MOL    C1142941   4.022   6.803   0.399 -0.5013  0.2654  0.2762
  266MOL    N1242942   4.153   6.825   0.461  0.0808  0.5393 -0.0184
  266MOL    H1342943   3.951   6.822   0.598  0.6555  0.0643 -1.1548
  266MOL    H1442944   3.972   6.657   0.536  1.5061  0.2097 -0.6819
  266MOL    H1542945   3.984   6.900   0.366  1.2652  0.9669  0.2076
  266MOL    H1642946   4.173   6.922   0.478  3.2776 -0.4354  2.2555
  266MOL    H1742947   4.217   6.803   0.385 -0.6904 -0.1641 -0.4699
  266MOL    C1842948   4.028   6.712   0.273 -0.2857  0.2556 -0.1819
  266MOL    C1942949   4.058   6.793   0.140 -1.2673  0.4239  0.3296
  266MOL    N2042950   4.114   6.697   0.040  0.2457  1.2401 -0.0986
  266MOL    H2142951   4.115   6.654   0.301  1.1085  2.9939  1.3545
  266MOL    H2242952   3.944   6.646   0.253 -1.5465  1.3031  1.4935
  266MOL    H2342953   4.141   6.858   0.167 -0.1121 -0.8250 -0.1737
  266MOL    H2442954   4.153   6.626   0.099 -1.1223 -0.7388 -1.5205
  266MOL    H2542955   4.036   6.646   0.002 -0.4983  1.7801  0.6665
  266MOL    C2642956   3.935   6.855   0.086 -0.1335  0.1643 -1.1367
  266MOL    C2742957   3.950   6.979   7.270 -0.2357  0.0779 -0.9044
  266MOL    N2842958   3.816   7.025   7.238 -0.6245  0.0886  0.2696
  266MOL    H2942959   3.864   6.780   0.051  0.1592 -0.4085 -0.5211
  266MOL    H3042960   3.879   6.885   0.175  3.3003  1.9341  0.5472
  266MOL    H3142961   4.003   6.962   7.177 -0.1777  0.2167 -0.8971
  266MOL    H3242962   3.809   7.096   7.167 -1.0990  1.1063  1.3141
  266MOL    H3342963   3.760   6.952   7.197  1.4825 -0.8509 -1.0272
  266MOL    C3442964   4.023   7.099   0.060  0.3278 -0.5977 -0.6080
  266MOL    C3542965   4.055   7.219   7.245  0.1627  0.0444  0.5743
  266MOL    N3642966   4.109   0.048   0.057  0.7805 -0.2765  0.5227
  266MOL    H3742967   3.996   7.118   0.163  2.0225  1.9097 -0.5690
  266MOL    H3842968   4.121   7.055   0.081 -0.0711  0.6697  4.5615
  266MOL    H3942969   3.964   7.248   7.192  1.7865  1.8286 -1.3446
  266MOL    H4042970   4.165   0.117   0.007 -1.9629  1.3185 -0.4818
  266MOL    H4142971   4.042   0.106   0.106 -1.0351  0.0540 -2.2340
  266MOL    C4242972   4.160   7.189   7.131 -0.4916  0.0079  0.1430
  266MOL    C4342973   4.152   0.021   7.013  0.3205 -0.6202  0.2520
  266MOL    N4442974   4.273   0.021   6.927 -0.1366  0.1369  0.3498
  266MOL    H4542975   4.260   7.175   7.171 -0.0886  0.0766 -0.8186
  266MOL    H4642976   4.136   7.094   7.084  1.0971  0.4086 -1.5236
  266MOL    H4742977   4.159   0.121   7.055  2.4786 -1.2043  1.3710
  266MOL    H4842978   4.259   7.224   6.858 -0.1427  0.4886 -0.0250
  266MOL    H4942979   4.356   0.004   6.982  0.4216 -0.7478 -0.7415
  266MOL    C5042980   4.019   0.010   6.932  0.0243 -0.4910 -0.5713
  266MOL    C5142981   3.947   0.144   6.901 -0.2144 -0.6775  0.7116
  266MOL    N5242982   3.853   0.111   6.793 -0.5292 -0.2594  0.7861
  266MOL    H5342983   4.045   7.238   6.838  1.5433  0.9006 -0.8709
  266MOL    H5442984   3.942   7.222   6.978 -1.1787  2.2361  1.3643
  266MOL    H5542985   4.027   0.201   6.853 -2.8709  1.7390 -1.0149
  266MOL    H5642986   3.807   0.021   6.793  2.4404 -1.8446  0.1233
  266MOL    H5742987   3.783   0.183   6.784 -0.9275 -0.9666 -2.3776
  266MOL    C5842988   3.864   0.205   7.015 -0.1304  0.0607  0.2048
  266MOL    C5942989   3.836   0.350   6.994  0.3622 -0.0966  0.4965
  266MOL    N6042990   3.712   0.381   7.066  0.2387 -0.1678  0.8501
  266MOL    H6142991   3.781   0.138   7.034  0.3685 -0.4563  0.6058
  266MOL    H6242992   3.923   0.196   7.106  1.6670  1.1679 -0.8152
  266MOL    H6342993   3.817   0.351   6.887  0.4088 -0.0102  0.4891
  266MOL    H6442994   3.689   0.475   7.038  1.8265 -0.2129 -0.7156
  266MOL    H6542995   3.741   0.401   7.161 -0.1375  2.9177  0.3711
  266MOL    C6642996   3.947   0.451   7.025 -0.1639 -0.4867 -0.3097
  266MOL    C6742997   3.927   0.591   6.949  0.4321 -0.3858  0.1223
  266MOL    N6842998   4.016   0.687   7.021 -0.1708 -0.3987 -0.3298
  266MOL    H6942999   3.947   0.476   7.131 -2.0337 -0.0057 -0.4021
  266MOL    H7043000   4.048   0.413   7.010 -0.0883 -0.4988  0.2274
  266MOL    H7143001   3.825   0.628   6.959  0.5731 -0.2468  1.0656
  266MOL    H7243002   3.974   0.710   7.110 -0.5000 -0.4438 -0.4737
  266MOL    H7343003   4.035   0.768   6.964  1.0861  1.3337  2.4561
  266MOL    C7443004   3.962   0.579   6.797  0.1579 -0.4062  0.2673
  266MOL    C7543005   3.834   0.626   6.699 -0.7130 -0.3171 -0.0152
  266MOL    N7643006   3.857   0.768   6.693  0.4564 -0.1926  0.6147
  266MOL    H7743007   4.052   0.636   6.777 -0.6543  1.3420  1.5007
  266MOL    H7843008   3.985   0.473   6.779  3.8302  0.2559  0.7116
  266MOL    H7943009   3.733   0.614   6.739 -0.7009 -0.7809 -0.1124
  266MOL    H8043010   3.887   0.790   6.787 -0.3534 -1.7140  1.2569
  266MOL    H8143011   3.773   0.823   6.690  2.0300  2.2405 -0.2341
  266MOL    C8243012   3.835   0.557   6.560  0.6550  0.0264  0.3044
  266MOL    C8343013   3.776   0.633   6.447  0.1880 -0.7412 -0.2314
  266MOL    N8443014   3.820   0.585   6.316 -0.1823  0.0824 -0.2192
  266MOL    H8543015   3.942   0.544   6.547  0.8065  0.6811  0.8992
  266MOL    H8643016   3.794   0.457   6.578  2.1058 -0.6192  0.0711
  266MOL    H8743017   3.808   0.737   6.437 -0.0936 -0.7668 -1.4982
  266MOL    H8843018   3.779   0.492   6.311 -0.8598  0.3149  0.7610
  266MOL    H8943019   3.918   0.563   6.325 -0.0874  0.6645  0.2086
  266MOL    C9043020   3.622   0.621   6.448  0.2066  0.1430 -0.3911
  266MOL    C9143021   3.542   0.717   6.352 -0.5444 -0.1952 -0.2779
  266MOL    N9243022   3.408   0.671   6.313  0.1322  0.4690 -0.1409
  266MOL    H9343023   3.587   0.520   6.425  1.1629 -0.8152  2.2010
  266MOL    H9443024   3.594   0.646   6.550 -0.7934  1.9060 -1.0809
  266MOL    H9543025   3.597   0.719   6.258  2.1499  0.2534  1.2855
  266MOL    H9643026   3.388   0.722   6.228 -0.7990 -2.0946 -1.5143
  266MOL    H9743027   3.425   0.588   6.258 -0.5009  0.4087 -0.2442
  266MOL    C9843028   3.528   0.863   6.393 -0.1553  0.4684 -0.4164
  266MOL    C9943029   3.542   0.960   6.279  0.0088 -0.3143 -0.1194
  266MOL   N10043030   3.482   1.092   6.305  0.0616  0.1932  0.3103
  266MOL   H10143031   3.437   0.878   6.451  1.0458  0.3733  1.5368
  266MOL   H10243032   3.612   0.885   6.460 -0.3438 -2.4491  0.8792
  266MOL   H10343033   3.496   0.912   6.193 -2.3049  1.8280 -0.1140
  266MOL   H10443034   3.390   1.061   6.332 -0.9657 -1.0499 -4.1930
  266MOL   H10543035   3.475   1.145   6.220  1.1884 -1.8652 -1.1059
  266MOL   C10643036   3.692   0.997   6.231  0.7908 -0.0523  0.3073
  266MOL   C10743037   3.703   1.084   6.102 -0.1404  1.0507  0.5645
  266MOL   N10843038   3.848   1.090   6.076  0.0471  0.0866 -0.3289
  266MOL   H10943039   3.749   1.039   6.314 -0.2849  0.8141  0.6213
  266MOL   H11043040   3.735   0.900   6.207  1.8210  0.7282 -1.0875
  266MOL   H11143041   3.674   1.186   6.129 -2.2837  0.8102 -0.7241
  266MOL   H11243042   3.891   1.158   6.137 -0.5086  0.8900 -0.8248
  266MOL   H11343043   3.852   1.141   5.989  0.3056  3.0520  1.3486
  266MOL   C11443044   3.626   1.037   5.972 -0.1109  0.2983 -0.2363
  266MOL   C11543045   3.637   1.139   5.854 -0.1023  0.2315  0.3686
  266MOL   N11643046   3.587   1.062   5.736 -0.1233 -0.1717  0.0587
  266MOL   H11743047   3.653   0.934   5.949 -0.7389  0.5479 -2.1526
  266MOL   H11843048   3.519   1.031   5.992 -0.0799 -2.3158 -0.6683
  266MOL   H11943049   3.739   1.168   5.828 -0.6710  0.0352 -2.2061
  266MOL   H12043050   3.571   1.121   5.655  0.0183  1.1609  0.9993
  266MOL   H12143051   3.647   0.985   5.710  0.5932  0.4277 -0.0786
  266MOL   C12243052   3.551   1.264   5.873 -0.0077  0.1515 -0.5357
  266MOL   C12343053   3.631   1.397   5.891  0.8173  0.5202  0.5517
  266MOL   N12443054   3.695   1.438   5.761  0.0374  0.0963  0.1907
  266MOL   H12543055   3.478   1.281   5.794 -1.3362  1.0167  0.8365
  266MOL   H12643056   3.493   1.251   5.965  0.3287  3.1705  0.1695
  266MOL   H12743057   3.706   1.381   5.969 -1.8472 -0.2632  3.0656
  266MOL   H12843058   3.766   1.371   5.735 -0.1328 -0.1961  0.4719
  266MOL   H12943059   3.624   1.427   5.690  0.3607 -0.1603 -0.0966
  266MOL   C13043060   3.540   1.526   5.928 -0.3172 -0.2254  0.3000
  266MOL   C13143061   3.570   1.583   6.071  0.0370 -0.2883  0.0994
  266MOL   N13243062   3.509   1.713   6.067  0.1814 -0.6521  0.5645
  266MOL   H13343063   3.550   1.596   5.845 -0.6964  0.3797  0.7591
  266MOL   H13443064   3.440   1.483   5.920 -0.4061 -0.1487  0.9560
  266MOL   H13543065   3.677   1.590   6.090 -0.0225 -0.6889  0.5762
  266MOL   H13643066   3.553   1.769   5.995 -1.5355  0.5713  0.4236
  266MOL   H13743067   3.530   1.770   6.147 -1.3363 -0.7257  1.0209
  266MOL   C13843068   3.495   1.505   6.177 -0.7745  0.5435  0.1551
  266MOL   C13943069   3.537   1.543   6.316  0.1650 -0.4145  0.4451
  266MOL   N14043070   3.416   1.530   6.395  0.7464  0.9177 -0.2185
  266MOL   H14143071   3.390   1.531   6.167 -0.6066  1.0260 -0.4114
  266MOL   H14243072   3.503   1.399   6.154  0.7775  1.4259 -3.8061
  266MOL   H14343073   3.557   1.650   6.322  1.9516 -0.7836  1.3710
  266MOL   H14443074   3.354   1.607   6.377  0.7136  1.3278  1.5509
  266MOL   H14543075   3.455   1.541   6.488  1.4968  2.9254 -0.7517
  266MOL   C14643076   3.652   1.460   6.360  0.2473  0.3499 -0.4394
  266MOL   C14743077   3.734   1.517   6.480  0.0362 -0.0178 -0.0149
  266MOL   N14843078   3.831   1.413   6.511  0.2191 -0.4729 -0.0965
  266MOL   H14943079   3.622   1.356   6.367  1.5345 -0.1089 -1.4767
  266MOL   H15043080   3.722   1.439   6.279  0.8592 -2.2135  0.6930
  266MOL   H15143081   3.676   1.521   6.572  1.1372  1.2751  0.6388
  266MOL   H15243082   3.887   1.455   6.583 -0.0097 -1.3578  0.6114
  266MOL   H15343083   3.777   1.333   6.540 -1.8308  1.1080  0.5417
  266MOL   C15443084   3.807   1.642   6.450 -0.3672  0.0292 -0.1513
  266MOL   C15543085   3.768   1.754   6.540  0.3363 -0.4398 -0.0058
  266MOL   N15643086   3.822   1.877   6.487 -0.3702 -0.4891 -0.1053
  266MOL   H15743087   3.914   1.623   6.465 -0.5262  0.8237  2.3089
  266MOL   H15843088   3.790   1.661   6.344  0.9151  0.8358 -0.2284
  266MOL   H15943089   3.808   1.739   6.641  1.5310  0.7727 -0.2863
  266MOL   H16043090   3.791   1.957   6.541  0.1266 -0.0012 -0.5372
  266MOL   H16143091   3.920   1.895   6.503  0.3166 -3.2938 -0.9381
  266MOL   H16243092   3.659   1.749   6.547  0.3058  0.8472  0.7601
  267MOL     C143093   0.706   2.781   2.771  0.1540  0.3311  0.4441
  267MOL     C243094   0.800   2.726   2.656  0.2703  0.0237 -0.1622
  267MOL     N343095   0.913   2.675   2.721  0.4650  0.1204 -0.7930
  267MOL     H443096   0.677   2.706   2.844  1.4710 -1.4702 -0.8331
  267MOL     H543097   0.611   2.818   2.731  1.5525  1.2865 -2.1013
  267MOL     H643098   0.825   2.811   2.593 -1.7262  0.4899 -0.3693
  267MOL     H743099   0.982   2.630   2.662  1.2337 -2.8140  2.1623
  267MOL     H843100   0.890   2.597   2.781  1.6462 -1.0673 -1.8519
  267MOL     H943101   0.753   2.872   2.809  2.0438 -0.4764  0.0996
  267MOL    C1043102   0.746   2.613   2.573  0.2199 -0.5006 -0.3013
  267MOL    C1143103   0.620   2.642   2.491 -0.0411  0.0416  0.3894
  267MOL    N1243104   0.668   2.687   2.359  0.6933 -0.2866 -0.5912
  267MOL    H1343105   0.824   2.559   2.519  0.6532  0.4787 -0.6780
  267MOL    H1443106   0.707   2.542   2.645 -0.7049 -0.5684 -0.8613
  267MOL    H1543107   0.558   2.725   2.524  1.0408  1.4711 -1.1148
  267MOL    H1643108   0.738   2.623   2.326 -0.6098 -0.8834 -2.2619
  267MOL    H1743109   0.726   2.769   2.364  0.8109 -0.4048 -0.0001
  267MOL    C1843110   0.538   2.515   2.459  0.6061 -0.0660 -0.4899
  267MOL    C1943111   0.395   2.529   2.409 -0.5764  0.3448  0.1051
  267MOL    N2043112   0.347   2.409   2.340  0.0789 -0.1772 -0.3370
  267MOL    H2143113   0.588   2.464   2.376  0.6505  1.7294 -1.5795
  267MOL    H2243114   0.541   2.438   2.537  1.5463  0.6097  0.1468
  267MOL    H2343115   0.369   2.605   2.336  0.4504 -1.3844 -2.1055
  267MOL    H2443116   0.388   2.405   2.248  0.9286  2.9897 -0.1498
  267MOL    H2543117   0.248   2.413   2.321  0.0807 -0.2663 -0.3668
  267MOL    C2643118   0.303   2.537   2.529 -0.4651 -0.1970 -0.3886
  267MOL    C2743119   0.309   2.666   2.621  0.4371 -0.3880 -0.1914
  267MOL    N2843120   0.268   2.779   2.542  0.8369  0.5001  0.5499
  267MOL    H2943121   0.199   2.529   2.496 -0.2121  1.3558 -1.6316
  267MOL    H3043122   0.320   2.456   2.600  1.6395  1.4332  1.0673
  267MOL    H3143123   0.412   2.685   2.650  0.3599 -0.5464  0.2003
  267MOL    H3243124   0.271   2.861   2.600  1.0717  0.5953  0.4053
  267MOL    H3343125   0.326   2.795   2.461  0.4853  1.4567  0.4886
  267MOL    C3443126   0.193   2.661   2.726  0.3060  0.3341 -0.5694
  267MOL    C3543127   0.208   2.752   2.849  0.6022  0.5385 -0.2236
  267MOL    N3643128   0.107   2.855   2.841  0.3959  0.2621  0.7440
  267MOL    H3743129   0.091   2.673   2.688  0.8176  0.6883 -1.8393
  267MOL    H3843130   0.179   2.561   2.769  0.4978  0.7235  0.4176
  267MOL    H3943131   0.309   2.791   2.855  2.4052 -4.0538  1.3315
  267MOL    H4043132   0.114   2.906   2.928  1.3731 -1.0811  1.4635
  267MOL    H4143133   0.112   2.922   2.765 -0.2975 -0.1181  0.3576
  267MOL    C4243134   0.185   2.689   2.992  0.0619 -0.2541 -0.2491
  267MOL    C4343135   0.301   2.615   3.064  0.6238  0.1159 -0.6387
  267MOL    N4443136   0.375   2.702   3.146 -0.1992 -0.0048 -0.3783
  267MOL    H4543137   0.155   2.766   3.062  0.1982 -1.9153  1.6920
  267MOL    H4643138   0.103   2.621   2.972 -0.2194  0.2467 -0.7991
  267MOL    H4743139   0.380   2.591   2.993 -0.0515 -0.4215 -1.2232
  267MOL    H4843140   0.407   2.780   3.090  0.4666 -0.8954 -1.2720
  267MOL    H4943141   0.307   2.723   3.218  0.8815 -0.6867  0.8639
  267MOL    C5043142   0.252   2.490   3.140 -0.3047  0.0431 -0.0801
  267MOL    C5143143   0.167   2.391   3.065  0.0464  0.1863  0.1440
  267MOL    N5243144   0.235   2.367   2.938 -0.3604  0.3157  0.5738
  267MOL    H5343145   0.344   2.445   3.179  0.1499 -2.4573 -3.7568
  267MOL    H5443146   0.195   2.517   3.229  0.5738 -0.5235  0.6689
  267MOL    H5543147   0.072   2.436   3.037 -0.3305 -0.3382  0.5636
  267MOL    H5643148   0.153   2.342   2.884 -0.0300  1.2219 -0.3702
  267MOL    H5743149   0.260   2.459   2.906 -0.4731  0.6468  1.4100
  267MOL    C5843150   0.137   2.249   3.127 -0.2454  0.3321  0.2072
  267MOL    C5943151   0.073   2.245   3.272  0.2431  0.2171 -0.0940
  267MOL    N6043152   7.245   2.143   3.284 -0.4017  0.1544 -0.0228
  267MOL    H6143153   0.064   2.200   3.063 -0.5832 -1.6867  2.0541
  267MOL    H6243154   0.226   2.188   3.144 -0.8248 -0.5268  0.2213
  267MOL    H6343155   0.013   2.334   3.293  0.3791 -0.0816  1.6537
  267MOL    H6443156   7.195   2.150   3.371 -1.3325  0.2831 -0.5631
  267MOL    H6543157   7.265   2.045   3.277 -0.2686  0.1150  0.8606
  267MOL    C6643158   0.186   2.224   3.379 -0.0996  0.0503  0.5237
  267MOL    C6743159   0.144   2.197   3.518  0.5086 -0.7272  0.0724
  267MOL    N6843160   0.263   2.177   3.600  0.0861 -0.2705  0.6687
  267MOL    H6943161   0.253   2.141   3.358  1.4294  1.3555  0.0886
  267MOL    H7043162   0.236   2.321   3.378 -0.7603  0.4269  2.4311
  267MOL    H7143163   0.080   2.109   3.512 -0.8712  0.1174  1.8491
  267MOL    H7243164   0.338   2.237   3.571 -0.0950  0.9572  2.7152
  267MOL    H7343165   0.303   2.084   3.596  0.0252 -0.3140  1.0282
  267MOL    C7443166   0.064   2.308   3.579  0.9656  0.1923 -0.3702
  267MOL    C7543167   7.196   2.274   3.606  0.1270 -0.0110 -1.4242
  267MOL    N7643168   7.186   2.175   3.710  0.0280  0.6093 -0.9280
  267MOL    H7743169   0.105   2.343   3.674 -1.1456 -1.1385  1.1023
  267MOL    H7843170   0.056   2.394   3.513 -2.2389 -0.8388 -1.4398
  267MOL    H7943171   7.166   2.235   3.509  0.7129  1.9233 -2.3968
  267MOL    H8043172   7.086   2.165   3.721  0.3574  0.7382  2.6002
  267MOL    H8143173   7.217   2.089   3.665 -1.1766 -0.8500  0.9351
  267MOL    C8243174   7.097   2.384   3.645 -0.2268  0.4557 -0.2122
  267MOL    C8343175   7.100   2.509   3.549  0.4899  0.2171  0.1396
  267MOL    N8443176   7.052   2.463   3.415 -0.0697  0.2562 -0.3637
  267MOL    H8543177   6.995   2.345   3.648  1.1906 -3.2879  2.2056
  267MOL    H8643178   7.116   2.415   3.747 -0.0745  0.4468 -0.2374
  267MOL    H8743179   7.201   2.549   3.544  0.0542  1.3438  0.2395
  267MOL    H8843180   7.003   2.375   3.418  2.2861 -1.0627  0.5266
  267MOL    H8943181   7.122   2.417   3.359  1.3101 -1.5202  2.6907
  267MOL    C9043182   7.012   2.624   3.596 -1.0923  0.5094  0.4188
  267MOL    C9143183   7.001   2.764   3.518  0.0559 -0.3821 -0.7265
  267MOL    N9243184   6.899   2.851   3.585 -0.4677 -0.4728 -0.1521
  267MOL    H9343185   6.910   2.586   3.608 -0.4297 -0.9630  1.5188
  267MOL    H9443186   7.052   2.652   3.694 -0.2809  0.8281 -0.0004
  267MOL    H9543187   6.963   2.743   3.418  1.2026 -0.6771 -1.1011
  267MOL    H9643188   6.902   2.944   3.546  0.3332  0.7390  2.6557
  267MOL    H9743189   6.808   2.817   3.558 -1.0995  1.6640 -0.8203
  267MOL    C9843190   7.140   2.850   3.515  0.8059  0.1822  0.1729
  267MOL    C9943191   7.225   2.794   3.399  0.2949 -0.4707  0.0656
  267MOL   N10043192   7.153   2.826   3.277 -0.0391 -0.2850  0.1709
  267MOL   H10143193   7.125   2.955   3.490  1.0197  0.2965  0.5204
  267MOL   H10243194   7.183   2.846   3.615  0.2819  0.5182  0.4122
  267MOL   H10343195   7.243   2.686   3.407  1.4100 -0.1963  1.3725
  267MOL   H10443196   7.104   2.913   3.297 -2.0028 -1.0291 -1.1812
  267MOL   H10543197   7.081   2.757   3.258  0.7378 -1.0603  0.0366
  267MOL   C10643198   0.094   2.857   3.386  0.2839  0.0176  0.2404
  267MOL   C10743199   0.194   2.810   3.498  0.2454 -0.8110  0.1936
  267MOL   N10843200   0.184   2.666   3.507 -0.7026  0.1410 -1.0488
  267MOL   H10943201   0.145   2.826   3.294  1.5054  0.5826  0.7209
  267MOL   H11043202   0.093   2.966   3.385  2.1434  0.0545 -2.5429
  267MOL   H11143203   0.148   2.840   3.592 -0.1781 -0.6219 -0.0712
  267MOL   H11243204   0.093   2.632   3.535 -0.2388  0.6931  1.2519
  267MOL   H11343205   0.200   2.624   3.417  1.2834 -0.9860 -0.2047
  267MOL   C11443206   0.340   2.859   3.477  0.1922 -0.4557 -0.9043
  267MOL   C11543207   0.364   3.013   3.488  0.1082  0.1397 -0.2512
  267MOL   N11643208   0.464   3.054   3.595  1.0549  0.3685 -0.2926
  267MOL   H11743209   0.390   2.794   3.549 -2.0963 -1.1897  0.0562
  267MOL   H11843210   0.393   2.824   3.388  2.6842  0.4117  0.2013
  267MOL   H11943211   0.269   3.056   3.519  0.2198  1.1788 -1.2923
  267MOL   H12043212   0.489   3.152   3.599  0.0631  0.6120  0.0724
  267MOL   H12143213   0.417   3.033   3.681  1.2641 -1.2336 -0.5610
  267MOL   C12243214   0.416   3.076   3.353  0.3423 -0.1462 -0.2349
  267MOL   C12343215   0.319   3.078   3.231  0.2298  0.0183  0.0077
  267MOL   N12443216   0.207   3.168   3.261 -0.5523  0.3823 -0.4788
  267MOL   H12543217   0.444   3.181   3.366  1.8555 -0.3878 -1.3407
  267MOL   H12643218   0.500   3.013   3.325  2.7704  1.6671  2.7161
  267MOL   H12743219   0.267   2.983   3.220 -1.0781  0.8727 -1.3290
  267MOL   H12843220   0.131   3.150   3.196  0.8654 -0.0416 -2.0556
  267MOL   H12943221   0.164   3.154   3.351  0.7839 -3.3151 -0.3550
  267MOL   C13043222   0.371   3.132   3.096 -0.1425 -0.0188 -0.6545
  267MOL   C13143223   0.512   3.087   3.049 -0.0203  0.8952 -0.0132
  267MOL   N13243224   0.511   2.945   3.010 -0.3316 -0.1999 -0.2600
  267MOL   H13343225   0.295   3.098   3.025 -0.9438  0.0365  0.1568
  267MOL   H13443226   0.374   3.241   3.108 -1.1094  0.1220 -1.6257
  267MOL   H13543227   0.579   3.080   3.135 -0.0199 -0.3084 -0.0995
  267MOL   H13643228   0.564   2.899   3.082  1.8693  0.9010 -1.1448
  267MOL   H13743229   0.568   2.936   2.927  0.0431 -0.1780 -0.0048
  267MOL   C13843230   0.574   3.175   2.935  0.4752  0.3594 -0.3965
  267MOL   C13943231   0.698   3.258   2.971  0.2183 -0.4346 -0.3191
  267MOL   N14043232   0.750   3.323   2.846 -1.0055 -0.5873  0.7696
  267MOL   H14143233   0.602   3.105   2.857 -1.6152 -2.7220  1.5389
  267MOL   H14243234   0.488   3.228   2.895 -0.7441 -0.1077  1.5175
  267MOL   H14343235   0.781   3.196   3.006 -1.3967 -2.6555 -0.2825
  267MOL   H14443236   0.702   3.408   2.820  0.1780 -0.0784  0.2060
  267MOL   H14543237   0.766   3.281   2.756 -2.4195 -0.8799  0.6487
  267MOL   C14643238   0.671   3.366   3.067 -0.0295 -0.4439 -0.5205
  267MOL   C14743239   0.795   3.414   3.158  0.4318  0.6988 -0.2809
  267MOL   N14843240   0.866   3.527   3.099 -0.3605  0.0367 -0.6414
  267MOL   H14943241   0.620   3.451   3.021 -2.5949 -1.5429  0.1926
  267MOL   H15043242   0.597   3.317   3.131 -1.1979  1.6352 -0.2135
  267MOL   H15143243   0.860   3.326   3.160 -1.0948 -0.4480  1.0723
  267MOL   H15243244   0.946   3.563   3.148 -2.0596  0.9485  1.5751
  267MOL   H15343245   0.901   3.508   3.007 -0.2248  1.8744 -0.9796
  267MOL   C15443246   0.749   3.449   3.301 -0.1818 -0.2495 -0.1558
  267MOL   C15543247   0.656   3.572   3.310 -0.7431 -0.0503  0.3565
  267MOL   N15643248   0.642   3.623   3.442 -0.0362  0.4077  0.1188
  267MOL   H15743249   0.683   3.373   3.345  0.2267 -1.0311 -0.8721
  267MOL   H15843250   0.838   3.464   3.362 -0.9955 -0.8693  1.2212
  267MOL   H15943251   0.556   3.544   3.277  0.2629 -1.1140 -1.8974
  267MOL   H16043252   0.726   3.663   3.481  0.4388 -0.3380 -0.1279
  267MOL   H16143253   0.571   3.695   3.444 -0.7470 -0.2961  0.4662
  267MOL   H16243254   0.694   3.649   3.244  0.9207 -2.0400 -1.1120
  268MOL     C143255   3.503   0.105   6.767  0.0657  0.7664 -0.0872
  268MOL     C243256   3.477   0.257   6.760 -0.1906  0.2274 -0.2059
  268MOL     N343257   3.599   0.330   6.787 -0.0214  0.5279 -0.6267
  268MOL     H443258   3.553   0.083   6.673  1.6311 -0.0636  0.9059
  268MOL     H543259   3.410   0.057   6.797  0.3308 -0.3871 -1.0751
  268MOL     H643260   3.406   0.287   6.837 -0.1389 -0.1447 -0.0138
  268MOL     H743261   3.591   0.430   6.783  1.2721  0.6398 -0.5295
  268MOL     H843262   3.621   0.318   6.885 -2.0131 -0.0068 -0.2170
  268MOL     H943263   3.577   0.077   6.843 -1.4086 -1.6361  0.5128
  268MOL    C1043264   3.417   0.298   6.624 -0.0516  0.1514 -0.5088
  268MOL    C1143265   3.275   0.235   6.592  0.5201  0.1261  0.8139
  268MOL    N1243266   3.216   0.315   6.479  0.0839 -0.2632  0.0690
  268MOL    H1343267   3.419   0.407   6.629 -0.0209  0.0878  1.1478
  268MOL    H1443268   3.480   0.277   6.538  0.3815 -0.0874 -0.1343
  268MOL    H1543269   3.229   0.256   6.688 -0.5524  0.3994  0.2499
  268MOL    H1643270   3.129   0.272   6.452  0.2192  0.2301 -1.1854
  268MOL    H1743271   3.202   0.413   6.499  0.3914 -0.2245  0.0934
  268MOL    C1843272   3.258   0.084   6.544  0.0388  0.2489  0.8672
  268MOL    C1943273   3.124   0.014   6.573 -0.3014 -0.2583  0.0817
  268MOL    N2043274   3.110   7.178   6.487 -0.2451 -0.1184 -0.0438
  268MOL    H2143275   3.293   0.079   6.441  1.3726  0.2687  1.2980
  268MOL    H2243276   3.330   0.013   6.588  1.5243 -0.2516 -2.2430
  268MOL    H2343277   3.049   0.090   6.551 -1.9491 -1.9556 -0.3074
  268MOL    H2443278   3.023   7.139   6.521 -0.9479  1.2965 -0.1890
  268MOL    H2543279   3.089   7.202   6.392 -0.0619 -0.4508 -0.1698
  268MOL    C2643280   3.103   7.251   6.722  0.2669  0.1876 -0.1849
  268MOL    C2743281   2.952   7.256   6.760 -0.6314  0.1535  0.2833
  268MOL    N2843282   2.932   7.170   6.876  0.1413 -0.8161  0.5110
  268MOL    H2943283   3.159   7.160   6.744  1.9010  0.8505 -1.4449
  268MOL    H3043284   3.167   0.044   6.778 -0.3916  0.3955  0.3100
  268MOL    H3143285   2.897   7.189   6.694  1.7648 -1.6771  0.0725
  268MOL    H3243286   3.011   7.107   6.883  0.6558 -0.7564 -3.5431
  268MOL    H3343287   2.940   7.212   6.967  0.0580  1.5488 -0.5479
  268MOL    C3443288   2.885   0.122   6.771 -0.1441  0.2597 -0.2950
  268MOL    C3543289   2.736   0.118   6.786  0.4815  0.2125 -0.5146
  268MOL    N3643290   2.695   0.242   6.853 -0.5127  0.3490 -0.4873
  268MOL    H3743291   2.932   0.172   6.856  1.7175 -1.5748 -0.1977
  268MOL    H3843292   2.922   0.188   6.692  1.7765 -2.3242 -1.6162
  268MOL    H3943293   2.710   0.029   6.844 -0.8174  0.3435 -0.8805
  268MOL    H4043294   2.595   0.251   6.836 -0.0756  0.8040 -2.9913
  268MOL    H4143295   2.738   0.326   6.816  0.9719 -0.4561 -0.5795
  268MOL    C4243296   2.665   0.105   6.652  0.0701  0.7261 -0.2308
  268MOL    C4343297   2.506   0.100   6.655 -0.4253  0.2990 -0.3417
  268MOL    N4443298   2.463   0.181   6.542  0.0281  0.3133 -0.2346
  268MOL    H4543299   2.692   0.183   6.581  0.6484  0.6546 -0.0957
  268MOL    H4643300   2.702   0.013   6.607 -0.5802  0.9735 -1.2990
  268MOL    H4743301   2.470   0.150   6.746  0.8397 -1.2591  1.0551
  268MOL    H4843302   2.522   0.155   6.465 -0.6429  1.8245 -1.2616
  268MOL    H4943303   2.489   0.277   6.555 -2.8259  1.2685 -1.2767
  268MOL    C5043304   2.452   7.231   6.643  0.0156 -0.3514 -0.4401
  268MOL    C5143305   2.298   7.218   6.664  0.6792 -0.6016  0.0325
  268MOL    N5243306   2.230   0.001   6.542  0.4606  0.4952 -0.0500
  268MOL    H5343307   2.472   7.186   6.546  0.4110  1.2786 -1.1232
  268MOL    H5443308   2.496   7.162   6.716 -2.4156 -1.2538  0.2233
  268MOL    H5543309   2.271   0.003   6.751 -1.3491 -1.0406 -0.2560
  268MOL    H5643310   2.239   7.223   6.457  1.0081 -1.2280  1.0829
  268MOL    H5743311   2.285   0.084   6.526  2.5185 -0.5245  1.5710
  268MOL    C5843312   2.242   7.069   6.661  0.4941 -0.2307  0.0310
  268MOL    C5943313   2.277   6.969   6.777  0.4527 -0.2950  0.5609
  268MOL    N6043314   2.234   7.022   6.904 -0.3625  0.4967  0.2584
  268MOL    H6143315   2.133   7.077   6.664  0.5895  0.6278  1.2264
  268MOL    H6243316   2.250   7.017   6.565  1.1430 -0.1231  0.0279
  268MOL    H6343317   2.386   6.961   6.772  0.4480  0.5183 -1.1285
  268MOL    H6443318   2.139   7.055   6.894  0.1809  1.6183 -1.6593
  268MOL    H6543319   2.284   7.110   6.914 -0.4575  0.7529 -1.2766
  268MOL    C6643320   2.214   6.830   6.750  0.3658 -0.2921 -0.2760
  268MOL    C6743321   2.296   6.730   6.672  0.1584 -0.6454  0.0789
  268MOL    N6843322   2.433   6.720   6.725 -0.5963 -0.6137  0.2070
  268MOL    H6943323   2.207   6.792   6.852 -1.1902 -0.3050 -0.3869
  268MOL    H7043324   2.112   6.851   6.720  0.3575 -1.9648 -1.4651
  268MOL    H7143325   2.291   6.753   6.565 -4.2340 -2.1102 -0.1410
  268MOL    H7243326   2.441   6.734   6.825  0.7328 -2.0742  0.3315
  268MOL    H7343327   2.463   6.626   6.703 -0.9618 -0.4579 -0.9466
  268MOL    C7443328   2.242   6.586   6.702 -0.3044  0.4023  0.2139
  268MOL    C7543329   2.117   6.546   6.611 -0.3299 -0.2481  1.1261
  268MOL    N7643330   2.129   6.410   6.581 -0.1358 -0.5261  0.0316
  268MOL    H7743331   2.321   6.515   6.675  2.1479  2.4411  1.8402
  268MOL    H7843332   2.223   6.565   6.807 -0.8746  0.0498  0.0388
  268MOL    H7943333   2.123   6.606   6.520 -1.7928  0.9285  1.7840
  268MOL    H8043334   2.218   6.404   6.534 -0.5567  0.7637 -0.9460
  268MOL    H8143335   2.159   6.365   6.667  1.5332  1.8345  0.7295
  268MOL    C8243336   1.974   6.568   6.680 -0.2647  0.2300 -0.3470
  268MOL    C8343337   1.861   6.577   6.575  0.3625  0.4233 -0.1814
  268MOL    N8443338   1.738   6.543   6.626  0.8352  0.6361  0.2447
  268MOL    H8543339   1.947   6.491   6.752 -3.1407  0.3437 -1.2322
  268MOL    H8643340   1.962   6.661   6.735 -0.3154 -0.9073  1.6023
  268MOL    H8743341   1.890   6.509   6.494 -0.9359  0.6968 -0.8918
  268MOL    H8843342   1.738   6.443   6.612  2.7475  0.8415 -1.5740
  268MOL    H8943343   1.675   6.568   6.551  1.1867 -2.9959 -1.3672
  268MOL    C9043344   1.862   6.715   6.509 -0.3546  1.0064 -0.1218
  268MOL    C9143345   1.824   6.717   6.361  0.2947 -0.2411  0.7540
  268MOL    N9243346   1.752   6.841   6.324  0.8335 -0.8672 -0.4440
  268MOL    H9343347   1.785   6.774   6.560 -1.6177 -2.1455  1.7752
  268MOL    H9443348   1.952   6.776   6.519  0.3349 -0.2881  2.0396
  268MOL    H9543349   1.751   6.637   6.348  0.7387 -0.1214 -2.9677
  268MOL    H9643350   1.792   6.924   6.366  0.9386 -1.4387  0.5997
  268MOL    H9743351   1.652   6.834   6.341  0.4854 -0.3666 -2.1637
  268MOL    C9843352   1.949   6.703   6.264  0.4363 -0.0075  0.0213
  268MOL    C9943353   1.924   6.673   6.119  0.6757 -0.2753  0.0344
  268MOL   N10043354   2.057   6.656   6.064  0.1434 -0.3244  0.2905
  268MOL   H10143355   2.015   6.789   6.275  1.4567 -0.9579  1.6356
  268MOL   H10243356   2.012   6.621   6.300  0.3292 -0.5769 -1.0532
  268MOL   H10343357   1.871   6.758   6.077  0.0129 -0.5864  0.2273
  268MOL   H10443358   2.076   6.748   6.026 -1.9249 -0.3124 -0.7922
  268MOL   H10543359   2.119   6.627   6.138  0.8823 -0.0077 -0.1927
  268MOL   C10643360   1.842   6.543   6.101 -0.4099 -0.8249 -0.5624
  268MOL   C10743361   1.792   6.526   5.954 -0.5790 -0.9798 -0.0200
  268MOL   N10843362   1.756   6.386   5.934 -0.6508  0.2530  0.1413
  268MOL   H10943363   1.901   6.454   6.123  2.4416  1.0966 -0.1317
  268MOL   H11043364   1.747   6.544   6.155  0.1418  1.8112  0.4004
  268MOL   H11143365   1.878   6.544   5.890 -1.0801  0.4489 -0.2930
  268MOL   H11243366   1.724   6.386   5.838 -2.1194  0.0958  0.6214
  268MOL   H11343367   1.843   6.334   5.927 -1.6878 -1.3974 -0.9396
  268MOL   C11443368   1.661   6.601   5.931  0.0895 -0.2516 -0.4027
  268MOL   C11543369   1.624   6.620   5.782  0.5275  0.6453  0.9202
  268MOL   N11643370   1.489   6.674   5.776  0.2413  0.2902  0.3080
  268MOL   H11743371   1.588   6.547   5.992 -1.0849  1.1161 -0.5689
  268MOL   H11843372   1.668   6.695   5.985  2.1162 -1.0654  0.8308
  268MOL   H11943373   1.615   6.525   5.729  2.1806  0.9678  0.0045
  268MOL   H12043374   1.468   6.716   5.686  2.0919  1.6730  0.4983
  268MOL   H12143375   1.420   6.603   5.791  1.8305 -1.0550  1.3992
  268MOL   C12243376   1.712   6.720   5.700  0.3994  0.4566  0.5562
  268MOL   C12343377   1.826   6.654   5.618  0.1639 -0.2776 -0.4669
  268MOL   N12443378   1.774   6.615   5.490 -0.1760 -0.3184  0.0811
  268MOL   H12543379   1.651   6.787   5.638  2.0006 -0.7377 -2.3930
  268MOL   H12643380   1.747   6.792   5.775  0.5717 -0.7506  1.6502
  268MOL   H12743381   1.870   6.567   5.667  3.2164  1.3647 -0.1773
  268MOL   H12843382   1.706   6.540   5.496  0.5142 -0.9294  0.2398
  268MOL   H12943383   1.853   6.567   5.450 -0.1393  0.3719 -0.6648
  268MOL   C13043384   1.944   6.756   5.591  0.0969  1.0123 -0.5640
  268MOL   C13143385   2.035   6.787   5.711  0.2175  0.1308 -0.0584
  268MOL   N13243386   2.143   6.692   5.715 -0.5578  0.0373 -0.3886
  268MOL   H13343387   1.994   6.739   5.495 -0.5730 -2.8929 -0.3256
  268MOL   H13443388   1.891   6.849   5.574  0.7641  1.4820 -0.1214
  268MOL   H13543389   1.981   6.768   5.804  2.1693 -2.5168  0.5859
  268MOL   H13643390   2.194   6.691   5.802  1.0743  0.9858 -1.3209
  268MOL   H13743391   2.210   6.723   5.645 -0.6200 -0.9915 -0.9266
  268MOL   C13843392   2.086   6.928   5.727 -0.0188  1.0451  0.7700
  268MOL   C13943393   1.988   7.010   5.816 -0.3401 -0.1085  0.5516
  268MOL   N14043394   2.002   6.970   5.959 -0.4166 -0.6538 -0.3032
  268MOL   H14143395   2.184   6.921   5.774  0.6051  1.0187 -0.4902
  268MOL   H14243396   2.097   6.973   5.628 -3.5949  0.2626 -0.0790
  268MOL   H14343397   1.888   6.986   5.779 -0.9121  3.2029 -0.1669
  268MOL   H14443398   1.970   7.049   6.015  3.0901 -1.0377  2.3916
  268MOL   H14543399   1.937   6.893   5.970 -1.0730 -0.1429 -0.5440
  268MOL   C14643400   2.024   7.160   5.821  0.0436 -0.1590  0.5615
  268MOL   C14743401   2.021   7.233   5.682  0.4380 -0.1166 -0.1293
  268MOL   N14843402   1.931   0.070   5.689  0.0531 -0.0211 -0.8295
  268MOL   H14943403   1.961   7.212   5.893  0.1881  1.4350 -0.4392
  268MOL   H15043404   2.125   7.164   5.860 -0.1116 -1.9599  1.2196
  268MOL   H15143405   1.980   7.174   5.600  2.5655  1.0539 -2.0996
  268MOL   H15243406   1.913   0.096   5.593 -0.0816 -1.4892 -1.2168
  268MOL   H15343407   1.837   0.048   5.720 -0.6906  0.8733 -2.3584
  268MOL   C15443408   2.162   0.014   5.635  0.3208 -0.3414 -0.5214
  268MOL   C15543409   2.259   7.179   5.593  0.7858  0.0869  0.0839
  268MOL   N15643410   2.379   7.228   5.528 -0.0639 -0.1061  0.3017
  268MOL   H15743411   2.143   0.072   5.544  0.7974 -1.4224 -1.3291
  268MOL   H15843412   2.205   0.077   5.713 -1.5996  1.9444 -1.2510
  268MOL   H15943413   2.216   7.105   5.526  1.1145  0.8183 -0.9514
  268MOL   H16043414   2.438   0.008   5.588  0.6962 -0.5863  0.0003
  268MOL   H16143415   2.437   7.146   5.523 -0.0402 -0.1256  0.8635
  268MOL   H16243416   2.289   7.137   5.689 -0.6893  1.2451  1.0888
  269MOL     C143417   0.801   0.547   1.970 -0.2900 -0.1627 -1.0047
  269MOL     C243418   0.740   0.686   1.953  0.5732  0.5838 -0.0921
  269MOL     N343419   0.767   0.767   2.069  0.0489 -0.0201  0.9603
  269MOL     H443420   0.827   0.517   2.072 -2.6004 -2.8169 -1.1184
  269MOL     H543421   0.884   0.528   1.902  0.1208 -1.0696 -0.2735
  269MOL     H643422   0.634   0.673   1.935  0.5869  2.2889 -1.4212
  269MOL     H743423   0.750   0.712   2.152  1.2424  0.6665  1.6818
  269MOL     H843424   0.685   0.825   2.072 -0.3711 -0.4925 -0.5453
  269MOL     H943425   0.725   0.473   1.944  0.1274 -1.6435  1.7463
  269MOL    C1043426   0.782   0.755   1.824 -0.6693  0.0102 -0.3295
  269MOL    C1143427   0.733   0.685   1.697  0.3695  0.4400  0.0733
  269MOL    N1243428   0.585   0.700   1.685  0.1085  0.0834  0.5370
  269MOL    H1343429   0.739   0.855   1.823  1.8216  1.1003 -0.0166
  269MOL    H1443430   0.889   0.774   1.824 -0.6634 -0.0069 -1.2094
  269MOL    H1543431   0.768   0.582   1.698  1.4582  0.7614 -1.9812
  269MOL    H1643432   0.551   0.684   1.592 -0.9942  0.6441  0.8323
  269MOL    H1743433   0.561   0.797   1.700  0.9203  0.3309  0.2663
  269MOL    C1843434   0.786   0.753   1.569  0.4748  0.0404 -0.4670
  269MOL    C1943435   0.939   0.739   1.548  0.0881  0.4181  0.1597
  269MOL    N2043436   0.969   0.662   1.426 -0.5404 -0.1259  0.6324
  269MOL    H2143437   0.725   0.700   1.497  0.6193 -3.0414  1.5934
  269MOL    H2243438   0.764   0.860   1.564 -1.9894 -0.3188  1.5087
  269MOL    H2343439   0.979   0.676   1.627 -0.9807  1.5882  1.6621
  269MOL    H2443440   0.944   0.723   1.350  2.4140  1.0186  0.4828
  269MOL    H2543441   0.903   0.587   1.424 -1.1816  0.3470  2.7701
  269MOL    C2643442   1.013   0.874   1.528 -0.3848  0.0571  0.2190
  269MOL    C2743443   1.044   0.951   1.661 -0.2562  0.1402 -0.0205
  269MOL    N2843444   1.145   0.880   1.738  0.3295 -0.0060 -0.4608
  269MOL    H2943445   1.108   0.865   1.476  0.6162  0.6078  1.9325
  269MOL    H3043446   0.951   0.942   1.470 -0.9973  0.4768  1.3496
  269MOL    H3143447   0.954   0.966   1.721 -1.2378 -1.1319 -1.1429
  269MOL    H3243448   1.102   0.791   1.759 -1.9158  0.7032 -1.8842
  269MOL    H3343449   1.223   0.866   1.676  0.5538  1.6106 -0.5531
  269MOL    C3443450   1.112   1.086   1.622  0.2736  0.0308 -0.3278
  269MOL    C3543451   1.017   1.204   1.593 -0.0360 -0.3128  0.2388
  269MOL    N3643452   1.059   1.333   1.644 -1.0268 -0.1625  0.1292
  269MOL    H3743453   1.186   1.120   1.694  0.6799 -1.2689 -0.1081
  269MOL    H3843454   1.174   1.071   1.534  1.7061 -0.7787  0.7977
  269MOL    H3943455   0.922   1.177   1.639  0.1169 -1.1014  0.0983
  269MOL    H4043456   1.056   1.320   1.744 -2.5451  0.5695  0.1892
  269MOL    H4143457   1.002   1.416   1.632 -0.7376 -0.1221 -0.9796
  269MOL    C4243458   0.991   1.217   1.449 -0.7367 -0.2934  0.0273
  269MOL    C4343459   0.852   1.264   1.395 -0.0835  0.1617 -0.2929
  269MOL    N4443460   0.868   1.337   1.269  0.9242  0.1954  0.3417
  269MOL    H4543461   1.056   1.301   1.423 -0.5474 -0.0403  1.2489
  269MOL    H4643462   1.022   1.132   1.389  0.8833 -0.7352  1.4129
  269MOL    H4743463   0.817   1.341   1.464  1.5079 -0.8248  1.6750
  269MOL    H4843464   0.914   1.422   1.296  1.5291 -0.1896  0.5477
  269MOL    H4943465   0.931   1.288   1.206 -1.5207  0.3320 -2.3106
  269MOL    C5043466   0.748   1.155   1.382 -0.7518 -0.5485 -0.4855
  269MOL    C5143467   0.601   1.176   1.420  0.1677  0.2774 -0.2517
  269MOL    N5243468   0.541   1.176   1.290 -0.6815  0.0652 -0.5119
  269MOL    H5343469   0.762   1.101   1.288  0.4410 -1.0239 -0.0560
  269MOL    H5443470   0.782   1.076   1.449  1.6124 -0.7297 -1.8291
  269MOL    H5543471   0.582   1.276   1.458  1.0024  0.2665  0.2039
  269MOL    H5643472   0.570   1.261   1.244 -3.0861  1.7882  1.0104
  269MOL    H5743473   0.584   1.105   1.232  0.1050  1.0713 -1.1604
  269MOL    C5843474   0.551   1.060   1.509  0.8827 -0.6966 -1.1332
  269MOL    C5943475   0.542   1.093   1.660  1.2029 -0.3685 -0.6529
  269MOL    N6043476   0.488   0.984   1.734 -0.5415 -0.4349  0.4108
  269MOL    H6143477   0.452   1.038   1.468 -0.3535  1.3611  0.6211
  269MOL    H6243478   0.609   0.970   1.487  0.4534 -0.9297 -1.3227
  269MOL    H6343479   0.463   1.167   1.674  1.2940 -0.5612  0.8675
  269MOL    H6443480   0.437   1.016   1.815 -1.5459 -1.7900  0.3319
  269MOL    H6543481   0.421   0.938   1.674 -1.5111  1.4980 -0.0110
  269MOL    C6643482   0.674   1.141   1.726  0.8295 -0.3819  0.4885
  269MOL    C6743483   0.639   1.200   1.868  0.1251  0.5064  0.1714
  269MOL    N6843484   0.726   1.146   1.971 -0.0746  0.2280  0.3281
  269MOL    H6943485   0.739   1.054   1.734 -0.3012 -1.2278  0.5579
  269MOL    H7043486   0.731   1.209   1.662 -0.4883 -1.4705 -1.9165
  269MOL    H7143487   0.535   1.189   1.898  0.7333 -0.5949  1.9389
  269MOL    H7243488   0.666   1.136   2.052 -1.2027 -2.1603 -0.7488
  269MOL    H7343489   0.744   1.049   1.950  0.9828  0.3141  0.8360
  269MOL    C7443490   0.666   1.352   1.866 -0.1377  0.6218  0.0914
  269MOL    C7543491   0.581   1.437   1.769  0.6187 -0.4686  0.6082
  269MOL    N7643492   0.462   1.483   1.840  0.0396  0.4900  0.6473
  269MOL    H7743493   0.648   1.392   1.965 -1.1817  0.0760  0.1260
  269MOL    H7843494   0.772   1.369   1.843  0.2489 -3.4060 -1.6240
  269MOL    H7943495   0.555   1.375   1.683  2.7184 -0.5099 -0.0246
  269MOL    H8043496   0.411   1.544   1.779  0.3695 -1.6623 -1.8475
  269MOL    H8143497   0.494   1.535   1.921 -0.2293  1.3017  0.2451
  269MOL    C8243498   0.667   1.550   1.720  0.3014 -0.2140 -0.1094
  269MOL    C8343499   0.602   1.661   1.623 -0.4469  0.7899 -1.1150
  269MOL    N8443500   0.698   1.765   1.611 -0.0185  0.5871 -0.3631
  269MOL    H8543501   0.719   1.605   1.798  2.0859  0.1611 -1.5137
  269MOL    H8643502   0.745   1.500   1.662  0.4107 -0.8251  0.5479
  269MOL    H8743503   0.504   1.695   1.658  0.2602  0.2771  1.4356
  269MOL    H8843504   0.647   1.843   1.572  1.3089  1.8090  0.3240
  269MOL    H8943505   0.764   1.758   1.535  0.0127  1.3490 -0.4106
  269MOL    C9043506   0.573   1.603   1.483  0.0984 -0.5335  0.4150
  269MOL    C9143507   0.486   1.684   1.389 -0.0498  0.2366 -0.3865
  269MOL    N9243508   0.543   1.813   1.351  0.6153 -0.0395 -0.0890
  269MOL    H9343509   0.659   1.555   1.436 -0.3803 -2.6047  1.5808
  269MOL    H9443510   0.506   1.520   1.504  1.0317 -1.1341  1.0655
  269MOL    H9543511   0.386   1.704   1.427 -0.2499  0.2193 -0.9045
  269MOL    H9643512   0.515   1.825   1.254 -0.1626  2.2361  0.3809
  269MOL    H9743513   0.644   1.805   1.352  0.7594  1.6431  1.3673
  269MOL    C9843514   0.464   1.603   1.253 -0.5961  0.1273 -0.0388
  269MOL    C9943515   0.338   1.652   1.171  0.7449  0.3246 -0.4934
  269MOL   N10043516   0.385   1.667   1.038  0.1606 -0.1526  0.1141
  269MOL   H10143517   0.552   1.608   1.189  0.2991 -0.1032  1.1578
  269MOL   H10243518   0.456   1.496   1.271  0.6514  0.3492  2.0555
  269MOL   H10343519   0.286   1.741   1.205 -2.5419 -2.5725  2.5682
  269MOL   H10443520   0.364   1.763   1.012  0.5389  0.0104  0.3965
  269MOL   H10543521   0.323   1.609   0.984 -1.1829  1.3836 -0.0404
  269MOL   C10643522   0.231   1.544   1.173  0.0426 -0.8432 -0.1000
  269MOL   C10743523   0.142   1.556   1.299 -0.3752  0.0411  0.6046
  269MOL   N10843524   0.045   1.661   1.277  0.7909  0.4386 -0.6151
  269MOL   H10943525   0.172   1.563   1.083  0.7072 -1.0502 -0.5859
  269MOL   H11043526   0.278   1.446   1.159 -1.4797 -1.3644 -1.8094
  269MOL   H11143527   0.209   1.584   1.381 -0.0993 -0.3584  0.5216
  269MOL   H11243528   0.083   1.754   1.280  1.8715 -0.0153 -0.1437
  269MOL   H11343529   7.246   1.659   1.345 -0.2060  1.5910 -1.6526
  269MOL   C11443530   0.059   1.432   1.351  0.0564 -0.3657  0.5926
  269MOL   C11543531   0.140   1.303   1.379 -0.2769 -0.1759 -0.0998
  269MOL   N11643532   0.261   1.329   1.465 -0.0257 -0.4817  0.4106
  269MOL   H11743533   0.005   1.452   1.443  0.1636 -1.6294  0.9427
  269MOL   H11843534   7.263   1.409   1.272  1.1890  0.1566 -0.6145
  269MOL   H11943535   0.180   1.272   1.282 -0.7657  2.5513 -1.2455
  269MOL   H12043536   0.239   1.343   1.562 -0.2011  1.5688  0.0959
  269MOL   H12143537   0.337   1.262   1.476  1.0430  0.6116 -0.1311
  269MOL   C12243538   0.041   1.197   1.433  0.1142  0.6096  0.2689
  269MOL   C12343539   0.084   1.057   1.403 -0.1785 -0.3661  0.1678
  269MOL   N12443540   0.004   0.979   1.496  1.2029  0.1330 -0.3860
  269MOL   H12543541   0.015   1.219   1.536 -0.5183  0.6375  0.1042
  269MOL   H12643542   7.231   1.211   1.367  1.5040 -2.6430 -2.3627
  269MOL   H12743543   0.189   1.051   1.431 -0.1860 -1.3444  0.0020
  269MOL   H12843544   0.048   0.889   1.499 -1.0558 -1.0779 -2.2666
  269MOL   H12943545   7.186   0.956   1.467  0.5785  1.2656  0.6642
  269MOL   C13043546   0.070   1.014   1.254 -0.5477  0.6360  0.5805
  269MOL   C13143547   0.139   0.889   1.206 -0.5473  0.3898 -0.7404
  269MOL   N13243548   0.101   0.850   1.069  0.0449 -0.1310  0.5049
  269MOL   H13343549   7.241   1.004   1.228 -0.0163  0.4852 -1.6235
  269MOL   H13443550   0.109   1.093   1.190 -0.6972 -0.0940 -0.4304
  269MOL   H13543551   0.099   0.809   1.268  3.4849 -0.6345  0.7007
  269MOL   H13643552   0.007   0.814   1.067  0.2896 -0.8204  1.1378
  269MOL   H13743553   0.152   0.768   1.040  2.5253  0.7492  2.1654
  269MOL   C13843554   0.293   0.888   1.227  0.0487 -0.6443 -0.2574
  269MOL   C13943555   0.330   0.767   1.312 -0.1225  0.4751 -0.1186
  269MOL   N14043556   0.473   0.728   1.295  0.0321 -0.8260 -0.3511
  269MOL   H14143557   0.344   0.877   1.131  1.6485 -2.2536  0.7668
  269MOL   H14243558   0.316   0.978   1.283 -0.2241 -0.9333  0.3284
  269MOL   H14343559   0.283   0.675   1.276  2.7479 -1.0327 -0.1220
  269MOL   H14443560   0.516   0.819   1.286  0.9325 -1.1903  0.2953
  269MOL   H14543561   0.484   0.693   1.201  0.5223 -0.5192 -0.4116
  269MOL   C14643562   0.308   0.775   1.461 -0.0546 -0.1721  0.5477
  269MOL   C14743563   0.285   0.638   1.530  0.1702  1.6853 -0.1750
  269MOL   N14843564   0.281   0.657   1.675  0.0919 -0.1853  0.2222
  269MOL   H14943565   0.388   0.828   1.513 -0.3720  0.7983  0.0741
  269MOL   H15043566   0.220   0.837   1.479 -0.7642 -1.1864  0.6192
  269MOL   H15143567   0.367   0.573   1.498 -1.0609  0.0438 -0.0516
  269MOL   H15243568   0.359   0.716   1.699 -0.7143  0.6845  0.7192
  269MOL   H15343569   0.308   0.570   1.718 -0.1862  0.6108  2.0476
  269MOL   C15443570   0.162   0.552   1.493 -0.3737 -1.1879 -0.0373
  269MOL   C15543571   0.024   0.616   1.519  0.1800 -0.2769  0.2850
  269MOL   N15643572   7.199   0.524   1.470 -0.3295  0.0444 -0.0738
  269MOL   H15743573   0.172   0.522   1.389  1.6222  0.5184 -0.3707
  269MOL   H15843574   0.165   0.455   1.541  0.2056 -1.2458 -0.1923
  269MOL   H15943575   0.015   0.713   1.470 -2.3747  0.1306  1.4490
  269MOL   H16043576   7.108   0.566   1.479 -0.2868  0.0013  0.6752
  269MOL   H16143577   7.207   0.513   1.370  1.4878  1.4989 -0.1154
  269MOL   H16243578   0.009   0.642   1.624  0.2067 -0.3924  0.3169
  270MOL     C143579   2.358   0.747   7.193  0.0400  0.5286  0.1571
  270MOL     C243580   2.473   0.794   7.107  0.4921 -0.1308  0.2606
  270MOL     N343581   2.495   0.695   7.000  0.1360  0.4742 -0.7676
  270MOL     H443582   2.359   0.803   0.011 -2.7552  1.8611 -0.5517
  270MOL     H543583   2.372   0.641   7.211  0.5471  0.4017 -0.9575
  270MOL     H643584   2.561   0.781   7.169 -0.0932 -3.3414  0.5103
  270MOL     H743585   2.412   0.712   6.944  0.4128 -0.9130 -1.6119
  270MOL     H843586   2.560   0.724   6.928  1.3233 -1.5274 -0.5269
  270MOL     H943587   2.261   0.756   7.143  0.4502  1.0643 -0.5539
  270MOL    C1043588   2.453   0.940   7.057  0.0097 -0.3142 -0.3112
  270MOL    C1143589   2.480   1.035   7.179 -0.1556  0.1636 -0.0218
  270MOL    N1243590   2.621   1.035   7.204 -0.3799  0.1064 -0.0437
  270MOL    H1343591   2.514   0.964   6.970 -0.7182 -1.5517 -1.1916
  270MOL    H1443592   2.354   0.966   7.020  0.1171  0.7633  0.1309
  270MOL    H1543593   2.439   1.003   7.275 -0.7924 -2.8324 -1.2506
  270MOL    H1643594   2.627   1.107   7.275 -0.6739  0.7903 -0.7174
  270MOL    H1743595   2.643   0.952   7.257  1.8598  0.3042 -0.5994
  270MOL    C1843596   2.421   1.172   7.165  0.2980 -0.4494 -0.1761
  270MOL    C1943597   2.376   1.249   0.013 -0.5206  0.1086 -1.1150
  270MOL    N2043598   2.394   1.388   7.266 -0.2173  0.5939  0.6027
  270MOL    H2143599   2.495   1.232   7.111  1.3565  0.1133  1.8451
  270MOL    H2243600   2.334   1.175   7.100 -0.2803 -1.3398  0.5561
  270MOL    H2343601   2.436   1.212   0.097  0.7578  0.6284 -1.7911
  270MOL    H2443602   2.389   1.434   0.080 -0.2886  1.5065  0.1386
  270MOL    H2543603   2.493   1.390   7.245 -0.3058 -0.2221  0.1182
  270MOL    C2643604   2.226   1.222   0.055  0.2045 -0.2393 -0.4354
  270MOL    C2743605   2.200   1.090   0.133  0.1163 -0.0885 -0.5291
  270MOL    N2843606   2.254   1.101   0.269 -0.7345  0.6871  0.3286
  270MOL    H2943607   2.176   1.302   0.111 -1.2639 -0.8778 -0.8234
  270MOL    H3043608   2.169   1.215   7.238 -0.1760  1.8682 -0.3862
  270MOL    H3143609   2.255   1.006   0.091  1.5709  1.3723 -1.5628
  270MOL    H3243610   2.330   1.036   0.283 -1.2476  0.1743  0.7562
  270MOL    H3343611   2.191   1.048   0.327 -0.5165  0.5029  0.4021
  270MOL    C3443612   2.049   1.055   0.153  0.1435 -0.6224 -0.5958
  270MOL    C3543613   2.029   0.902   0.164 -0.1445  0.4187  0.1955
  270MOL    N3643614   2.045   0.877   0.305  0.0116 -0.2125  0.0649
  270MOL    H3743615   1.995   1.113   0.228 -1.0263 -1.5660 -0.7042
  270MOL    H3843616   1.999   1.086   0.062  0.6332  2.7768  0.2330
  270MOL    H3943617   2.108   0.850   0.110 -1.7790  0.8053 -2.6293
  270MOL    H4043618   1.959   0.885   0.357 -0.0186  1.5501 -0.2200
  270MOL    H4143619   2.083   0.785   0.325 -0.5147 -0.3958  0.2255
  270MOL    C4243620   1.889   0.861   0.135  0.4383 -0.6475 -0.0553
  270MOL    C4343621   1.847   0.857   7.256 -0.1445  0.1990  0.7765
  270MOL    N4443622   1.925   0.750   7.191  0.3948 -0.1840  0.4611
  270MOL    H4543623   1.876   0.760   0.175  0.6027 -1.2219 -1.3960
  270MOL    H4643624   1.820   0.933   0.178 -0.3108 -1.1466 -0.3965
  270MOL    H4743625   1.878   0.957   7.225  0.7836  0.0864  1.3043
  270MOL    H4843626   1.925   0.733   7.092  1.7012  0.6763  0.2950
  270MOL    H4943627   1.935   0.659   7.234  0.5538 -2.0418 -3.3160
  270MOL    C5043628   1.702   0.824   7.249 -0.1551 -0.3100 -0.4162
  270MOL    C5143629   1.606   0.930   0.035 -0.0475 -0.5346 -0.2123
  270MOL    N5243630   1.567   1.022   7.199  0.3466  0.2406  0.6079
  270MOL    H5343631   1.669   0.808   7.146  0.2558 -1.3306 -0.3986
  270MOL    H5443632   1.683   0.734   0.034  0.7074 -0.0198  0.2902
  270MOL    H5543633   1.652   1.000   0.105 -2.0358 -2.4773  3.0911
  270MOL    H5643634   1.487   1.072   7.234  0.9222  0.0333  2.2598
  270MOL    H5743635   1.632   1.095   7.175  0.4127 -0.2249 -0.6320
  270MOL    C5843636   1.486   0.869   0.112 -0.5028  0.6365 -0.5906
  270MOL    C5943637   1.530   0.844   0.263 -0.4229 -0.3061 -0.0987
  270MOL    N6043638   1.519   0.965   0.341  0.7285  0.8826 -0.4000
  270MOL    H6143639   1.391   0.922   0.117 -1.3334 -0.9736  1.3145
  270MOL    H6243640   1.454   0.773   0.072 -2.8642  0.5555  1.3679
  270MOL    H6343641   1.633   0.809   0.258 -0.8589 -1.3481 -2.2302
  270MOL    H6443642   1.423   0.994   0.330  0.0646 -1.0157  0.1821
  270MOL    H6543643   1.577   1.046   0.325  0.9576  0.7403 -0.2894
  270MOL    C6643644   1.450   0.729   0.322  0.0279  0.7979  0.2971
  270MOL    C6743645   1.499   0.582   0.285 -0.0402 -0.7163 -0.4964
  270MOL    N6843646   1.641   0.564   0.294 -0.2362 -0.5934 -0.7251
  270MOL    H6943647   1.446   0.737   0.431 -0.5902  1.0879  0.2551
  270MOL    H7043648   1.345   0.734   0.293  0.1872 -2.2763 -0.9763
  270MOL    H7143649   1.471   0.572   0.181 -2.3166  0.1098  0.0139
  270MOL    H7243650   1.659   0.480   0.241 -0.9399 -1.2653  0.0753
  270MOL    H7343651   1.690   0.642   0.252  0.3399  0.6077  2.0394
  270MOL    C7443652   1.437   0.475   0.377  0.1468 -0.4295 -0.2341
  270MOL    C7543653   1.290   0.445   0.359  0.0106  0.8096  0.3418
  270MOL    N7643654   1.264   0.304   0.390  0.7977 -0.5932  0.2371
  270MOL    H7743655   1.496   0.387   0.351  0.4653  0.0389 -1.0900
  270MOL    H7843656   1.460   0.498   0.481 -1.2537  0.3761 -0.0834
  270MOL    H7943657   1.274   0.472   0.255  1.1716 -1.5396 -0.4860
  270MOL    H8043658   1.281   0.237   0.317  0.3233 -0.1903 -0.2413
  270MOL    H8143659   1.166   0.283   0.389  0.8531 -0.7964 -1.6308
  270MOL    C8243660   1.212   0.525   0.461 -0.0029 -0.5851  0.0727
  270MOL    C8343661   1.067   0.528   0.426  0.8513 -0.6135  0.3934
  270MOL    N8443662   0.992   0.593   0.532  0.3144  0.3813 -0.1545
  270MOL    H8543663   1.227   0.485   0.561  0.9551  0.7797  0.4844
  270MOL    H8643664   1.241   0.630   0.470 -1.1969 -0.2100 -0.3775
  270MOL    H8743665   1.032   0.425   0.429  0.4094 -0.4935 -0.6632
  270MOL    H8843666   0.954   0.517   0.586 -0.9054  0.2919 -1.1273
  270MOL    H8943667   1.050   0.642   0.598  0.1929  0.4444 -0.0937
  270MOL    C9043668   1.034   0.593   0.290  0.2081 -0.4853  0.1555
  270MOL    C9143669   0.895   0.552   0.238 -0.0842  0.1962 -0.2171
  270MOL    N9243670   0.857   0.647   0.127  0.1060 -0.1478 -0.0025
  270MOL    H9343671   1.032   0.701   0.304 -2.6520 -0.8197  2.7826
  270MOL    H9443672   1.107   0.571   0.213  1.1736  1.2209  0.5625
  270MOL    H9543673   0.820   0.562   0.316  1.4311  0.1657  1.2539
  270MOL    H9643674   0.859   0.736   0.175  1.4157 -0.5675  0.7573
  270MOL    H9743675   0.760   0.634   0.101  0.5148  0.4802 -1.9117
  270MOL    C9843676   0.891   0.417   0.162 -0.5036 -0.0643  0.1934
  270MOL    C9943677   0.897   0.282   0.241 -0.0782 -0.5063  0.1114
  270MOL   N10043678   0.777   0.272   0.322 -0.3105 -0.2422 -0.3078
  270MOL   H10143679   0.803   0.402   0.099 -0.2884 -1.9829  0.3138
  270MOL   H10243680   0.980   0.408   0.099  1.3354 -1.0964  2.8629
  270MOL   H10343681   0.989   0.272   0.299 -0.2895  1.4294  0.8102
  270MOL   H10443682   0.784   0.188   0.378  0.7927 -1.2400 -1.9157
  270MOL   H10543683   0.782   0.344   0.393  1.5316  1.5166 -2.1328
  270MOL   C10643684   0.897   0.165   0.142  0.3630  0.1152  0.2683
  270MOL   C10743685   1.031   0.130   0.070 -0.0910 -0.5047  0.9025
  270MOL   N10843686   1.121   0.072   0.175  0.3795 -0.3216 -0.3094
  270MOL   H10943687   0.886   0.065   0.185 -1.8734 -0.4041 -1.4272
  270MOL   H11043688   0.820   0.178   0.067 -0.3412  1.1266  1.1579
  270MOL   H11143689   1.069   0.219   0.020 -3.6994  0.3972 -0.3915
  270MOL   H11243690   1.090   7.256   0.205 -1.1839 -0.0446 -1.0637
  270MOL   H11343691   1.212   0.057   0.133 -0.0075 -1.2389 -0.8605
  270MOL   C11443692   1.011   0.022   7.228 -0.4594  0.0306 -0.5243
  270MOL   C11543693   1.109   0.021   7.113 -0.2565 -0.5668 -0.0585
  270MOL   N11643694   1.071   7.183   7.032  0.4794  0.2444 -0.3819
  270MOL   H11743695   1.017   7.196   7.266 -0.4531 -0.4484 -1.7663
  270MOL   H11843696   0.915   0.032   7.177  0.0165  2.1270 -1.0580
  270MOL   H11943697   1.210   7.276   7.148  0.1828  3.2420  1.2006
  270MOL   H12043698   0.993   7.217   6.979  2.4971  0.5013 -3.2888
  270MOL   H12143699   1.142   7.178   6.960  1.6879 -0.1472  0.8125
  270MOL   C12243700   1.120   0.151   7.038 -0.3783 -0.1154 -0.4835
  270MOL   C12343701   1.198   0.149   6.903  0.1984 -0.0865 -0.8441
  270MOL   N12443702   1.144   0.269   6.834 -1.0057  0.4614 -0.3688
  270MOL   H12543703   1.021   0.190   7.016 -0.0701 -0.2692 -2.1839
  270MOL   H12643704   1.168   0.233   7.091 -1.2841  0.8843 -1.2026
  270MOL   H12743705   1.177   0.066   6.836 -1.6383 -0.5848  0.2905
  270MOL   H12843706   1.179   0.355   6.874  1.3540 -0.5526 -0.1669
  270MOL   H12943707   1.177   0.266   6.738 -1.7672  1.9234 -0.6969
  270MOL   C13043708   1.350   0.159   6.915  0.6115 -0.5317 -0.7931
  270MOL   C13143709   1.429   0.062   7.008  0.7447  0.4724 -0.2576
  270MOL   N13243710   1.413   7.204   6.977  0.1471  0.0012  0.2161
  270MOL   H13343711   1.390   0.162   6.813 -1.5675 -1.0982 -1.7095
  270MOL   H13443712   1.371   0.257   6.957 -0.4930 -0.2305 -0.9179
  270MOL   H13543713   1.395   0.075   7.111 -0.6287 -1.8911 -0.3870
  270MOL   H13643714   1.410   7.187   6.878  0.8802  1.0063  0.0086
  270MOL   H13743715   1.484   7.143   7.017  1.5044  2.1637  1.2149
  270MOL   C13843716   1.581   0.084   6.996 -0.2277 -0.2674 -0.4838
  270MOL   C13943717   1.631   0.207   7.079 -0.2470  0.5680 -0.4438
  270MOL   N14043718   1.770   0.192   7.120 -0.8898  0.2050 -0.7505
  270MOL   H14143719   1.626   7.274   7.047 -1.0792 -1.2131 -1.3043
  270MOL   H14243720   1.624   0.079   6.896  0.8694  1.6377 -0.1391
  270MOL   H14343721   1.571   0.218   7.169 -0.1236 -1.4152 -0.1003
  270MOL   H14443722   1.827   0.166   7.041  0.1285 -0.2233  0.1192
  270MOL   H14543723   1.772   0.103   7.167  1.0880  0.5739 -0.0860
  270MOL   C14643724   1.636   0.342   7.003 -0.1418 -0.0956 -0.0449
  270MOL   C14743725   1.620   0.470   7.096  0.1474  0.2489  0.8232
  270MOL   N14843726   1.681   0.582   7.024  0.2315 -0.6478 -0.3194
  270MOL   H14943727   1.731   0.357   6.952  0.8011  0.5146  1.8227
  270MOL   H15043728   1.567   0.340   6.919  2.5207 -0.2249 -2.2923
  270MOL   H15143729   1.674   0.466   7.191  0.0812 -2.0519  0.7964
  270MOL   H15243730   1.779   0.561   7.016  0.0227 -1.9618  0.3799
  270MOL   H15343731   1.683   0.668   7.076  2.1668 -0.7191 -0.2526
  270MOL   C15443732   1.477   0.506   7.134 -0.7462 -0.1726 -0.0653
  270MOL   C15543733   1.405   0.400   7.221  0.2460 -0.0244 -0.1009
  270MOL   N15643734   1.275   0.448   7.262 -0.3881  0.6711 -0.5359
  270MOL   H15743735   1.471   0.607   7.176 -1.2365  0.8250 -2.4355
  270MOL   H15843736   1.416   0.509   7.043 -0.4504  2.0032 -0.2159
  270MOL   H15943737   1.464   0.367   0.031 -0.5001  1.3838  0.9832
  270MOL   H16043738   1.210   0.439   7.186  0.2638 -2.7974 -0.7566
  270MOL   H16143739   1.275   0.545   0.014 -0.4155  0.6603 -0.4971
  270MOL   H16243740   1.375   0.307   7.172 -0.7495  1.2315 -1.9371
  271MOL     C143741   2.123   0.052   0.056 -0.2270  0.2872 -0.0452
  271MOL     C243742   2.121   7.260   7.195  0.0995  0.4581 -1.2116
  271MOL     N343743   1.988   7.197   7.191 -0.6908 -0.1679 -0.0742
  271MOL     H443744   2.223   0.095   0.065  0.7361 -1.2264 -2.7115
  271MOL     H543745   2.116   7.251   0.133  2.3789 -0.1010 -0.1472
  271MOL     H643746   2.197   7.182   7.196 -0.8508 -0.4831 -0.3172
  271MOL     H743747   1.989   7.105   7.150  0.3777 -0.0344 -0.3593
  271MOL     H843748   1.925   7.200   7.270 -2.7970 -0.0450 -1.6938
  271MOL     H943749   2.050   0.130   0.080 -0.3864  0.2764 -0.4717
  271MOL    C1043750   2.148   0.077   7.066 -0.2757 -0.2963  0.3365
  271MOL    C1143751   2.295   0.128   7.059 -0.0626 -0.1338 -0.2349
  271MOL    N1243752   2.358   0.002   7.031 -0.3885 -0.0464 -0.4352
  271MOL    H1343753   2.104   0.048   6.971 -0.3441  2.0775 -0.3823
  271MOL    H1443754   2.092   0.167   7.087  1.6113  1.1476 -0.6460
  271MOL    H1543755   2.323   0.160   7.160  0.7799  0.4870 -0.6597
  271MOL    H1643756   2.331   7.210   7.101  0.0083 -1.2979 -1.4671
  271MOL    H1743757   2.453   0.010   7.064 -0.5450 -1.2248  0.3367
  271MOL    C1843758   2.331   0.235   6.954 -0.4640 -0.7741  0.0541
  271MOL    C1943759   2.272   0.372   6.994  0.4920 -0.2030 -0.3857
  271MOL    N2043760   2.335   0.413   7.119 -0.7489  0.3715  0.0056
  271MOL    H2143761   2.440   0.245   6.949 -0.7955  2.7616 -1.2900
  271MOL    H2243762   2.291   0.199   6.860 -1.0535 -0.3782  0.1550
  271MOL    H2343763   2.166   0.361   7.019  0.4643  0.2662 -0.2912
  271MOL    H2443764   2.411   0.477   7.100 -1.0163  0.9127  0.7314
  271MOL    H2543765   2.290   0.457   7.199 -0.5618  0.8991 -0.1772
  271MOL    C2643766   2.276   0.478   6.883  0.4626  0.1839 -0.1474
  271MOL    C2743767   2.196   0.451   6.750 -0.2395  0.7358  0.6904
  271MOL    N2843768   2.059   0.430   6.783  0.6284 -0.0439  0.0754
  271MOL    H2943769   2.236   0.571   6.922 -0.2406  1.0303 -2.7545
  271MOL    H3043770   2.381   0.491   6.859  0.6072 -0.2420  0.2627
  271MOL    H3143771   2.223   0.356   6.704  2.1014  1.6391  0.1708
  271MOL    H3243772   2.007   0.382   6.711  1.4553  0.0595 -0.5857
  271MOL    H3343773   2.053   0.366   6.861 -1.5323 -0.5737 -0.4760
  271MOL    C3443774   2.202   0.550   6.631 -0.2124  0.7577  0.2812
  271MOL    C3543775   2.333   0.532   6.552 -0.6108  0.5068  0.3880
  271MOL    N3643776   2.318   0.424   6.458  0.3682 -0.2179  0.8673
  271MOL    H3743777   2.112   0.535   6.571 -0.0241  0.9473 -0.0485
  271MOL    H3843778   2.199   0.648   6.677  2.2795  0.9604  0.0708
  271MOL    H3943779   2.413   0.502   6.620 -1.1106 -1.3488  0.2105
  271MOL    H4043780   2.232   0.447   6.412  0.8660 -0.3484 -0.1587
  271MOL    H4143781   2.305   0.331   6.495 -2.2116 -0.5317 -0.7256
  271MOL    C4243782   2.365   0.658   6.458 -0.4266 -0.3488  0.3130
  271MOL    C4343783   2.507   0.722   6.472  0.0557  0.2968  0.2234
  271MOL    N4443784   2.540   0.813   6.360  0.2205 -0.7186  0.3129
  271MOL    H4543785   2.355   0.634   6.352 -1.5001 -1.5053  0.6722
  271MOL    H4643786   2.287   0.733   6.463 -0.0633  0.1736 -1.5523
  271MOL    H4743787   2.587   0.649   6.470 -0.8666 -0.7366  0.9193
  271MOL    H4843788   2.632   0.853   6.371 -0.0903  0.1772 -0.3735
  271MOL    H4943789   2.469   0.884   6.357  0.7582 -0.1984 -0.1138
  271MOL    C5043790   2.526   0.793   6.609 -0.2477  0.0655 -0.3042
  271MOL    C5143791   2.668   0.769   6.672  0.5113  0.3303  0.5708
  271MOL    N5243792   2.679   0.852   6.791 -0.1012  0.3695  0.1397
  271MOL    H5343793   2.508   0.900   6.604 -0.2726  0.1484  1.1372
  271MOL    H5443794   2.454   0.752   6.680  0.3952 -0.4955  0.0372
  271MOL    H5543795   2.744   0.807   6.605 -0.7225  0.1685 -0.9366
  271MOL    H5643796   2.668   0.950   6.771  0.6067  1.0039  2.6681
  271MOL    H5743797   2.777   0.846   6.814  0.1074  2.4102 -0.1096
  271MOL    C5843798   2.697   0.625   6.714  0.1173 -0.2535  0.6911
  271MOL    C5943799   2.844   0.584   6.703  0.1126 -0.6701  0.0445
  271MOL    N6043800   2.861   0.463   6.778 -0.1842  0.2927 -0.7359
  271MOL    H6143801   2.665   0.612   6.818  0.7015 -1.7039  0.7005
  271MOL    H6243802   2.635   0.564   6.650  0.1152  0.3327  0.1297
  271MOL    H6343803   2.901   0.656   6.762 -1.1083 -1.8644  2.7445
  271MOL    H6443804   2.960   0.453   6.761 -0.0779  1.4924 -0.8954
  271MOL    H6543805   2.857   0.500   6.872  2.3625 -2.3241  0.4995
  271MOL    C6643806   2.893   0.550   6.560  0.4354 -0.0847  0.0573
  271MOL    C6743807   2.908   0.666   6.457 -0.1082 -0.2904 -0.0027
  271MOL    N6843808   3.010   0.761   6.517 -0.5866 -0.3356  0.2167
  271MOL    H6943809   2.991   0.505   6.574  0.2027 -1.3279 -2.0840
  271MOL    H7043810   2.831   0.470   6.521 -0.6572  1.6014 -1.8086
  271MOL    H7143811   2.825   0.729   6.426 -0.2878 -0.6229 -0.2017
  271MOL    H7243812   3.089   0.708   6.550  0.5092  1.0216 -0.1971
  271MOL    H7343813   2.966   0.801   6.599 -2.1004 -2.7818  0.6421
  271MOL    C7443814   2.969   0.608   6.325  0.3674 -0.2435 -0.2491
  271MOL    C7543815   2.861   0.597   6.213  0.4696  0.6913 -0.1039
  271MOL    N7643816   2.891   0.682   6.095 -0.4014 -0.1439 -0.8526
  271MOL    H7743817   3.047   0.678   6.296 -0.7784  1.2241  0.1510
  271MOL    H7843818   3.014   0.510   6.343  0.1695 -0.4868 -1.1012
  271MOL    H7943819   2.765   0.641   6.242 -0.3860 -1.3172  0.1634
  271MOL    H8043820   2.888   0.780   6.119 -1.4180 -0.1358 -1.0208
  271MOL    H8143821   2.837   0.669   6.011 -3.4445 -1.4046  1.2114
  271MOL    C8243822   2.805   0.459   6.174  0.3627 -0.0739 -0.0772
  271MOL    C8343823   2.685   0.405   6.242 -0.2864  0.4805  1.3416
  271MOL    N8443824   2.561   0.481   6.220  0.2113  0.2322 -0.2798
  271MOL    H8543825   2.788   0.439   6.068  0.6249 -0.8626  0.0268
  271MOL    H8643826   2.888   0.397   6.210  0.2468  1.2039  2.4983
  271MOL    H8743827   2.701   0.414   6.349  2.4607  1.2697  0.9203
  271MOL    H8843828   2.557   0.577   6.252 -1.1832  0.3113 -0.6624
  271MOL    H8943829   2.480   0.447   6.269 -1.7283  3.2678 -1.2205
  271MOL    C9043830   2.667   0.255   6.207  0.0957  0.0762 -0.4920
  271MOL    C9143831   2.785   0.170   6.251  0.2363 -0.4949  0.0791
  271MOL    N9243832   2.743   0.050   6.320  0.1349 -0.0903 -0.5728
  271MOL    H9343833   2.575   0.222   6.254  1.0792 -0.6233  0.9724
  271MOL    H9443834   2.640   0.235   6.103 -0.4548  0.3955 -0.4117
  271MOL    H9543835   2.835   0.214   6.337 -0.7227  1.7443 -0.4767
  271MOL    H9643836   2.748   0.069   6.419 -0.1344 -0.2180 -0.5362
  271MOL    H9743837   2.818   7.260   6.302  0.5705  0.0940  0.5319
  271MOL    C9843838   2.877   0.128   6.140  0.8477 -0.8734  0.3142
  271MOL    C9943839   3.021   0.082   6.194  0.0046  0.5397  0.2507
  271MOL   N10043840   3.005   7.209   6.206 -0.4622 -0.1877  0.4308
  271MOL   H10143841   2.832   0.054   6.074 -1.2134  0.9852 -0.4486
  271MOL   H10243842   2.889   0.217   6.078  1.3218 -0.3801  1.1100
  271MOL   H10343843   3.046   0.120   6.293 -0.0154 -0.1257  0.5188
  271MOL   H10443844   2.944   7.158   6.144 -0.3960 -2.0874  1.8794
  271MOL   H10543845   3.093   7.162   6.196 -0.7542 -0.4695 -0.8232
  271MOL   C10643846   3.135   0.100   6.088  0.5723 -0.0854  0.3181
  271MOL   C10743847   3.199   0.237   6.075 -0.6788 -0.3561  0.3653
  271MOL   N10843848   3.327   0.214   6.018 -0.4113 -0.1033  0.1047
  271MOL   H10943849   3.223   0.041   6.113  0.9790  0.5000  0.2815
  271MOL   H11043850   3.108   0.060   5.990 -1.5770 -1.8912  1.5872
  271MOL   H11143851   3.216   0.282   6.172  2.3621 -0.3105 -0.1230
  271MOL   H11243852   3.377   0.299   5.998 -1.4343  0.3894 -0.3842
  271MOL   H11343853   3.316   0.157   5.936 -0.4385 -2.5329  1.7550
  271MOL   C11443854   3.126   0.329   5.975  0.4071  0.7418 -0.3028
  271MOL   C11543855   3.198   0.459   5.927 -0.5132 -0.3300  0.1317
  271MOL   N11643856   3.094   0.537   5.865  0.8962 -1.0097  0.9940
  271MOL   H11743857   3.082   0.268   5.896  1.1957 -0.8701  0.4900
  271MOL   H11843858   3.038   0.365   6.028  0.6083 -0.4456  0.8676
  271MOL   H11943859   3.274   0.435   5.853  1.2197 -2.9980  2.6553
  271MOL   H12043860   3.148   0.618   5.838  0.7552 -0.8048  1.3181
  271MOL   H12143861   3.049   0.570   5.949 -1.8651  1.3950 -1.3353
  271MOL   C12243862   3.255   0.552   6.033 -0.1691 -0.1072 -0.3519
  271MOL   C12343863   3.384   0.611   5.977  0.1684  0.4139  0.5257
  271MOL   N12443864   3.398   0.745   6.028  0.0341  0.5420  0.0297
  271MOL   H12543865   3.185   0.625   6.074 -0.0919 -0.5376  0.5543
  271MOL   H12643866   3.265   0.508   6.132 -1.1944 -0.7819 -0.5384
  271MOL   H12743867   3.364   0.625   5.871 -0.5944  2.2695  0.8756
  271MOL   H12843868   3.479   0.794   5.993  0.6026  0.9792  1.8815
  271MOL   H12943869   3.316   0.789   5.990  2.0063  2.6738 -1.8866
  271MOL   C13043870   3.508   0.523   5.996 -0.2086  0.2123  0.9570
  271MOL   C13143871   3.644   0.587   5.952 -0.4334  0.3791  0.4785
  271MOL   N13243872   3.748   0.535   6.032 -0.4226 -0.2131 -0.0823
  271MOL   H13343873   3.512   0.482   6.097 -1.6217 -0.1735  0.8572
  271MOL   H13443874   3.490   0.429   5.944 -1.0515  1.5132 -1.1691
  271MOL   H13543875   3.637   0.692   5.981  0.9341  0.6196 -0.0492
  271MOL   H13643876   3.732   0.555   6.130 -0.6799 -0.5222 -0.0604
  271MOL   H13743877   3.833   0.589   6.019  0.7724 -1.8591  0.5975
  271MOL   C13843878   3.676   0.569   5.804  0.1405 -0.2357  0.3566
  271MOL   C13943879   3.625   0.691   5.726  0.0150 -0.3513 -0.1927
  271MOL   N14043880   3.718   0.800   5.725  0.0397 -0.0478  0.0135
  271MOL   H14143881   3.785   0.562   5.798  0.1319  0.3465 -0.6097
  271MOL   H14243882   3.628   0.486   5.752 -1.1776  0.7498 -0.0387
  271MOL   H14343883   3.524   0.714   5.761  0.0784 -0.6995  0.2268
  271MOL   H14443884   3.760   0.809   5.817 -2.0770 -1.0889  1.1124
  271MOL   H14543885   3.803   0.797   5.670 -1.0271  0.3946 -1.6951
  271MOL   C14643886   3.598   0.658   5.580  0.7685  0.3320 -0.0093
  271MOL   C14743887   3.524   0.758   5.497  0.0528  0.5116  1.1117
  271MOL   N14843888   3.585   0.765   5.368  0.6572  0.6067 -0.3155
  271MOL   H14943889   3.698   0.625   5.550  0.5167 -0.1447 -0.3394
  271MOL   H15043890   3.538   0.568   5.569  1.1079  0.2596 -1.4941
  271MOL   H15143891   3.538   0.857   5.539  1.9509  0.0879  1.5084
  271MOL   H15243892   3.561   0.852   5.324 -0.4219  0.6863  0.4165
  271MOL   H15343893   3.684   0.782   5.381  1.2671 -2.1405 -0.9971
  271MOL   C15443894   3.371   0.740   5.473 -0.5764 -0.5303 -0.1684
  271MOL   C15543895   3.288   0.692   5.584 -0.1197  0.3466 -0.0736
  271MOL   N15643896   3.155   0.691   5.542 -0.2231  0.2927 -0.1594
  271MOL   H15743897   3.330   0.832   5.430 -1.1180  0.2286  1.8952
  271MOL   H15843898   3.355   0.662   5.398  2.8477 -1.3260 -0.1482
  271MOL   H15943899   3.287   0.759   5.670  2.6724  0.3873 -0.0369
  271MOL   H16043900   3.129   0.621   5.610 -0.8317  0.0574 -0.6303
  271MOL   H16143901   3.142   0.636   5.458 -0.1943 -0.3397  0.2431
  271MOL   H16243902   3.333   0.602   5.626  0.9512  1.6997  1.7312
  272MOL     C143903   6.496   2.028   1.563 -0.7044  0.0286 -0.0972
  272MOL     C243904   6.428   1.952   1.442  0.0469  0.1453 -0.4096
  272MOL     N343905   6.530   1.909   1.354 -0.3007  0.3190 -0.0600
  272MOL     H443906   6.419   2.074   1.625  0.0415 -2.1838  2.5615
  272MOL     H543907   6.579   2.092   1.537 -0.0483 -0.2035  1.3825
  272MOL     H643908   6.369   2.018   1.378 -1.4470  0.5428  1.3268
  272MOL     H743909   6.481   1.870   1.275 -0.2496  0.4123 -0.1395
  272MOL     H843910   6.563   1.989   1.302 -2.6734  1.0530 -0.4915
  272MOL     H943911   6.536   1.947   1.624  0.1216  0.7509  0.3200
  272MOL    C1043912   6.335   1.835   1.497  0.0599  0.1180  0.1088
  272MOL    C1143913   6.233   1.877   1.606  0.4080 -0.9035  0.1741
  272MOL    N1243914   6.137   1.979   1.552  0.4738 -0.0491  0.1550
  272MOL    H1343915   6.279   1.807   1.408  0.8270  1.8527 -0.9521
  272MOL    H1443916   6.390   1.750   1.537  2.0159  1.8473  1.2457
  272MOL    H1543917   6.288   1.916   1.691  0.8708  2.1286 -1.4588
  272MOL    H1643918   6.055   1.991   1.609  1.0740 -0.7238  1.1703
  272MOL    H1743919   6.181   2.069   1.562  1.3855 -0.6271  1.3935
  272MOL    C1843920   6.153   1.755   1.657 -0.1212  0.0907  0.4300
  272MOL    C1943921   6.232   1.660   1.761 -0.7149  0.1292 -0.9053
  272MOL    N2043922   6.272   1.731   1.884  0.3513  0.0207  0.4153
  272MOL    H2143923   6.061   1.779   1.711 -0.6161 -0.4220 -0.1810
  272MOL    H2243924   6.125   1.694   1.571  1.1165 -0.9437  0.7516
  272MOL    H2343925   6.317   1.609   1.715 -0.3140  0.1293 -0.1661
  272MOL    H2443926   6.290   1.660   1.954  0.3233 -1.3143 -0.9077
  272MOL    H2543927   6.363   1.775   1.881  1.9215 -2.9773  1.6505
  272MOL    C2643928   6.151   1.534   1.797  0.4171 -0.2672 -0.5406
  272MOL    C2743929   6.102   1.446   1.678  0.2668 -0.1731 -0.0878
  272MOL    N2843930   6.169   1.322   1.664  0.2571  0.0174  0.3607
  272MOL    H2943931   6.212   1.480   1.869  0.7562 -0.4726 -0.9818
  272MOL    H3043932   6.066   1.580   1.848 -0.7442 -1.7909 -1.0623
  272MOL    H3143933   6.128   1.495   1.584 -0.5975 -1.9627 -1.2792
  272MOL    H3243934   6.260   1.341   1.625  0.4409 -0.8677  0.3443
  272MOL    H3343935   6.194   1.289   1.756  1.1072 -0.1296  0.0869
  272MOL    C3443936   5.946   1.410   1.682 -0.4105 -0.2360  0.3783
  272MOL    C3543937   5.863   1.528   1.646 -0.1589 -0.1040 -0.5867
  272MOL    N3643938   5.841   1.547   1.504  0.1485  0.2029 -0.2576
  272MOL    H3743939   5.924   1.332   1.609  2.2615  0.7507 -1.5803
  272MOL    H3843940   5.928   1.364   1.779 -0.8584  1.1111  0.9444
  272MOL    H3943941   5.916   1.617   1.679 -0.2140  0.6161 -2.4189
  272MOL    H4043942   5.922   1.533   1.445 -0.5761 -0.5634 -1.0938
  272MOL    H4143943   5.813   1.643   1.489 -0.1928  0.4938  2.0817
  272MOL    C4243944   5.728   1.525   1.715  0.2719 -0.6858  0.2542
  272MOL    C4343945   5.730   1.576   1.858 -0.6569  0.3255 -0.2864
  272MOL    N4443946   5.723   1.727   1.853 -0.4706 -0.0023 -0.1994
  272MOL    H4543947   5.649   1.572   1.656 -1.5024 -2.2372  1.3509
  272MOL    H4643948   5.688   1.424   1.720 -1.3482  0.0338  3.7535
  272MOL    H4743949   5.828   1.549   1.898 -0.2796  0.3655 -1.1860
  272MOL    H4843950   5.632   1.769   1.841 -1.5286 -1.7313  1.6263
  272MOL    H4943951   5.783   1.755   1.776 -0.7707 -0.0479 -0.4525
  272MOL    C5043952   5.607   1.523   1.945  0.0850  0.9085  0.8184
  272MOL    C5143953   5.582   1.569   2.094  0.0609  0.2352 -0.3637
  272MOL    N5243954   5.457   1.512   2.151 -0.4469 -0.7639 -0.5108
  272MOL    H5343955   5.517   1.545   1.887  1.1373 -2.6436 -2.3564
  272MOL    H5443956   5.597   1.415   1.934  0.5918  1.1594 -2.8199
  272MOL    H5543957   5.563   1.676   2.087 -0.1657  0.2390  0.3050
  272MOL    H5643958   5.429   1.546   2.242  0.4053  2.3960 -1.3393
  272MOL    H5743959   5.380   1.538   2.092 -0.2482  1.6637  0.2341
  272MOL    C5843960   5.702   1.551   2.186  0.5819  0.0995  0.5277
  272MOL    C5943961   5.777   1.689   2.208  0.5627 -0.3710 -0.7157
  272MOL    N6043962   5.694   1.746   2.315 -0.2159  0.2016 -0.6945
  272MOL    H6143963   5.667   1.514   2.282 -0.6128 -1.1394 -0.3624
  272MOL    H6243964   5.770   1.477   2.143  0.1101 -0.2908  0.4526
  272MOL    H6343965   5.770   1.753   2.120  1.0329  2.3770  1.1607
  272MOL    H6443966   5.740   1.829   2.350  4.6391 -2.7014  0.2848
  272MOL    H6543967   5.614   1.797   2.282 -1.2501 -2.6399 -2.7579
  272MOL    C6643968   5.921   1.676   2.247 -0.3133 -0.3758  0.0563
  272MOL    C6743969   6.015   1.637   2.133 -0.2103 -0.7308  0.1496
  272MOL    N6843970   6.010   1.755   2.042 -0.1970  0.0781 -0.3708
  272MOL    H6943971   5.948   1.772   2.291 -0.4333 -0.3835  0.1472
  272MOL    H7043972   5.928   1.604   2.329 -0.9491  2.1433  2.3796
  272MOL    H7143973   5.986   1.543   2.086  1.6188 -0.7285 -1.0745
  272MOL    H7243974   5.940   1.728   1.974 -0.4042 -0.4912  0.0645
  272MOL    H7343975   6.097   1.778   1.996  1.2656 -0.9935  1.7873
  272MOL    C7443976   6.157   1.615   2.176  0.0028  0.7016  0.0227
  272MOL    C7543977   6.194   1.510   2.291  0.1195  0.2278  0.0316
  272MOL    N7643978   6.147   1.372   2.268 -0.0138 -0.1222 -0.0511
  272MOL    H7743979   6.223   1.589   2.093 -2.5984 -3.3349 -0.8919
  272MOL    H7843980   6.205   1.709   2.204  1.7809  0.1639 -1.0979
  272MOL    H7943981   6.132   1.536   2.377 -1.1205  0.2201 -0.8520
  272MOL    H8043982   6.186   1.308   2.336 -0.0235 -1.1243 -0.9871
  272MOL    H8143983   6.050   1.376   2.295 -0.2238 -0.6190 -0.7260
  272MOL    C8243984   6.347   1.508   2.340  0.4341  0.0881 -0.2068
  272MOL    C8343985   6.371   1.512   2.494  0.2747  0.5755 -1.0773
  272MOL    N8443986   6.504   1.464   2.520 -0.3242 -0.2523 -0.1780
  272MOL    H8543987   6.395   1.431   2.281  0.2021  1.0029 -1.6160
  272MOL    H8643988   6.401   1.594   2.301 -0.7017  1.1649  0.5573
  272MOL    H8743989   6.299   1.449   2.545  1.4087  0.3110  0.2063
  272MOL    H8843990   6.502   1.367   2.493  0.1528  0.1205 -1.6354
  272MOL    H8943991   6.531   1.460   2.617 -1.1139  0.1514  0.0592
  272MOL    C9043992   6.362   1.656   2.544 -0.0814  0.4261 -0.0591
  272MOL    C9143993   6.222   1.727   2.564 -0.4427  0.6786 -0.6061
  272MOL    N9243994   6.165   1.659   2.677 -1.0669  0.3355  0.4858
  272MOL    H9343995   6.426   1.658   2.632  0.0826 -1.1750 -0.1215
  272MOL    H9443996   6.414   1.725   2.477 -0.1643  2.0211  1.4844
  272MOL    H9543997   6.159   1.722   2.475 -1.2422  1.9123 -0.1240
  272MOL    H9643998   6.076   1.696   2.708 -0.8259  0.6496  0.8063
  272MOL    H9743999   6.148   1.569   2.634  0.0736 -0.2817  1.3148
  272MOL    C9844000   6.232   1.883   2.588  0.1841 -0.4572 -0.0335
  272MOL    C9944001   6.204   1.973   2.465  0.5341 -0.3045 -0.2716
  272MOL   N10044002   6.165   2.105   2.510 -0.6392 -0.2155  0.4772
  272MOL   H10144003   6.158   1.901   2.666 -0.2627 -2.4253  0.0311
  272MOL   H10244004   6.318   1.914   2.646  0.2633  1.5271 -1.1751
  272MOL   H10344005   6.112   1.939   2.417  0.6901 -1.4514  0.2316
  272MOL   H10444006   6.239   2.153   2.559  0.7127 -0.5027 -1.2256
  272MOL   H10544007   6.160   2.156   2.423  1.1973 -1.6718 -0.5260
  272MOL   C10644008   6.319   1.981   2.358 -0.9985 -0.7149 -0.7955
  272MOL   C10744009   6.312   2.077   2.230  0.0842 -0.0562 -0.4220
  272MOL   N10844010   6.441   2.126   2.191  0.3603  0.0546 -0.3777
  272MOL   H10944011   6.413   2.006   2.407  0.6394 -0.1122 -4.1019
  272MOL   H11044012   6.341   1.880   2.323  1.2830 -1.2498  2.0438
  272MOL   H11144013   6.258   2.163   2.271 -2.2505 -1.4039 -0.5821
  272MOL   H11244014   6.500   2.050   2.158  1.2866  0.0963  1.1544
  272MOL   H11344015   6.423   2.192   2.117  0.7432  0.6676  0.0736
  272MOL   C11444016   6.232   2.012   2.110  0.2784  0.6420 -0.2146
  272MOL   C11544017   6.137   2.114   2.043 -0.1870 -0.1491  0.5094
  272MOL   N11644018   6.078   2.053   1.921 -0.2172 -0.0813  0.5078
  272MOL   H11744019   6.299   1.968   2.037 -2.5000  0.5965 -2.8512
  272MOL   H11844020   6.167   1.928   2.135  1.2206  0.2272  0.9263
  272MOL   H11944021   6.192   2.204   2.014  0.7127 -0.6612  0.5964
  272MOL   H12044022   6.137   1.987   1.873 -2.8971 -1.4024 -1.0847
  272MOL   H12144023   6.018   1.987   1.968  1.4776 -1.1553  1.1918
  272MOL   C12244024   6.027   2.145   2.144  0.4014 -0.3440  0.0711
  272MOL   C12344025   5.976   2.292   2.136 -0.1163  0.0281 -0.2412
  272MOL   N12444026   5.839   2.289   2.183 -0.2214  0.1231 -0.7265
  272MOL   H12544027   5.955   2.063   2.155  1.7795 -1.7473 -1.1189
  272MOL   H12644028   6.055   2.141   2.249  1.6255 -1.4846 -0.2899
  272MOL   H12744029   5.965   2.314   2.030 -1.3783 -1.4565 -0.4440
  272MOL   H12844030   5.778   2.251   2.112  1.4086  0.5817 -2.4335
  272MOL   H12944031   5.814   2.387   2.182 -1.8216 -0.2651  0.0637
  272MOL   C13044032   6.060   2.401   2.217 -0.4748  0.5879  0.2862
  272MOL   C13144033   6.206   2.421   2.182 -0.0485  0.2068 -0.8925
  272MOL   N13244034   6.218   2.470   2.041 -0.0299 -0.1262  0.0027
  272MOL   H13344035   6.005   2.494   2.206 -0.8903  0.1684 -1.3758
  272MOL   H13444036   6.052   2.386   2.324  0.1055 -1.4536  0.0694
  272MOL   H13544037   6.264   2.329   2.189  0.0773  0.4831  2.2898
  272MOL   H13644038   6.160   2.552   2.024  1.6866  0.8431 -1.3388
  272MOL   H13744039   6.308   2.507   2.014  0.0437  0.1343  0.6027
  272MOL   C13844040   6.265   2.531   2.278 -0.3117 -0.0433  0.4633
  272MOL   C13944041   6.291   2.479   2.427 -0.1832 -0.7961  0.4211
  272MOL   N14044042   6.404   2.385   2.421 -1.0429  0.1449 -0.3811
  272MOL   H14144043   6.366   2.553   2.243 -0.1484  0.7394  1.3887
  272MOL   H14244044   6.214   2.627   2.276  1.4525  0.9603  1.7433
  272MOL   H14344045   6.209   2.424   2.472 -1.5732  1.1383  0.3069
  272MOL   H14444046   6.384   2.300   2.369  1.6647  0.1854 -1.5897
  272MOL   H14544047   6.488   2.423   2.379 -0.9978 -0.0335 -0.4564
  272MOL   C14644048   6.307   2.586   2.537 -0.2791  0.0970  0.7808
  272MOL   C14744049   6.177   2.666   2.564  0.1561 -0.0120 -0.2228
  272MOL   N14844050   6.154   2.679   2.706 -0.1222  0.4794  0.3694
  272MOL   H14944051   6.345   2.535   2.625  1.6542  1.5429  0.8078
  272MOL   H15044052   6.385   2.654   2.503  0.1687 -0.6758  0.2324
  272MOL   H15144053   6.093   2.608   2.524 -2.5108  0.6064  4.1499
  272MOL   H15244054   6.088   2.753   2.727  0.5760  1.4604 -0.7806
  272MOL   H15344055   6.136   2.589   2.747  0.7707  1.0152  1.9826
  272MOL   C15444056   6.178   2.811   2.497  0.2416  0.2504 -0.5023
  272MOL   C15544057   6.044   2.836   2.420 -0.0245  0.2112 -0.2611
  272MOL   N15644058   6.055   2.963   2.354  0.1219  0.5907  0.1445
  272MOL   H15744059   6.207   2.882   2.574  1.1444 -0.0135 -0.5971
  272MOL   H15844060   6.256   2.817   2.422 -1.1320  1.2624 -1.8828
  272MOL   H15944061   5.964   2.825   2.493 -0.1980 -0.1142 -0.5020
  272MOL   H16044062   6.136   2.961   2.293 -1.7265  1.2349 -2.3991
  272MOL   H16144063   5.981   2.976   2.287 -1.2154 -3.4013  0.7660
  272MOL   H16244064   6.034   2.753   2.351 -1.0279  1.0438 -1.1255
  273MOL     C144065   0.356   3.232   1.050  0.4793  1.2989  0.8220
  273MOL     C244066   0.283   3.127   0.969  0.0791  0.3694  0.0280
  273MOL     N344067   0.308   3.149   0.829  0.0075  0.3319 -0.6043
  273MOL     H444068   0.357   3.197   1.153  0.1813 -0.1400  0.3446
  273MOL     H544069   0.311   3.329   1.028 -0.1584  0.9489  0.5730
  273MOL     H644070   0.179   3.159   0.969 -0.0601 -0.0708 -0.0748
  273MOL     H744071   0.406   3.138   0.810  0.0929  1.4326 -0.8060
  273MOL     H844072   0.268   3.065   0.789  0.1741  0.0465 -0.1762
  273MOL     H944073   0.461   3.253   1.027 -0.1791  1.3735 -2.4218
  273MOL    C1044074   0.302   2.978   0.999 -0.0576  0.4359 -0.1590
  273MOL    C1144075   0.245   2.925   1.132  0.3618  0.1342  0.2151
  273MOL    N1244076   0.101   2.926   1.132  0.7628 -0.0001 -0.8935
  273MOL    H1344077   0.257   2.915   0.921 -0.5914 -0.0305  0.5206
  273MOL    H1444078   0.410   2.973   1.006  0.3003  0.7586 -4.3271
  273MOL    H1544079   0.269   3.002   1.206 -0.4693 -0.4948  1.1491
  273MOL    H1644080   0.061   2.924   1.039 -2.7791  0.1903  0.5205
  273MOL    H1744081   0.062   2.842   1.171 -0.4116  0.3544 -1.2774
  273MOL    C1844082   0.309   2.789   1.171 -0.1060 -0.3107  0.9946
  273MOL    C1944083   0.302   2.739   1.313 -0.1422  0.2776 -0.2837
  273MOL    N2044084   0.366   2.609   1.316 -0.0909 -0.1502 -0.2217
  273MOL    H2144085   0.265   2.717   1.102 -1.4321  1.9265 -0.6022
  273MOL    H2244086   0.415   2.792   1.146 -0.4268  0.0584 -0.3566
  273MOL    H2344087   0.195   2.726   1.330 -0.3613  1.0003 -1.0697
  273MOL    H2444088   0.353   2.568   1.225 -0.4019 -0.3485 -0.0908
  273MOL    H2544089   0.325   2.547   1.384  1.4911 -1.7195 -0.6568
  273MOL    C2644090   0.358   2.831   1.422 -0.3076 -0.8712 -0.8436
  273MOL    C2744091   0.238   2.863   1.521  0.7101  1.3046 -0.2276
  273MOL    N2844092   0.195   2.744   1.597  0.1773 -0.6097  0.4926
  273MOL    H2944093   0.445   2.789   1.471 -0.9782 -0.8852  0.3483
  273MOL    H3044094   0.396   2.920   1.373 -0.2225 -0.5628 -0.2199
  273MOL    H3144095   0.147   2.883   1.465 -1.7017 -1.6623  2.4891
  273MOL    H3244096   0.185   2.671   1.528  1.4303  1.2099 -1.6795
  273MOL    H3344097   0.103   2.753   1.637 -0.8171  0.6258 -2.0260
  273MOL    C3444098   0.275   2.977   1.616  0.9677 -0.2948 -0.6762
  273MOL    C3544099   0.280   3.127   1.557 -0.1363  0.3526  0.2067
  273MOL    N3644100   0.146   3.178   1.539  0.1737  0.0538 -0.4468
  273MOL    H3744101   0.214   2.977   1.707 -0.1441  1.6008 -1.3837
  273MOL    H3844102   0.374   2.954   1.657  0.8478  0.8791  0.3197
  273MOL    H3944103   0.331   3.115   1.462 -0.0446  1.5825  0.0986
  273MOL    H4044104   0.105   3.218   1.622 -0.2517  1.2536 -1.2234
  273MOL    H4144105   0.081   3.117   1.492  2.0643 -0.3341 -2.6617
  273MOL    C4244106   0.357   3.234   1.640  0.8053  0.3822 -0.2510
  273MOL    C4344107   0.420   3.338   1.541  0.2830 -0.0646 -0.1625
  273MOL    N4444108   0.312   3.414   1.485  1.1376 -0.6261  0.7938
  273MOL    H4544109   0.299   3.291   1.712  1.0488  0.5444 -0.1808
  273MOL    H4644110   0.435   3.183   1.697  2.1649  2.5378 -0.1605
  273MOL    H4744111   0.471   3.289   1.457  1.0207  0.4908 -0.0511
  273MOL    H4844112   0.341   3.462   1.401 -1.3939  0.3371  0.4422
  273MOL    H4944113   0.256   3.335   1.456 -0.7397  1.1751 -0.6104
  273MOL    C5044114   0.519   3.433   1.618 -0.4224  0.3719  0.3372
  273MOL    C5144115   0.643   3.347   1.671 -0.3583 -1.1283 -0.3394
  273MOL    N5244116   0.729   3.309   1.554 -0.3847 -0.2898 -0.2079
  273MOL    H5344117   0.567   3.508   1.556 -1.6309  1.5211  0.7548
  273MOL    H5444118   0.465   3.484   1.698 -3.0692  0.5081 -1.4744
  273MOL    H5544119   0.623   3.261   1.736  1.1026 -1.7154 -0.6427
  273MOL    H5644120   0.762   3.214   1.551 -0.7574 -0.3981 -1.3855
  273MOL    H5744121   0.814   3.353   1.588 -0.0447 -1.3401  0.3043
  273MOL    C5844122   0.737   3.434   1.748 -0.0586  0.1973 -0.7595
  273MOL    C5944123   0.679   3.475   1.884 -0.1131 -0.0802 -0.0219
  273MOL    N6044124   0.708   3.363   1.980  0.4171  0.1905  0.1668
  273MOL    H6144125   0.831   3.381   1.761  1.9515  3.6377 -0.7044
  273MOL    H6244126   0.750   3.525   1.689 -0.5471  0.0636 -1.0767
  273MOL    H6344127   0.573   3.500   1.882  0.3977  2.2625  0.9086
  273MOL    H6444128   0.653   3.358   2.065 -0.7760 -1.9476 -0.6743
  273MOL    H6544129   0.687   3.268   1.951 -0.9178 -0.5070  3.1609
  273MOL    C6644130   0.751   3.599   1.931 -0.4132 -0.5149  0.7029
  273MOL    C6744131   0.695   3.738   1.882  0.3423 -0.2391 -0.2918
  273MOL    N6844132   0.562   3.758   1.950  0.8543 -0.6601 -0.0002
  273MOL    H6944133   0.754   3.598   2.040  0.6552  1.0721  0.7000
  273MOL    H7044134   0.852   3.586   1.893 -0.4343  1.3493 -0.0707
  273MOL    H7144135   0.666   3.734   1.777  0.9449  0.0832 -0.4723
  273MOL    H7244136   0.539   3.856   1.944  1.1059 -0.6549 -0.9327
  273MOL    H7344137   0.494   3.706   1.894 -0.0433  0.2686  0.2125
  273MOL    C7444138   0.780   3.864   1.910  0.9095 -0.0141 -0.1050
  273MOL    C7544139   0.750   3.989   1.820 -0.7376  0.2884 -0.1903
  273MOL    N7644140   0.836   4.094   1.867 -0.3898 -0.5092 -0.0171
  273MOL    H7744141   0.775   3.899   2.013 -0.9220  3.3570 -1.2635
  273MOL    H7844142   0.887   3.843   1.901  1.1892  1.0373  0.6738
  273MOL    H7944143   0.645   4.019   1.826 -1.4120 -1.9448 -0.3426
  273MOL    H8044144   0.802   4.109   1.961 -1.0542  1.3846 -0.5235
  273MOL    H8144145   0.926   4.054   1.887  0.1267 -0.4768 -2.1860
  273MOL    C8244146   0.777   3.979   1.668 -0.1580  0.3769 -0.0404
  273MOL    C8344147   0.708   3.874   1.572  0.0833 -0.7458  0.1973
  273MOL    N8444148   0.563   3.894   1.574  0.0263 -0.1508  0.0794
  273MOL    H8544149   0.758   4.078   1.626  0.3461  0.4916 -0.0037
  273MOL    H8644150   0.886   3.984   1.662 -0.1760  1.8491  0.6482
  273MOL    H8744151   0.735   3.772   1.601  0.8319 -0.4222  0.6610
  273MOL    H8844152   0.519   3.977   1.538 -2.5258 -0.6630  1.8814
  273MOL    H8944153   0.501   3.821   1.542 -0.6530  0.8683 -0.9802
  273MOL    C9044154   0.751   3.901   1.429 -0.1669 -0.6495  0.3737
  273MOL    C9144155   0.862   3.816   1.366  0.5570 -0.6205 -0.1138
  273MOL    N9244156   0.890   3.871   1.237  0.1321 -0.3550  0.3278
  273MOL    H9344157   0.667   3.884   1.361 -0.8014 -0.0389  0.9949
  273MOL    H9444158   0.774   4.007   1.423 -0.9789 -0.5528 -1.6123
  273MOL    H9544159   0.822   3.715   1.359  1.5976 -0.9830 -1.0227
  273MOL    H9644160   0.948   3.795   1.204  1.4476  0.4645  0.6884
  273MOL    H9744161   0.807   3.856   1.181 -0.0176  0.3085  0.3695
  273MOL    C9844162   0.991   3.815   1.450  0.1240  0.6475 -0.4732
  273MOL    C9944163   1.081   3.692   1.420 -0.3874  0.2211  0.1209
  273MOL   N10044164   1.221   3.708   1.475  0.4295 -0.6660  0.6153
  273MOL   H10144165   1.045   3.908   1.433 -3.4247  2.6442 -1.2963
  273MOL   H10244166   0.970   3.809   1.557 -1.3194 -0.4051 -0.8036
  273MOL   H10344167   1.080   3.696   1.311  1.6463  0.7016  0.0965
  273MOL   H10444168   1.213   3.701   1.576 -3.3704  0.2299  0.4454
  273MOL   H10544169   1.272   3.626   1.446  2.8297  1.1852 -0.6149
  273MOL   C10644170   1.010   3.565   1.479  0.0427 -0.3607 -0.2876
  273MOL   C10744171   1.072   3.427   1.477  0.3669  0.7746 -0.7622
  273MOL   N10844172   1.029   3.347   1.587 -0.1313 -0.5354 -0.0383
  273MOL   H10944173   1.007   3.594   1.584  3.4755  1.7693 -0.7124
  273MOL   H11044174   0.907   3.555   1.444 -0.0536  1.2189 -0.5084
  273MOL   H11144175   1.176   3.439   1.507 -0.1767 -1.7024  2.3447
  273MOL   H11244176   1.066   3.394   1.669 -0.2749 -1.0284  0.3109
  273MOL   H11344177   1.064   3.253   1.574 -1.3392 -1.0663  0.5270
  273MOL   C11444178   1.050   3.346   1.351 -0.0812 -0.8343  0.0580
  273MOL   C11544179   1.129   3.389   1.224 -0.2071 -0.2711  0.0831
  273MOL   N11644180   1.271   3.396   1.246 -0.0207 -0.1643 -0.3309
  273MOL   H11744181   1.070   3.240   1.363  1.6495 -0.3951  1.3508
  273MOL   H11844182   0.944   3.361   1.331 -0.1801  0.2329  1.3063
  273MOL   H11944183   1.095   3.490   1.202  0.3331  0.1367  1.0605
  273MOL   H12044184   1.307   3.307   1.214 -0.9454 -0.2854 -1.0447
  273MOL   H12144185   1.314   3.469   1.191 -2.4764  1.3371 -0.2873
  273MOL   C12244186   1.088   3.307   1.105  0.7846 -0.2652  0.1773
  273MOL   C12344187   1.105   3.374   0.964 -0.6694  0.9505  0.1246
  273MOL   N12444188   1.102   3.259   0.873 -0.0443  0.4725  0.2830
  273MOL   H12544189   1.149   3.217   1.110 -1.7269 -2.0853 -0.4390
  273MOL   H12644190   0.988   3.272   1.131 -0.1227  1.3176 -1.1060
  273MOL   H12744191   1.205   3.415   0.949 -0.7593  1.0284 -0.2595
  273MOL   H12844192   1.031   3.198   0.912  0.8100  0.1928  1.4314
  273MOL   H12944193   1.184   3.202   0.892 -0.4604  0.4906  2.2271
  273MOL   C13044194   0.996   3.477   0.917 -0.0936 -0.6571 -1.0810
  273MOL   C13144195   0.995   3.624   0.966  0.6151 -0.3588  0.3411
  273MOL   N13244196   0.925   3.624   1.093 -0.0810  0.0003  0.3118
  273MOL   H13344197   0.997   3.477   0.808  1.1924 -0.5795 -1.0760
  273MOL   H13444198   0.895   3.442   0.940 -0.6932  1.4038 -0.4376
  273MOL   H13544199   0.922   3.680   0.908 -0.0461 -1.1961  0.3602
  273MOL   H13644200   0.970   3.564   1.160  0.2769  0.4241  0.4555
  273MOL   H13744201   0.832   3.585   1.089 -0.4099  0.6586  1.3193
  273MOL   C13844202   1.129   3.697   0.987  0.4457  0.0881  0.4173
  273MOL   C13944203   1.195   3.759   0.860  0.6271 -0.6092 -0.3034
  273MOL   N14044204   1.317   3.818   0.899 -0.2591 -0.3084 -0.2368
  273MOL   H14144205   1.115   3.779   1.057 -0.8230  1.1660 -1.0615
  273MOL   H14244206   1.195   3.624   1.033  0.4130 -0.4147 -0.3087
  273MOL   H14344207   1.126   3.837   0.829 -0.8004 -1.2829  1.1449
  273MOL   H14444208   1.365   3.874   0.831 -1.3989  0.4487 -0.4372
  273MOL   H14544209   1.312   3.868   0.987 -0.4310 -0.4184 -0.1835
  273MOL   C14644210   1.240   3.654   0.748  0.3589  0.0056  0.0346
  273MOL   C14744211   1.242   3.708   0.605  0.4466 -0.6078  0.0010
  273MOL   N14844212   1.348   3.632   0.532 -0.1006  0.0754  0.0421
  273MOL   H14944213   1.334   3.607   0.779  1.0729  1.7918  0.6839
  273MOL   H15044214   1.166   3.577   0.727 -0.0101  0.1822  0.6845
  273MOL   H15144215   1.279   3.811   0.609  3.3608 -1.5651 -0.3981
  273MOL   H15244216   1.440   3.638   0.572 -0.3048 -2.1904  0.9124
  273MOL   H15344217   1.355   3.656   0.433 -0.9307  1.0114  0.1971
  273MOL   C15444218   1.106   3.713   0.529  0.0073  0.0088 -0.2769
  273MOL   C15544219   0.998   3.792   0.598  0.3739  0.0088 -0.2409
  273MOL   N15644220   0.886   3.804   0.502 -0.2111  0.5585  0.6768
  273MOL   H15744221   1.126   3.770   0.438  1.0176  0.7182  0.3849
  273MOL   H15844222   1.066   3.616   0.498 -0.2095 -0.1963  0.6238
  273MOL   H15944223   1.047   3.887   0.620 -0.9071  1.0127 -1.5570
  273MOL   H16044224   0.817   3.872   0.530 -0.4972  0.5515  0.0043
  273MOL   H16144225   0.925   3.853   0.422  0.6873 -1.4427 -0.1407
  273MOL   H16244226   0.967   3.739   0.687  0.2576 -0.4739 -0.5682
  274MOL     C144227   0.887   6.800   7.083  0.1299 -0.5992  0.0121
  274MOL     C244228   1.001   6.821   7.190  0.4278 -0.4689 -0.0838
  274MOL     N344229   0.947   6.753   0.037  0.1953  0.3502  0.4771
  274MOL     H444230   0.853   6.697   7.069  0.4996 -0.5312 -1.4669
  274MOL     H544231   0.924   6.832   6.986  1.9583 -0.9584  0.5722
  274MOL     H644232   1.004   6.926   7.218 -2.3797 -0.2899 -0.2980
  274MOL     H744233   0.986   6.783   0.125  0.5731 -1.2973  0.8871
  274MOL     H844234   0.849   6.777   0.047 -0.2419  0.7108 -3.5167
  274MOL     H944235   0.802   6.864   7.104  1.0892  0.8105 -0.3781
  274MOL    C1044236   1.138   6.766   7.162 -0.1418 -0.7743 -0.2559
  274MOL    C1144237   1.226   6.849   7.067  0.3693  0.2079  0.1596
  274MOL    N1244238   1.266   6.971   7.137  0.0980  0.5725  0.1286
  274MOL    H1344239   1.197   6.742   7.251  1.0544 -0.0151 -0.8394
  274MOL    H1444240   1.135   6.664   7.122 -1.9983 -1.0853  0.6184
  274MOL    H1544241   1.165   6.873   6.980 -1.5138 -2.3457  0.7017
  274MOL    H1644242   1.332   7.020   7.078  0.0349 -0.8474 -1.1606
  274MOL    H1744243   1.192   7.038   7.122  1.0295  1.2377 -1.6286
  274MOL    C1844244   1.353   6.776   7.025  0.2754  0.2902 -0.0212
  274MOL    C1944245   1.355   6.657   6.924  0.3007  0.2586 -0.5881
  274MOL    N2044246   1.359   6.698   6.785  0.6763  0.1263 -0.0162
  274MOL    H2144247   1.431   6.847   6.997  1.3887 -0.7388  0.4154
  274MOL    H2244248   1.389   6.734   7.119 -0.2400  0.6456  0.3405
  274MOL    H2344249   1.264   6.598   6.935  1.0415 -0.9543 -0.9754
  274MOL    H2444250   1.289   6.641   6.739  0.2254 -0.1411  0.9878
  274MOL    H2544251   1.435   6.683   6.720  0.3241  1.0612 -0.6613
  274MOL    C2644252   1.460   6.548   6.955 -0.0572 -0.4763 -0.6001
  274MOL    C2744253   1.453   6.416   6.876 -0.2455  0.0444 -0.3155
  274MOL    N2844254   1.592   6.373   6.849  0.0779  0.0617 -0.5413
  274MOL    H2944255   1.547   6.607   6.927 -0.7704  0.7303 -0.3138
  274MOL    H3044256   1.467   6.518   7.060  3.3653 -0.3831 -0.7380
  274MOL    H3144257   1.412   6.443   6.779 -0.5953 -1.1045 -0.4971
  274MOL    H3244258   1.619   6.292   6.795  2.4258  1.1137 -1.0455
  274MOL    H3344259   1.656   6.442   6.812  1.1317 -0.2632  0.6362
  274MOL    C3444260   1.377   6.301   6.954  0.0730 -0.7360 -0.2617
  274MOL    C3544261   1.376   6.155   6.895 -0.0083  0.4828 -0.3715
  274MOL    N3644262   1.281   6.084   6.975  0.0861  0.1231  0.1132
  274MOL    H3744263   1.420   6.295   7.054  2.6214  2.1961 -1.0723
  274MOL    H3844264   1.279   6.345   6.969  1.1237  1.8436 -0.6936
  274MOL    H3944265   1.477   6.120   6.913  0.2349  0.4635 -1.7411
  274MOL    H4044266   1.291   6.118   7.069  1.0413 -0.5446  0.2582
  274MOL    H4144267   1.188   6.111   6.944  0.3246  0.4442 -0.3197
  274MOL    C4244268   1.349   6.152   6.745 -0.0833  0.1604  0.0574
  274MOL    C4344269   1.375   6.023   6.666  0.5350 -0.5178 -0.4327
  274MOL    N4444270   1.300   6.041   6.541 -0.4261  0.6316 -0.1325
  274MOL    H4544271   1.241   6.170   6.736  0.0302  0.0891 -1.5850
  274MOL    H4644272   1.411   6.221   6.687 -1.0207 -0.1625 -1.3623
  274MOL    H4744273   1.339   5.943   6.731 -0.4381  0.4374  0.2142
  274MOL    H4844274   1.206   6.045   6.577 -0.3941  3.2077 -0.2827
  274MOL    H4944275   1.326   6.128   6.497  0.6819  1.0020  1.2095
  274MOL    C5044276   1.520   5.996   6.624 -0.7172  0.0125 -0.3898
  274MOL    C5144277   1.603   5.913   6.731  0.4546  0.6299 -0.4105
  274MOL    N5244278   1.551   5.780   6.742  0.4201 -0.2477 -0.1577
  274MOL    H5344279   1.517   5.949   6.526  1.7015 -0.0243 -0.4959
  274MOL    H5444280   1.570   6.092   6.610  0.0531 -0.1136  1.2943
  274MOL    H5544281   1.589   5.958   6.829  0.0920 -0.8368  0.2237
  274MOL    H5644282   1.599   5.731   6.816 -0.8633  1.1748  1.6458
  274MOL    H5744283   1.477   5.796   6.809  2.8518  2.5180  2.0016
  274MOL    C5844284   1.759   5.916   6.698 -0.1850  0.0272  0.0711
  274MOL    C5944285   1.832   6.049   6.674  0.0698 -0.1140 -0.4979
  274MOL    N6044286   1.827   6.137   6.788  0.0449 -0.0269 -0.3705
  274MOL    H6144287   1.804   5.870   6.786 -1.4971  0.5286  1.0303
  274MOL    H6244288   1.792   5.849   6.619  1.2713 -0.6923  1.2703
  274MOL    H6344289   1.777   6.105   6.599  0.8365  2.6002  0.8877
  274MOL    H6444290   1.910   6.193   6.792 -0.8104  1.2207  0.4423
  274MOL    H6544291   1.807   6.085   6.872 -0.8233 -1.5946 -1.5190
  274MOL    C6644292   1.976   6.025   6.637 -0.7691  0.0592  0.0903
  274MOL    C6744293   2.020   5.986   6.496 -0.5635  0.1116  0.1035
  274MOL    N6844294   1.987   6.094   6.404  0.0307 -0.6991 -0.2248
  274MOL    H6944295   2.030   6.116   6.664 -0.4184  0.0583 -0.6049
  274MOL    H7044296   2.011   5.948   6.705  0.9610 -0.1618 -1.0277
  274MOL    H7144297   1.950   5.903   6.479  1.0148 -0.8067 -2.2855
  274MOL    H7244298   2.030   6.176   6.446 -2.8425  0.6710  0.1933
  274MOL    H7344299   1.887   6.105   6.404  0.0111 -0.7776  1.7205
  274MOL    C7444300   2.169   5.943   6.492  0.2287  0.3211 -0.4720
  274MOL    C7544301   2.196   5.798   6.493  0.8543  0.5510  0.0628
  274MOL    N7644302   2.324   5.778   6.435  0.6660  0.3761 -0.2785
  274MOL    H7744303   2.226   5.980   6.407  1.0841 -1.5637 -0.7464
  274MOL    H7844304   2.222   6.004   6.566  0.8477  0.2758 -0.8787
  274MOL    H7944305   2.127   5.744   6.428  0.1856  0.6250  0.7043
  274MOL    H8044306   2.311   5.729   6.348 -1.3798 -0.3223  0.3813
  274MOL    H8144307   2.379   5.711   6.486 -0.4322  0.5811  1.2235
  274MOL    C8244308   2.199   5.727   6.634 -0.5411  0.0136  0.2479
  274MOL    C8344309   2.244   5.579   6.647 -0.5283  0.4236 -0.6096
  274MOL    N8444310   2.384   5.562   6.607  0.0820 -0.4208  0.8756
  274MOL    H8544311   2.263   5.786   6.698  2.7113  1.3313 -3.9654
  274MOL    H8644312   2.103   5.744   6.683  0.3295  0.9059  1.6508
  274MOL    H8744313   2.184   5.509   6.588  0.7863 -1.0015 -0.2675
  274MOL    H8844314   2.405   5.463   6.603  0.3611 -0.2713 -2.2039
  274MOL    H8944315   2.444   5.617   6.668  1.9670  1.1236 -2.2358
  274MOL    C9044316   2.239   5.524   6.789  0.0171  0.2604  0.6262
  274MOL    C9144317   2.108   5.498   6.853 -0.3984 -0.0996  0.2554
  274MOL    N9244318   2.088   5.356   6.867 -0.0206  0.6230 -0.1886
  274MOL    H9344319   2.300   5.434   6.788  0.4439  0.5451  0.4036
  274MOL    H9444320   2.298   5.595   6.848  2.7861 -2.0769  0.7772
  274MOL    H9544321   2.019   5.528   6.799 -1.0940 -3.2203 -0.4360
  274MOL    H9644322   2.096   5.310   6.777 -2.5287 -0.0999 -0.0931
  274MOL    H9744323   2.165   5.330   6.927  0.2862 -0.8625 -1.1837
  274MOL    C9844324   2.096   5.563   6.991  0.0948  0.3195 -0.1912
  274MOL    C9944325   2.079   5.712   6.994 -0.4680 -0.1066 -0.0617
  274MOL   N10044326   1.944   5.734   6.969  0.4040  0.0378 -0.2075
  274MOL   H10144327   2.033   5.512   7.065  0.5266 -1.5481 -1.0813
  274MOL   H10244328   2.190   5.533   7.038 -0.0516 -0.7242 -0.5420
  274MOL   H10344329   2.130   5.769   6.917  0.2692  0.4092  0.7996
  274MOL   H10444330   1.893   5.666   7.023  0.5869 -0.4347 -0.6314
  274MOL   H10544331   1.920   5.709   6.874 -1.7371 -0.1063  0.3357
  274MOL   C10644332   2.121   5.758   7.139  0.0578  0.2310 -0.0753
  274MOL   C10744333   2.190   5.896   7.140 -0.1324  0.0797 -0.1748
  274MOL   N10844334   2.181   5.950   7.274  0.3767  0.3761 -0.0065
  274MOL   H10944335   2.028   5.767   7.195 -0.0813  0.3978 -0.3314
  274MOL   H11044336   2.177   5.683   7.195  1.0246  2.3832  1.9165
  274MOL   H11144337   2.149   5.960   7.062  0.2833  0.5117 -0.0353
  274MOL   H11244338   2.083   5.954   0.025  0.4845  1.0590  0.3003
  274MOL   H11344339   2.222   5.884   0.063 -0.6859 -0.5257 -0.2411
  274MOL   C11444340   2.343   5.877   7.111 -0.2813 -0.4559 -0.5970
  274MOL   C11544341   2.417   5.997   7.040 -0.2923 -0.6333  0.7418
  274MOL   N11644342   2.559   5.974   7.036 -0.7620  0.1109 -0.3080
  274MOL   H11744343   2.392   5.861   7.207  1.0920  0.9722 -1.0339
  274MOL   H11844344   2.360   5.791   7.047 -0.4312  1.2165 -2.9329
  274MOL   H11944345   2.414   6.088   7.101 -0.4863  0.8182 -1.3968
  274MOL   H12044346   2.606   6.045   6.983 -0.3218 -1.0381 -1.5074
  274MOL   H12144347   2.588   5.989   7.131 -0.8841 -0.0060 -0.2513
  274MOL   C12244348   2.368   6.023   6.899  0.6196 -0.4048 -0.0488
  274MOL   C12344349   2.370   6.181   6.870  0.5767  0.5174 -0.3796
  274MOL   N12444350   2.335   6.193   6.731  0.2983  0.6292 -1.1046
  274MOL   H12544351   2.419   5.958   6.828  0.5550 -1.5141  0.9206
  274MOL   H12644352   2.262   6.002   6.887  0.5689 -1.1727  1.7087
  274MOL   H12744353   2.471   6.218   6.887  0.6486  0.2675 -0.2707
  274MOL   H12844354   2.398   6.264   6.697 -0.0662  1.1202 -0.7618
  274MOL   H12944355   2.383   6.120   6.680 -1.4097 -1.5508  0.3169
  274MOL   C13044356   2.258   6.254   6.945 -0.0715 -0.9312  0.5758
  274MOL   C13144357   2.298   6.385   7.014  0.8854 -1.3265 -0.1243
  274MOL   N13244358   2.180   6.466   7.058 -0.1624  0.4161  0.2370
  274MOL   H13344359   2.172   6.278   6.884 -0.3595  1.7353  1.9433
  274MOL   H13444360   2.213   6.187   7.018 -3.3511 -1.0970 -1.5288
  274MOL   H13544361   2.350   6.440   6.936 -0.4741  0.8892  0.4926
  274MOL   H13644362   2.169   6.453   7.158 -0.9072  0.3391  0.1477
  274MOL   H13744363   2.102   6.429   7.006  0.5865  1.2604 -1.5149
  274MOL   C13844364   2.388   6.366   7.141 -0.0822  0.0662  0.6686
  274MOL   C13944365   2.430   6.498   7.217 -0.2035 -1.0067  0.6422
  274MOL   N14044366   2.514   6.463   0.051  0.1638 -0.1059 -0.2707
  274MOL   H14144367   2.342   6.298   7.212 -0.0612  0.5931  1.1924
  274MOL   H14244368   2.480   6.319   7.109 -0.0620  0.1118  0.6598
  274MOL   H14344369   2.338   6.545   7.252 -1.1110 -1.9504 -0.4396
  274MOL   H14444370   2.614   6.472   0.039  0.3658  0.9014  1.8542
  274MOL   H14544371   2.505   6.368   0.086 -2.4913  0.5489  0.9800
  274MOL   C14644372   2.518   6.585   7.128  0.4247  0.1727 -0.3941
  274MOL   C14744373   2.546   6.733   7.171 -0.2853  0.6261  0.0740
  274MOL   N14844374   2.668   6.778   7.107  0.4608  0.1264 -0.3502
  274MOL   H14944375   2.609   6.534   7.098 -0.8416 -0.2249 -3.7465
  274MOL   H15044376   2.474   6.600   7.030 -0.0620  2.9145  0.1832
  274MOL   H15144377   2.550   6.731   0.005  0.7030 -0.4124  0.0406
  274MOL   H15244378   2.661   6.788   7.007 -1.6490  2.8772  0.0074
  274MOL   H15344379   2.740   6.710   7.129  0.8605 -0.1659 -2.4502
  274MOL   C15444380   2.447   6.831   7.136 -0.8218 -0.0593 -0.3526
  274MOL   C15544381   2.306   6.797   7.181 -0.4743 -0.9195 -0.2923
  274MOL   N15644382   2.230   6.924   7.201  0.1371  0.1976  0.2137
  274MOL   H15744383   2.479   6.924   7.183 -2.8392  0.9423 -0.8902
  274MOL   H15844384   2.443   6.859   7.030 -0.7276  0.0182 -0.3350
  274MOL   H15944385   2.312   6.752   0.005 -0.5025 -0.1073  0.0776
  274MOL   H16044386   2.227   6.977   7.115  0.3801 -0.1326  0.0009
  274MOL   H16144387   2.133   6.903   7.215 -0.3584  1.4309 -1.2750
  274MOL   H16244388   2.265   6.716   7.121 -0.9515 -1.1053  0.2834
  275MOL     C144389   3.803   2.171   0.402 -0.4787 -0.2439  0.3353
  275MOL     C244390   3.821   2.113   0.538  0.0991  0.2562  0.2362
  275MOL     N344391   3.838   1.970   0.509  0.0639  0.1055  0.3996
  275MOL     H444392   3.793   2.279   0.411  1.9486 -0.0883  1.6671
  275MOL     H544393   3.716   2.138   0.345 -0.7703  3.0159 -1.2099
  275MOL     H644394   3.736   2.135   0.602  1.0027 -0.1963  1.6317
  275MOL     H744395   3.752   1.930   0.472 -0.4448  0.2310  1.4301
  275MOL     H844396   3.862   1.920   0.593 -2.2222 -0.9684  0.4469
  275MOL     H944397   3.892   2.154   0.340  0.2155 -1.3087  1.5965
  275MOL    C1044398   3.950   2.165   0.610  0.1313 -0.3882 -0.9363
  275MOL    C1144399   3.947   2.315   0.666 -0.0226 -0.5835 -0.3299
  275MOL    N1244400   3.842   2.331   0.767  0.3958 -0.6176 -0.5446
  275MOL    H1344401   3.985   2.097   0.687  3.6281  0.0800 -2.0213
  275MOL    H1444402   4.028   2.172   0.534 -0.0027  0.1936 -1.0194
  275MOL    H1544403   3.930   2.389   0.588 -0.8256  0.6700  1.0023
  275MOL    H1644404   3.856   2.426   0.799 -0.4913 -0.5079 -0.4708
  275MOL    H1744405   3.753   2.335   0.719 -0.4478 -1.6848  0.8977
  275MOL    C1844406   4.081   2.363   0.726  0.8211 -0.3418 -0.4236
  275MOL    C1944407   4.203   2.346   0.635  0.1800  0.3180  0.2083
  275MOL    N2044408   4.183   2.405   0.498 -0.1177 -0.4278 -0.3691
  275MOL    H2144409   4.066   2.467   0.754  1.8697 -0.3625  0.2293
  275MOL    H2244410   4.094   2.322   0.826  2.1595  0.7111 -0.1502
  275MOL    H2344411   4.215   2.238   0.623 -1.0384  0.2514 -0.4052
  275MOL    H2444412   4.269   2.382   0.450  0.4823 -0.2767  0.5976
  275MOL    H2544413   4.110   2.363   0.443 -1.5196  0.2710  0.9255
  275MOL    C2644414   4.328   2.413   0.704 -0.1634  0.0258  0.5689
  275MOL    C2744415   4.455   2.343   0.670 -0.2037  0.0070  0.4641
  275MOL    N2844416   4.565   2.425   0.723  0.1722  0.6007  0.2509
  275MOL    H2944417   4.321   2.517   0.672  2.6118 -0.2378 -1.0325
  275MOL    H3044418   4.321   2.412   0.813 -4.7724  2.3088  0.4407
  275MOL    H3144419   4.463   2.322   0.563 -0.7223 -0.4841  0.5169
  275MOL    H3244420   4.652   2.374   0.725 -0.6043 -0.7381  1.0325
  275MOL    H3344421   4.570   2.511   0.671  0.3023  1.4243  1.5876
  275MOL    C3444422   4.461   2.208   0.751 -0.6894 -0.7538 -0.5404
  275MOL    C3544423   4.557   2.110   0.688 -0.3411 -0.2611  0.0302
  275MOL    N3644424   4.576   2.000   0.781  0.0522 -0.2643 -0.0945
  275MOL    H3744425   4.476   2.237   0.855 -2.1912  0.4609 -0.6447
  275MOL    H3844426   4.364   2.159   0.740 -0.0803 -1.7392 -1.6541
  275MOL    H3944427   4.654   2.153   0.665 -1.9859  4.0405  0.6671
  275MOL    H4044428   4.592   2.034   0.875 -0.2854  0.0184 -0.1379
  275MOL    H4144429   4.659   1.951   0.752 -0.7267 -1.3555 -0.5240
  275MOL    C4244430   4.495   2.046   0.560  0.1001  0.8033 -0.4919
  275MOL    C4344431   4.600   2.042   0.438  0.2547  0.8065 -0.1985
  275MOL    N4444432   4.536   1.971   0.334 -0.3438  0.3865 -0.2500
  275MOL    H4544433   4.460   1.945   0.581 -0.1061  1.1315  0.7381
  275MOL    H4644434   4.408   2.106   0.534 -0.0774  0.5917 -0.3788
  275MOL    H4744435   4.682   1.978   0.472  0.9603  0.8554 -1.7682
  275MOL    H4844436   4.435   1.979   0.336 -0.3397  0.3509  0.2654
  275MOL    H4944437   4.555   1.873   0.350  0.0981  0.4043 -0.6725
  275MOL    C5044438   4.659   2.172   0.382  0.4407  0.4660 -0.1153
  275MOL    C5144439   4.780   2.157   0.287 -0.4087  0.0353  0.1850
  275MOL    N5244440   4.796   2.284   0.219  0.2204  0.4895 -0.2483
  275MOL    H5344441   4.573   2.227   0.343 -0.2909 -0.9443 -0.5658
  275MOL    H5444442   4.701   2.230   0.463  0.2560  1.1989 -0.5422
  275MOL    H5544443   4.771   2.067   0.225 -1.7201  1.0982 -1.1881
  275MOL    H5644444   4.885   2.332   0.219  0.4144  0.1273 -0.8349
  275MOL    H5744445   4.769   2.271   0.123 -1.3097  0.5190  0.1735
  275MOL    C5844446   4.908   2.127   0.368 -0.1204 -0.0087 -0.5953
  275MOL    C5944447   5.027   2.058   0.296 -0.3171 -0.0517 -0.4342
  275MOL    N6044448   5.136   2.049   0.394  0.0257  0.4670  0.4867
  275MOL    H6144449   4.949   2.215   0.418 -0.1799 -0.6728  0.6472
  275MOL    H6244450   4.886   2.073   0.460 -0.6942  0.1833 -0.6169
  275MOL    H6344451   5.057   2.118   0.211  1.4629 -1.2123 -0.6515
  275MOL    H6444452   5.153   2.142   0.429 -0.5631  0.3339  1.1398
  275MOL    H6544453   5.220   2.028   0.341 -0.0367  0.1328  0.5219
  275MOL    C6644454   5.002   1.907   0.248  0.2415 -0.0817  0.3456
  275MOL    C6744455   5.121   1.835   0.182  0.6174  0.4181  0.4748
  275MOL    N6844456   5.108   1.691   0.201  0.3849  0.4257  0.2707
  275MOL    H6944457   4.978   1.851   0.338 -0.8750 -0.6215 -0.2914
  275MOL    H7044458   4.921   1.885   0.179  0.4803  0.2645 -0.0547
  275MOL    H7144459   5.213   1.858   0.235  0.9844 -1.0096  0.4869
  275MOL    H7244460   5.098   1.665   0.297 -0.9270 -0.0725  0.0004
  275MOL    H7344461   5.204   1.660   0.194  0.6376  0.9383  1.3490
  275MOL    C7444462   5.136   1.868   0.026 -0.5826 -0.6970 -0.7440
  275MOL    C7544463   5.193   2.011   7.266  0.0285 -0.0067  0.7563
  275MOL    N7644464   5.319   1.983   7.198 -0.3179 -0.1777 -0.3076
  275MOL    H7744465   5.176   1.786   7.242 -2.3976 -1.7520 -0.5692
  275MOL    H7844466   5.034   1.869   7.262 -0.7135 -1.3379 -0.4239
  275MOL    H7944467   5.212   2.069   0.080 -1.7060  3.0666 -0.7909
  275MOL    H8044468   5.370   1.930   7.267 -1.7425 -1.1708  0.0039
  275MOL    H8144469   5.378   2.063   7.181  0.6508 -1.3895 -2.9978
  275MOL    C8244470   5.110   2.078   7.156  0.2142 -0.1430  0.2041
  275MOL    C8344471   5.130   2.228   7.136  0.8258  0.0358  0.0058
  275MOL    N8444472   5.082   2.270   7.010  0.2528 -0.1068 -0.4556
  275MOL    H8544473   5.130   2.026   7.062 -0.2987  2.0016 -1.1170
  275MOL    H8644474   5.004   2.054   7.161  0.1157 -0.0354 -1.1840
  275MOL    H8744475   5.237   2.246   7.131  0.6692  1.1894  0.5756
  275MOL    H8844476   5.118   2.363   6.997 -1.7272  0.6884 -0.2667
  275MOL    H8944477   5.116   2.209   6.936 -0.9874 -2.1899  0.6236
  275MOL    C9044478   5.077   2.310   7.247 -0.1629  0.5043 -0.2023
  275MOL    C9144479   5.125   2.465   7.262 -0.4685 -0.2543 -0.2313
  275MOL    N9244480   5.043   2.525   0.087  0.2206 -0.7380  0.4986
  275MOL    H9344481   4.970   2.312   7.231 -0.1969  1.3690  0.0734
  275MOL    H9444482   5.113   2.270   0.067 -1.1861  1.3365  0.5382
  275MOL    H9544483   5.119   2.517   7.167 -1.6241 -0.7663 -0.4511
  275MOL    H9644484   5.088   2.533   0.178  2.3654 -0.0580 -0.5778
  275MOL    H9744485   5.021   2.620   0.060 -0.2874 -0.4345  1.9414
  275MOL    C9844486   5.270   2.480   0.030 -0.3881  0.3949  0.3890
  275MOL    C9944487   5.369   2.495   7.179 -0.4180  0.0788  0.0798
  275MOL   N10044488   5.374   2.632   7.140 -0.1710 -0.4579  0.1788
  275MOL   H10144489   5.277   2.561   0.102  0.7911 -0.3419  1.1277
  275MOL   H10244490   5.300   2.393   0.088  2.4264  0.9661 -0.1496
  275MOL   H10344491   5.327   2.445   7.092  1.1358 -1.4375  0.1765
  275MOL   H10444492   5.290   2.675   7.103  0.7200 -0.0050 -1.3507
  275MOL   H10544493   5.412   2.681   7.220 -0.8455 -0.4824  0.5220
  275MOL   C10644494   5.516   2.447   7.215  0.1332  0.4724 -0.2394
  275MOL   C10744495   5.525   2.293   7.232 -0.3437 -0.4102  0.4178
  275MOL   N10844496   5.514   2.223   7.107  0.2935  0.4000 -0.1922
  275MOL   H10944497   5.592   2.491   7.151  0.2167  0.3122 -0.2527
  275MOL   H11044498   5.530   2.494   0.037  1.2822  1.1859 -0.7402
  275MOL   H11144499   5.446   2.272   0.029  1.1477 -1.1342  1.8640
  275MOL   H11244500   5.599   2.179   7.074  0.1488 -0.1811  0.2044
  275MOL   H11344501   5.490   2.291   7.036  0.3762  0.7119  0.0804
  275MOL   C11444502   5.649   2.238   0.027 -0.2561  0.8404  0.2435
  275MOL   C11544503   5.638   2.096   0.092  0.2381 -0.6578 -0.4409
  275MOL   N11644504   5.770   2.041   0.119 -0.2032  0.4799 -0.6505
  275MOL   H11744505   5.743   2.250   7.248  0.5210  2.4288  1.8354
  275MOL   H11844506   5.661   2.310   0.109 -0.0445 -0.4143  1.3355
  275MOL   H11944507   5.593   2.031   0.016  1.4122 -2.4239  0.3477
  275MOL   H12044508   5.828   2.111   0.165 -0.2188  1.2882 -1.8305
  275MOL   H12144509   5.752   1.978   0.195  0.7011 -0.6938 -1.3789
  275MOL   C12244510   5.548   2.089   0.212  0.5794 -0.5036  0.2530
  275MOL   C12344511   5.558   1.967   0.291 -0.0302 -0.0228  0.1738
  275MOL   N12444512   5.474   1.986   0.402 -0.0698  0.2094 -0.2721
  275MOL   H12544513   5.569   2.179   0.271 -4.3899 -0.3117  1.9848
  275MOL   H12644514   5.446   2.111   0.181  0.1566 -0.1035  1.8821
  275MOL   H12744515   5.661   1.961   0.327 -0.1976 -0.4659  0.5767
  275MOL   H12844516   5.475   1.909   0.467 -1.0160  0.0234 -0.4708
  275MOL   H12944517   5.508   2.066   0.453 -0.2959 -0.7118  1.3448
  275MOL   C13044518   5.521   1.849   0.198  0.2474  0.6963 -0.2396
  275MOL   C13144519   5.513   1.713   0.275  0.2503 -0.0290 -0.7578
  275MOL   N13244520   5.443   1.614   0.199 -0.0680 -0.6387  0.1332
  275MOL   H13344521   5.421   1.873   0.163  0.4007 -0.2526 -1.3556
  275MOL   H13444522   5.569   1.824   0.103 -2.2340 -3.3158 -0.5506
  275MOL   H13544523   5.441   1.725   0.356  1.1699 -1.4329  0.2881
  275MOL   H13644524   5.427   1.540   0.266 -0.7981  0.1827  0.8706
  275MOL   H13744525   5.488   1.582   0.114  1.1122  1.1258  0.0769
  275MOL   C13844526   5.640   1.652   0.335  0.2013 -0.0242  0.2786
  275MOL   C13944527   5.668   1.690   0.480 -0.6889 -0.1759  0.7459
  275MOL   N14044528   5.591   1.600   0.560 -0.0931  0.1007  0.2614
  275MOL   H14144529   5.628   1.543   0.328  1.3184 -0.1368  0.1320
  275MOL   H14244530   5.724   1.673   0.270 -1.0696  2.9486 -0.4502
  275MOL   H14344531   5.637   1.791   0.508  0.4879  0.7968 -1.4017
  275MOL   H14444532   5.649   1.518   0.566 -1.1877 -0.9912 -2.6911
  275MOL   H14544533   5.567   1.637   0.651 -0.5562 -1.0217  0.6025
  275MOL   C14644534   5.821   1.682   0.522 -0.3385 -0.5478  0.9637
  275MOL   C14744535   5.905   1.810   0.497 -0.1621 -0.3540  0.3870
  275MOL   N14844536   5.899   1.848   0.360 -0.3791 -0.1075  0.1832
  275MOL   H14944537   5.830   1.646   0.624 -0.4874 -0.7814  0.8968
  275MOL   H15044538   5.866   1.593   0.478  0.6196  0.3330  0.1352
  275MOL   H15144539   6.007   1.772   0.507 -0.6854 -2.3114 -1.3493
  275MOL   H15244540   5.955   1.930   0.345 -0.8288 -0.3094 -2.8638
  275MOL   H15344541   5.946   1.774   0.310 -0.6065 -1.9147  2.5554
  275MOL   C15444542   5.863   1.927   0.576 -0.1722  0.3216  0.2607
  275MOL   C15544543   5.916   1.930   0.723  0.3912 -0.5811  0.3005
  275MOL   N15644544   5.908   2.068   0.786 -0.3476 -0.6114 -0.4545
  275MOL   H15744545   5.886   2.018   0.520  1.2508  0.9245  1.7703
  275MOL   H15844546   5.755   1.943   0.581 -0.1310  1.0572 -0.9058
  275MOL   H15944547   6.015   1.886   0.733  0.8704  0.1092 -1.3259
  275MOL   H16044548   5.949   2.137   0.725 -1.1109  0.0171 -0.2508
  275MOL   H16144549   5.966   2.066   0.868  1.6965  0.1580 -1.8326
  275MOL   H16244550   5.862   1.860   0.786 -1.1486  0.8005  0.5682
  276MOL     C144551   2.343   0.043   4.914  0.2020 -0.0758 -1.2879
  276MOL     C244552   2.333   0.099   5.052  0.0856  0.7729  0.1096
  276MOL     N344553   2.244   0.217   5.056 -0.3570  0.2876 -0.1893
  276MOL     H444554   2.244   0.026   4.870 -0.2877 -0.4620 -0.0660
  276MOL     H544555   2.395   7.223   4.923  0.7269  0.3423  0.2572
  276MOL     H644556   2.434   0.121   5.088 -0.5286  2.1471  1.0415
  276MOL     H744557   2.236   0.237   5.155 -0.5794 -0.3348 -0.0753
  276MOL     H844558   2.148   0.209   5.026 -0.5624 -0.5055  0.6528
  276MOL     H944559   2.398   0.110   4.848 -0.5811  1.0405 -0.8395
  276MOL    C1044560   2.288   7.266   5.158 -0.9487  0.0424  0.2453
  276MOL    C1144561   2.377   7.136   5.166  0.1325  0.3769 -0.8303
  276MOL    N1244562   2.488   7.172   5.257 -0.1409  0.1779 -0.4058
  276MOL    H1344563   2.255   0.028   5.255  0.2331  1.1967  0.2130
  276MOL    H1444564   2.191   7.232   5.121 -1.3330  0.3949  0.9293
  276MOL    H1544565   2.412   7.099   5.070 -0.5478  0.2305 -1.0283
  276MOL    H1644566   2.463   7.243   5.325  0.8396 -0.8880  1.1024
  276MOL    H1744567   2.558   7.213   5.197 -0.5963  0.8822 -0.4623
  276MOL    C1844568   2.298   7.015   5.229  0.8562 -0.7332 -0.3324
  276MOL    C1944569   2.201   6.939   5.130  0.5297  0.4631  0.1806
  276MOL    N2044570   2.271   6.818   5.083  0.2744 -0.5401 -0.2189
  276MOL    H2144571   2.381   6.949   5.253  0.6758 -0.0837  2.1646
  276MOL    H2244572   2.252   7.041   5.324 -1.9644  1.0501 -2.1193
  276MOL    H2344573   2.177   7.003   5.046  0.5380  1.6449  1.0620
  276MOL    H2444574   2.352   6.853   5.034  0.1225 -1.1127 -0.8958
  276MOL    H2544575   2.214   6.768   5.015  1.1082 -2.5368  0.5196
  276MOL    C2644576   2.067   6.893   5.185 -0.1907 -0.7434 -0.2488
  276MOL    C2744577   1.954   7.004   5.177  0.3088 -0.5822  0.1386
  276MOL    N2844578   1.830   6.939   5.200 -0.5359  0.3373  0.6923
  276MOL    H2944579   2.033   6.812   5.120 -1.1548 -0.0466 -0.6321
  276MOL    H3044580   2.078   6.838   5.279 -0.1571 -0.2049  0.0606
  276MOL    H3144581   1.941   7.050   5.079 -0.2347 -2.2395 -0.6052
  276MOL    H3244582   1.844   6.860   5.260 -2.8398 -1.4335 -0.9853
  276MOL    H3344583   1.764   7.001   5.245 -1.3600  0.3741 -0.5367
  276MOL    C3444584   1.955   7.112   5.281  0.0550  0.4266  0.2585
  276MOL    C3544585   1.856   7.231   5.260  0.1285 -1.3718  0.5503
  276MOL    N3644586   1.843   0.032   5.388  0.6895  0.1098 -0.0607
  276MOL    H3744587   1.945   7.069   5.381  0.4169  1.3964  0.7150
  276MOL    H3844588   2.056   7.153   5.287 -0.0512  0.5391  1.3263
  276MOL    H3944589   1.763   7.197   5.215 -0.4544  1.0107 -0.1504
  276MOL    H4044590   1.821   0.129   5.375  3.8548  0.7097 -1.6708
  276MOL    H4144591   1.773   7.257   5.440 -0.2602  0.7732 -0.6978
  276MOL    C4244592   1.910   0.051   5.156  0.1565  0.4002 -0.2582
  276MOL    C4344593   1.816   0.120   5.049  0.6313  0.3790  0.3951
  276MOL    N4444594   1.897   0.222   4.979 -0.9844 -0.1252  0.2193
  276MOL    H4544595   1.965   0.130   5.209  3.1627 -1.4748 -0.4866
  276MOL    H4644596   1.975   7.267   5.092  0.3326 -0.1461  0.4198
  276MOL    H4744597   1.732   0.151   5.111  0.5947 -3.1767  2.2649
  276MOL    H4844598   1.863   0.257   4.891  1.6328  0.4184 -0.6343
  276MOL    H4944599   1.911   0.298   5.045 -1.2135  1.4797 -1.5342
  276MOL    C5044600   1.771   0.018   4.940  0.1964 -0.0937 -0.5549
  276MOL    C5144601   1.649   0.048   4.854  0.2857 -0.8121  0.5141
  276MOL    N5244602   1.618   7.208   4.759 -0.3637  0.2096 -0.0575
  276MOL    H5344603   1.858   7.265   4.880  1.0464  1.9996 -0.3671
  276MOL    H5444604   1.732   7.211   5.000 -0.7999 -0.1135 -1.2127
  276MOL    H5544605   1.682   0.120   4.778  1.2625 -1.6243  0.1576
  276MOL    H5644606   1.701   7.187   4.706 -0.5953  0.8442 -0.6711
  276MOL    H5744607   1.563   7.242   4.682  0.3712 -0.8686 -1.0696
  276MOL    C5844608   1.519   0.087   4.943  0.1323  0.0665  0.6157
  276MOL    C5944609   1.392   0.123   4.867  0.3333  0.6500 -0.3630
  276MOL    N6044610   1.294   0.140   4.973 -0.7715 -0.1479  0.4148
  276MOL    H6144611   1.505   0.008   5.016  1.0117 -0.0647  0.6459
  276MOL    H6244612   1.533   0.170   5.012 -0.2934  1.6964 -1.2031
  276MOL    H6344613   1.352   0.044   4.804  1.2896  1.2725 -1.7761
  276MOL    H6444614   1.294   0.051   5.022  3.1988 -0.3271  0.2688
  276MOL    H6544615   1.334   0.209   5.035  1.4535 -1.3933  0.4381
  276MOL    C6644616   1.414   0.247   4.779 -0.1904 -0.3906 -0.3260
  276MOL    C6744617   1.289   0.292   4.700  0.8319 -0.4778 -0.2766
  276MOL    N6844618   1.338   0.383   4.597 -0.6516  0.1860 -0.3590
  276MOL    H6944619   1.445   0.331   4.842 -1.0245  0.8324 -1.5044
  276MOL    H7044620   1.497   0.221   4.713 -0.7979 -1.6251 -0.6043
  276MOL    H7144621   1.226   0.347   4.770  0.9909  0.6674 -1.0177
  276MOL    H7244622   1.283   0.383   4.512 -2.4222  0.6766  0.7443
  276MOL    H7344623   1.355   0.479   4.623 -1.2750  0.3960 -0.7333
  276MOL    C7444624   1.208   0.185   4.625 -0.4052  0.4997  0.5402
  276MOL    C7544625   1.107   0.105   4.703  0.6477  0.1279 -0.2982
  276MOL    N7644626   1.018   0.189   4.786  0.7751 -0.2642  0.0967
  276MOL    H7744627   1.155   0.238   4.546 -3.0755  0.3303  2.1668
  276MOL    H7844628   1.261   0.115   4.560 -0.9568 -0.6169  1.2825
  276MOL    H7944629   1.163   0.039   4.769  0.9249 -0.5737 -1.2222
  276MOL    H8044630   1.064   0.202   4.875  0.9038  0.1220 -0.0227
  276MOL    H8144631   0.952   0.123   4.825  1.7724 -1.5807 -0.4214
  276MOL    C8244632   1.027   0.005   4.620  0.0759 -0.0359  0.2364
  276MOL    C8344633   0.947   7.174   4.694  0.1013 -0.4067 -0.1820
  276MOL    N8444634   0.856   7.110   4.602  0.3250  0.6214 -0.7568
  276MOL    H8544635   0.972   0.059   4.542  2.2820 -0.2888 -1.5535
  276MOL    H8644636   1.094   7.231   4.550 -1.7760 -0.7795 -1.0358
  276MOL    H8744637   0.881   7.223   4.764  0.1946  1.4762 -1.3774
  276MOL    H8844638   0.763   7.149   4.600 -0.0660 -0.3185 -1.1137
  276MOL    H8944639   0.848   7.012   4.626 -0.0382  1.3886  2.5369
  276MOL    C9044640   1.044   7.059   4.739 -0.4031 -0.0351 -0.2647
  276MOL    C9144641   0.977   6.959   4.834 -0.0705 -0.2064  0.4255
  276MOL    N9244642   0.998   6.829   4.769 -0.0433 -0.5345 -0.1714
  276MOL    H9344643   1.101   7.013   4.659 -0.1925 -3.4284  1.7446
  276MOL    H9444644   1.123   7.106   4.798 -2.4421  0.3877  2.2226
  276MOL    H9544645   0.870   6.978   4.844 -0.0694  1.1650 -1.6853
  276MOL    H9644646   1.014   6.839   4.670  0.5919  4.1055  0.3147
  276MOL    H9744647   0.920   6.766   4.782 -0.2184 -0.2016  0.4329
  276MOL    C9844648   1.037   6.953   4.978 -0.1883  0.1774  0.1423
  276MOL    C9944649   1.017   7.068   5.076  0.1337 -0.3393 -0.3217
  276MOL   N10044650   0.873   7.078   5.104  0.2662 -0.7967  0.6388
  276MOL   H10144651   1.011   6.859   5.025 -1.6596  0.1319 -0.7335
  276MOL   H10244652   1.145   6.950   4.961 -0.2332 -0.7648  0.0279
  276MOL   H10344653   1.057   7.163   5.041  0.8126 -0.5010 -0.0026
  276MOL   H10444654   0.816   7.099   5.023  0.7774  0.4695  0.5868
  276MOL   H10544655   0.835   6.990   5.136  0.3187 -0.0337  2.8725
  276MOL   C10644656   1.088   7.055   5.211  0.6021 -0.0534 -0.0004
  276MOL   C10744657   1.242   7.037   5.211  0.1665 -0.1974 -0.0232
  276MOL   N10844658   1.302   7.135   5.121  0.2869  0.1442  0.2003
  276MOL   H10944659   1.057   7.145   5.264 -2.6774 -0.6332 -0.7913
  276MOL   H11044660   1.040   6.982   5.276 -0.6856  0.0779 -0.7667
  276MOL   H11144661   1.269   6.938   5.174  2.3155 -0.6041  2.5023
  276MOL   H11244662   1.266   7.102   5.033  0.1711 -1.9097  0.9805
  276MOL   H11344663   1.397   7.100   5.118 -0.1956 -1.3337  1.2661
  276MOL   C11444664   1.308   7.061   5.347  0.5116  0.0612 -0.0672
  276MOL   C11544665   1.461   7.039   5.355 -0.3459 -0.2837 -0.7897
  276MOL   N11644666   1.503   7.132   5.459  0.2045 -0.2524  0.0723
  276MOL   H11744667   1.279   7.163   5.374 -1.7681 -0.7070  0.4656
  276MOL   H11844668   1.253   7.013   5.428 -2.6977  2.5893 -0.6659
  276MOL   H11944669   1.518   7.054   5.264  1.0844  0.6714  0.2318
  276MOL   H12044670   1.482   7.221   5.417 -0.9387 -0.8064 -0.5587
  276MOL   H12144671   1.431   7.122   5.530  0.0167 -1.0060 -0.2185
  276MOL   C12244672   1.491   6.902   5.412 -0.9028 -0.2376 -0.0205
  276MOL   C12344673   1.473   6.782   5.322 -0.2283 -0.2958 -0.8561
  276MOL   N12444674   1.602   6.720   5.297 -0.1040 -0.8942  0.3714
  276MOL   H12544675   1.595   6.907   5.442 -1.0016  1.2905  0.1176
  276MOL   H12644676   1.437   6.901   5.507  0.9352  1.3788  1.0635
  276MOL   H12744677   1.433   6.826   5.230 -1.7076 -1.8568 -0.9760
  276MOL   H12844678   1.655   6.784   5.239 -0.9582 -0.2684  0.2794
  276MOL   H12944679   1.661   6.693   5.374  0.7237 -1.9331 -0.6099
  276MOL   C13044680   1.382   6.665   5.371  0.1577  0.1031  0.0009
  276MOL   C13144681   1.233   6.701   5.388  0.3305 -0.4040  0.1755
  276MOL   N13244682   1.156   6.656   5.269  0.2462 -0.0313  0.1125
  276MOL   H13344683   1.378   6.585   5.297 -1.4076  0.7666 -0.6543
  276MOL   H13444684   1.429   6.620   5.458 -0.5881  0.9666  0.8604
  276MOL   H13544685   1.217   6.809   5.393 -0.9580 -0.5472 -0.6111
  276MOL   H13644686   1.182   6.701   5.183  1.8835 -4.0958 -1.6705
  276MOL   H13744687   1.172   6.557   5.254 -0.4899 -0.2361  0.6388
  276MOL   C13844688   1.169   6.648   5.524 -0.5460  0.0785 -0.1651
  276MOL   C13944689   1.028   6.692   5.560 -0.1246  0.5769  0.4699
  276MOL   N14044690   0.966   6.597   5.653  0.1902 -0.4629  0.1398
  276MOL   H14144691   1.179   6.540   5.522  1.9954  0.2710  0.5860
  276MOL   H14244692   1.228   6.682   5.609  1.6702 -2.8010 -0.4940
  276MOL   H14344693   0.973   6.696   5.465  2.5334  2.6328 -1.0559
  276MOL   H14444694   0.935   6.521   5.594 -0.0556  1.2752 -2.0450
  276MOL   H14544695   0.890   6.661   5.671  1.6058  1.2712  0.1809
  276MOL   C14644696   1.018   6.829   5.626 -0.0289  0.4803  0.7021
  276MOL   C14744697   0.889   6.903   5.592  0.1205  0.2963 -0.2321
  276MOL   N14844698   0.783   6.835   5.667  0.1770 -0.0190  0.8471
  276MOL   H14944699   1.035   6.817   5.733 -0.6221  1.1736  0.8746
  276MOL   H15044700   1.099   6.889   5.585  0.2244 -1.1472 -1.3038
  276MOL   H15144701   0.864   6.910   5.486  0.4452 -3.3200 -0.5876
  276MOL   H15244702   0.796   6.860   5.764  1.4448  1.1905  0.3946
  276MOL   H15344703   0.701   6.887   5.639  0.8404  0.4376 -0.2849
  276MOL   C15444704   0.899   7.046   5.638  0.8009 -0.2464  0.3785
  276MOL   C15544705   0.972   7.144   5.548 -0.3981 -0.4267  0.3156
  276MOL   N15644706   1.019   7.259   5.617 -0.2448  0.6657  0.6886
  276MOL   H15744707   0.800   7.091   5.650  1.1462  0.7408 -0.5113
  276MOL   H15844708   0.941   7.044   5.739 -2.8607 -0.5488  1.9872
  276MOL   H15944709   0.909   7.168   5.462 -1.2696 -1.5081  0.6398
  276MOL   H16044710   0.955   0.005   5.692 -0.4126 -1.3114  1.1386
  276MOL   H16144711   1.034   0.065   5.560  1.9188 -1.1452 -1.4724
  276MOL   H16244712   1.057   7.097   5.498 -1.2877  0.8491 -2.4839
  277MOL     C144713   1.050   2.574   6.760 -0.6508 -0.4091 -0.0659
  277MOL     C244714   1.004   2.426   6.773  0.3800  0.1395 -0.6740
  277MOL     N344715   0.907   2.428   6.882 -0.3782 -0.1057  0.4031
  277MOL     H444716   1.097   2.586   6.662  0.1817 -0.1219  0.3651
  277MOL     H544717   1.119   2.604   6.838 -1.5448  0.5382  0.3756
  277MOL     H644718   1.083   2.361   6.811 -0.0281 -0.4970 -0.9139
  277MOL     H744719   0.952   2.459   6.967  0.1453 -1.1778  0.5244
  277MOL     H844720   0.893   2.335   6.917  0.4076  0.5832  2.6618
  277MOL     H944721   0.963   2.639   6.768 -0.9132 -0.7068 -0.5020
  277MOL    C1044722   0.935   2.356   6.651 -0.4597 -0.1291  0.0565
  277MOL    C1144723   1.020   2.267   6.560  0.6145  0.1611 -0.2389
  277MOL    N1244724   0.941   2.245   6.438 -0.5373  1.1996  0.2865
  277MOL    H1344725   0.859   2.291   6.695  1.1950 -0.7461  2.0620
  277MOL    H1444726   0.890   2.440   6.597  1.6104  1.3221  0.5264
  277MOL    H1544727   1.046   2.171   6.604 -0.6957  0.1086  0.4515
  277MOL    H1644728   0.940   2.332   6.387 -1.1269  1.8856  1.4443
  277MOL    H1744729   0.843   2.219   6.447 -0.5849  1.3854  0.3059
  277MOL    C1844730   1.156   2.326   6.526  0.3483 -0.7970 -0.5279
  277MOL    C1944731   1.253   2.242   6.445 -0.2182  0.0646  0.1241
  277MOL    N2044732   1.223   2.254   6.303  0.5098 -0.3508 -0.1587
  277MOL    H2144733   1.140   2.415   6.465  0.1607 -0.5279 -0.0913
  277MOL    H2244734   1.212   2.364   6.611  0.5336 -2.9845  0.3571
  277MOL    H2344735   1.227   2.142   6.480 -0.7346  0.6876  1.5353
  277MOL    H2444736   1.122   2.255   6.305  0.4765  2.4076  3.0271
  277MOL    H2544737   1.252   2.172   6.252 -0.9495  0.2635 -2.0365
  277MOL    C2644738   1.409   2.265   6.467 -0.4930 -0.0521  0.0431
  277MOL    C2744739   1.462   2.264   6.609 -0.2784  0.3138 -0.4782
  277MOL    N2844740   1.585   2.182   6.610  0.6242 -0.4463  0.4251
  277MOL    H2944741   1.455   2.183   6.412 -0.2279  0.0660  0.0879
  277MOL    H3044742   1.434   2.345   6.398 -0.9875 -0.2047 -0.3100
  277MOL    H3144743   1.390   2.214   6.674 -0.6678  1.9264  0.3423
  277MOL    H3244744   1.600   2.152   6.706  0.3159 -0.8886  0.3333
  277MOL    H3344745   1.558   2.096   6.565  2.6188 -0.4376 -0.8451
  277MOL    C3444746   1.493   2.405   6.659 -0.2451  0.7169 -0.8670
  277MOL    C3544747   1.570   2.423   6.799  0.3027 -0.1324  0.2030
  277MOL    N3644748   1.600   2.563   6.806 -0.1486  0.6472  0.0398
  277MOL    H3744749   1.558   2.442   6.581 -1.4419  0.5518 -1.9563
  277MOL    H3844750   1.405   2.469   6.659  0.7684  2.1959  1.5208
  277MOL    H3944751   1.661   2.363   6.795 -0.5640 -1.4012 -0.8918
  277MOL    H4044752   1.687   2.578   6.758  1.3132  2.5676  3.1082
  277MOL    H4144753   1.621   2.587   6.902  1.8975 -0.1185 -0.1998
  277MOL    C4244754   1.477   2.397   6.920  0.1235 -0.5280 -0.4661
  277MOL    C4344755   1.466   2.256   6.967 -0.3000  0.4217  0.3186
  277MOL    N4444756   1.597   2.209   7.011  0.2162  0.0941 -0.6573
  277MOL    H4544757   1.490   2.471   6.999  0.7268  1.4170 -2.3219
  277MOL    H4644758   1.377   2.434   6.893  0.7347  2.8480  1.5904
  277MOL    H4744759   1.434   2.179   6.897 -0.1421  1.0522 -0.4628
  277MOL    H4844760   1.639   2.267   7.083  1.2551 -0.6692 -0.6199
  277MOL    H4944761   1.580   2.123   7.062  2.7478 -0.7116 -1.0737
  277MOL    C5044762   1.373   2.261   7.088  0.2520 -0.2035  0.1425
  277MOL    C5144763   1.360   2.135   7.173 -0.1496  1.1904 -0.2332
  277MOL    N5244764   1.290   2.174   0.013 -0.2293  0.6975  0.6806
  277MOL    H5344765   1.414   2.341   7.149  2.7440 -0.9442 -0.5131
  277MOL    H5444766   1.269   2.269   7.056 -1.3740 -4.3112  3.8530
  277MOL    H5544767   1.453   2.087   7.202 -1.3008 -0.0198  1.6214
  277MOL    H5644768   1.339   2.116   0.080 -0.6751 -1.9790 -1.2385
  277MOL    H5744769   1.320   2.266   0.043  1.8621 -0.6701  3.0671
  277MOL    C5844770   1.281   2.021   7.103 -0.2741 -0.0391 -0.6178
  277MOL    C5944771   1.361   1.916   7.019  0.6499  0.4838  0.1570
  277MOL    N6044772   1.453   1.851   7.104 -0.3995 -0.1204  0.3639
  277MOL    H6144773   1.229   1.965   7.180  2.1368 -0.1739  0.9754
  277MOL    H6244774   1.209   2.068   7.036 -0.4324  1.4588  0.5735
  277MOL    H6344775   1.421   1.961   6.940 -3.0736  0.4298 -2.7972
  277MOL    H6444776   1.512   1.915   7.154  1.4206  0.3364 -2.2758
  277MOL    H6544777   1.517   1.797   7.049 -1.7245 -1.7232  0.3461
  277MOL    C6644778   1.277   1.812   6.945 -0.5733  0.3336  0.0347
  277MOL    C6744779   1.223   1.845   6.807  0.0587  0.1736 -0.9541
  277MOL    N6844780   1.103   1.926   6.824  0.0317  0.2212 -0.5507
  277MOL    H6944781   1.332   1.720   6.925 -2.6467 -1.1016  0.6537
  277MOL    H7044782   1.191   1.775   7.001  0.4239  0.4325  1.6710
  277MOL    H7144783   1.182   1.764   6.745 -0.5355 -0.1338 -0.1767
  277MOL    H7244784   1.036   1.870   6.875 -0.9630 -0.3825 -2.4745
  277MOL    H7344785   1.054   1.936   6.737  1.8543 -0.0502 -1.6200
  277MOL    C7444786   1.318   1.912   6.700 -0.3745 -0.8384 -0.2357
  277MOL    C7544787   1.417   1.817   6.629  0.4256  0.0199  0.2769
  277MOL    N7644788   1.450   1.861   6.492  0.0179  0.8200  0.1196
  277MOL    H7744789   1.263   1.969   6.625  0.4995  1.0969  0.5454
  277MOL    H7844790   1.365   2.003   6.739 -1.4061 -0.9746  1.3593
  277MOL    H7944791   1.363   1.723   6.623 -0.2731  0.4687 -0.5753
  277MOL    H8044792   1.372   1.850   6.429  1.2533 -2.1849 -0.9717
  277MOL    H8144793   1.528   1.810   6.454  0.8410  0.7822  1.8110
  277MOL    C8244794   1.551   1.806   6.704  0.3412  0.6605 -0.0568
  277MOL    C8344795   1.622   1.671   6.694 -0.6367 -0.4893 -0.3300
  277MOL    N8444796   1.761   1.692   6.736  0.0355  0.0821  0.0622
  277MOL    H8544797   1.621   1.885   6.676  1.2302  0.2391  0.9515
  277MOL    H8644798   1.526   1.829   6.808  0.7780  0.3325  0.1195
  277MOL    H8744799   1.612   1.632   6.593 -0.4577  2.7746 -1.6638
  277MOL    H8844800   1.820   1.680   6.655  0.0143 -0.7092  0.1566
  277MOL    H8944801   1.780   1.786   6.767 -1.9499  0.8375 -0.9521
  277MOL    C9044802   1.556   1.567   6.791 -0.7522 -0.1062  0.3367
  277MOL    C9144803   1.550   1.419   6.752 -0.2100 -0.2961  0.6630
  277MOL    N9244804   1.502   1.330   6.864 -0.0552 -0.0540  0.8604
  277MOL    H9344805   1.589   1.589   6.892  2.0883  0.2383 -0.6251
  277MOL    H9444806   1.451   1.597   6.793 -0.5421  0.7069 -0.4288
  277MOL    H9544807   1.646   1.388   6.713 -0.7235  0.3150 -1.1415
  277MOL    H9644808   1.461   1.247   6.825 -0.4356  0.5802 -0.1303
  277MOL    H9744809   1.582   1.300   6.917 -1.4698 -0.9658  2.5020
  277MOL    C9844810   1.447   1.386   6.645 -0.0567  0.4901 -0.1600
  277MOL    C9944811   1.467   1.256   6.570 -0.5569  0.3776  0.3618
  277MOL   N10044812   1.331   1.215   6.528 -0.0182 -0.0151 -0.4189
  277MOL   H10144813   1.347   1.367   6.684 -0.0096  0.2804 -0.1449
  277MOL   H10244814   1.440   1.473   6.579 -0.8635 -0.3114 -1.1434
  277MOL   H10344815   1.502   1.170   6.628  0.0491 -1.1876 -2.2429
  277MOL   H10444816   1.274   1.211   6.611 -0.3488 -1.2232 -0.6941
  277MOL   H10544817   1.339   1.117   6.503  2.3365  0.4924 -1.9033
  277MOL   C10644818   1.572   1.263   6.452  0.2797  0.4229 -0.2753
  277MOL   C10744819   1.594   1.133   6.373  0.1360 -0.1044 -0.6234
  277MOL   N10844820   1.660   1.154   6.251  0.6816 -0.1742 -0.3902
  277MOL   H10944821   1.531   1.331   6.377 -0.4881  1.4110  1.0368
  277MOL   H11044822   1.662   1.314   6.484 -1.2047  2.9619 -0.0446
  277MOL   H11144823   1.497   1.086   6.355 -0.0296  1.0741 -2.9007
  277MOL   H11244824   1.666   1.065   6.203 -0.5616 -0.5877  0.2008
  277MOL   H11344825   1.593   1.209   6.198  1.6214 -0.8453 -2.3074
  277MOL   C11444826   1.677   1.022   6.445 -0.4448  0.1434 -0.0087
  277MOL   C11544827   1.690   0.880   6.378  0.0537  0.3495  0.2734
  277MOL   N11644828   1.789   0.818   6.464  0.9513  0.4567  0.4704
  277MOL   H11744829   1.774   1.065   6.467  0.3656 -1.1796 -0.8982
  277MOL   H11844830   1.637   1.004   6.545 -0.2009  2.0717  0.4494
  277MOL   H11944831   1.729   0.881   6.277  1.7943 -0.7890  0.9039
  277MOL   H12044832   1.756   0.725   6.486 -1.5124  0.9960 -0.7094
  277MOL   H12144833   1.850   0.812   6.383 -0.4870 -0.7794 -0.5573
  277MOL   C12244834   1.561   0.798   6.387  0.1641  0.3169  0.2794
  277MOL   C12344835   1.451   0.814   6.274  0.2138 -0.0530  0.4266
  277MOL   N12444836   1.523   0.768   6.150  0.3891 -0.0909 -0.2416
  277MOL   H12544837   1.576   0.690   6.386 -0.1928  0.2632  0.6315
  277MOL   H12644838   1.515   0.814   6.484 -1.8504 -3.7226  0.0919
  277MOL   H12744839   1.429   0.921   6.270  1.4419  0.2308  0.7219
  277MOL   H12844840   1.461   0.788   6.072  0.1383 -0.1539 -0.0609
  277MOL   H12944841   1.534   0.670   6.130 -1.2845 -0.0367 -1.6571
  277MOL   C13044842   1.321   0.735   6.304  0.6338 -0.1329 -0.2282
  277MOL   C13144843   1.219   0.807   6.393 -0.3412 -0.1627  0.2926
  277MOL   N13244844   1.128   0.886   6.317 -0.7842 -0.2774  0.0759
  277MOL   H13344845   1.294   0.716   6.200  0.5683 -0.7128 -0.1045
  277MOL   H13444846   1.345   0.638   6.347  0.1801  1.2963  3.4076
  277MOL   H13544847   1.268   0.880   6.458 -0.9898  1.8668 -1.4142
  277MOL   H13644848   1.066   0.932   6.381 -1.0919  0.7422 -0.9422
  277MOL   H13744849   1.183   0.956   6.268 -1.3710 -0.0824 -0.3009
  277MOL   C13844850   1.137   0.700   6.472  0.3292  0.1278 -0.3254
  277MOL   C13944851   1.179   0.672   6.615 -0.2647  0.6839 -0.3305
  277MOL   N14044852   1.086   0.587   6.678  0.5277  0.5749 -0.2769
  277MOL   H14144853   1.030   0.716   6.475 -0.0146 -2.0759 -0.2930
  277MOL   H14244854   1.131   0.604   6.420 -0.7773 -1.1675  2.1259
  277MOL   H14344855   1.176   0.768   6.665  3.5308 -0.9957  3.4947
  277MOL   H14444856   1.118   0.567   6.771 -1.8280  1.0738  0.6865
  277MOL   H14544857   1.080   0.501   6.626  2.4133 -0.1327  0.6573
  277MOL   C14644858   1.325   0.619   6.627  0.8230 -1.1265  0.3835
  277MOL   C14744859   1.385   0.652   6.763  0.2624 -0.0480 -0.6582
  277MOL   N14844860   1.506   0.574   6.786  0.6289  0.0905  0.4365
  277MOL   H14944861   1.334   0.513   6.603  1.6821 -1.0878  0.5043
  277MOL   H15044862   1.387   0.662   6.549 -0.2808 -0.6030 -0.2144
  277MOL   H15144863   1.311   0.616   6.834  1.3459  0.8734  0.9426
  277MOL   H15244864   1.534   0.583   6.882  0.6197 -0.3532  0.4805
  277MOL   H15344865   1.582   0.618   6.736  0.7441 -0.1321  0.4129
  277MOL   C15444866   1.431   0.803   6.765  0.3850 -0.1353 -0.5857
  277MOL   C15544867   1.464   0.856   6.902 -0.0885 -0.3441  0.1138
  277MOL   N15644868   1.477   1.006   6.889  0.1148  0.6367  0.2580
  277MOL   H15744869   1.516   0.830   6.702  0.9378  0.0000  0.2046
  277MOL   H15844870   1.347   0.859   6.724  0.3545  0.0767 -0.2350
  277MOL   H15944871   1.562   0.814   6.925  0.1212 -0.4165 -0.8720
  277MOL   H16044872   1.383   1.042   6.879 -0.3482 -1.1256 -2.0878
  277MOL   H16144873   1.513   1.039   6.977 -1.3023  0.8204  0.7950
  277MOL   H16244874   1.386   0.819   6.969 -1.3441 -0.1637 -1.2349
  278MOL     C144875   6.934   0.001   4.770 -0.3393 -0.0975  0.7479
  278MOL     C244876   7.035   7.161   4.796 -0.2032  0.6588 -0.2021
  278MOL     N344877   6.964   7.035   4.804  0.3177 -0.0977  0.4376
  278MOL     H444878   6.865   7.267   4.854 -1.9796  1.0821 -0.4376
  278MOL     H544879   6.893   7.264   4.670  0.8355 -1.7183  0.4440
  278MOL     H644880   7.094   7.185   4.884 -2.2973  0.8994  1.1882
  278MOL     H744881   7.026   6.964   4.843 -1.8895 -1.4753  1.5477
  278MOL     H844882   6.911   7.042   4.890 -0.0719 -1.1098  0.2834
  278MOL     H944883   7.001   0.086   4.782 -0.5191  0.3262 -1.0809
  278MOL    C1044884   7.144   7.142   4.687  0.5891  0.7192 -0.4993
  278MOL    C1144885   7.223   7.266   4.653  0.4842  0.4773 -0.4652
  278MOL    N1244886   0.006   0.055   4.770 -0.0546  0.0142  0.2873
  278MOL    H1344887   7.213   7.062   4.713  0.6008  1.1815  0.9236
  278MOL    H1444888   7.102   7.098   4.597 -1.5475  0.2575  0.6825
  278MOL    H1544889   7.164   0.070   4.609 -0.9678 -0.5985 -0.5097
  278MOL    H1644890   0.072   7.268   4.815 -0.0030 -0.2285 -0.1269
  278MOL    H1744891   7.217   0.075   4.845 -1.0892  0.3635 -0.6967
  278MOL    C1844892   0.069   7.247   4.548 -0.1940 -0.1543  0.3620
  278MOL    C1944893   0.022   7.240   4.401  0.7522 -0.0820 -0.0138
  278MOL    N2044894   7.253   0.097   4.352  0.3545  0.0029  0.5637
  278MOL    H2144895   0.142   0.050   4.566 -0.3851 -0.1923  1.2937
  278MOL    H2244896   0.132   7.159   4.557  0.3335 -0.1265 -2.5226
  278MOL    H2344897   7.205   7.181   4.409 -0.8492  2.6321  2.5055
  278MOL    H2444898   0.044   0.172   4.364 -0.3985  1.0091 -1.2929
  278MOL    H2544899   7.180   0.120   4.417  0.3041  0.5470  0.3216
  278MOL    C2644900   0.127   7.193   4.304 -0.1408 -0.2465 -0.4247
  278MOL    C2744901   0.065   7.154   4.165  0.4925  0.3237 -0.3285
  278MOL    N2844902   0.152   7.181   4.053  0.2673  0.1809  0.1739
  278MOL    H2944903   0.196   7.275   4.287 -2.5676  2.1847  1.0346
  278MOL    H3044904   0.186   7.109   4.341 -1.2273 -0.2643  1.3305
  278MOL    H3144905   7.253   7.217   4.147  1.0691  0.6108 -2.2848
  278MOL    H3244906   0.107   7.191   3.963 -0.0998 -0.4525  0.2825
  278MOL    H3344907   0.232   7.123   4.031  0.9578  1.5976 -1.1010
  278MOL    C3444908   0.029   7.006   4.162 -0.1264  0.4745 -0.1024
  278MOL    C3544909   7.211   6.958   4.269 -0.5933  0.5432  0.2550
  278MOL    N3644910   7.079   7.004   4.262  0.6660  0.6608 -0.2295
  278MOL    H3744911   7.275   6.989   4.058 -0.5585  2.4860 -0.3216
  278MOL    H3844912   0.115   6.939   4.162  0.0593  0.7046 -1.1754
  278MOL    H3944913   7.253   6.994   4.363 -1.0808  1.2020  0.2192
  278MOL    H4044914   7.028   6.993   4.348  0.1342 -2.5266 -0.8910
  278MOL    H4144915   7.085   7.105   4.262 -0.2117  0.7204 -0.9661
  278MOL    C4244916   7.211   6.804   4.265 -0.2642  0.1460 -0.3792
  278MOL    C4344917   7.142   6.731   4.379 -0.6536 -0.1832 -0.5579
  278MOL    N4444918   7.059   6.631   4.320  0.0853  0.5965  0.3311
  278MOL    H4544919   7.170   6.767   4.171 -1.7837 -0.8649  0.6691
  278MOL    H4644920   0.040   6.774   4.271 -0.4438 -0.4757 -0.3389
  278MOL    H4744921   7.068   6.795   4.426  0.3050 -0.3515  1.1969
  278MOL    H4844922   7.107   6.582   4.246  1.0517  0.5849  0.9556
  278MOL    H4944923   7.052   6.551   4.381 -1.7939  2.4170  2.5794
  278MOL    C5044924   7.242   6.666   4.485  0.3349 -0.4977  0.4949
  278MOL    C5144925   7.176   6.626   4.620  0.3860 -0.1184  0.4689
  278MOL    N5244926   7.263   6.548   4.698  0.3681  0.1442  0.1651
  278MOL    H5344927   0.007   6.576   4.437  1.4136 -0.6502  1.6779
  278MOL    H5444928   0.049   6.733   4.508 -0.7707  1.0676 -0.0506
  278MOL    H5544929   7.094   6.560   4.590  1.3071 -1.5673  1.0610
  278MOL    H5644930   0.033   6.478   4.641  1.4036  0.3696  0.7073
  278MOL    H5744931   7.215   6.486   4.763 -1.9949  2.4467  0.7301
  278MOL    C5844932   7.121   6.729   4.707  0.1521  0.2955  0.2246
  278MOL    C5944933   7.036   6.684   4.830  0.6886 -0.3430  0.4779
  278MOL    N6044934   7.059   6.769   4.945  0.2542 -0.8315 -0.0359
  278MOL    H6144935   7.206   6.793   4.729  0.6647  0.0540 -1.0076
  278MOL    H6244936   7.072   6.791   4.632  2.7058  1.8780 -0.1724
  278MOL    H6344937   7.056   6.580   4.854  0.8884 -0.5717 -0.6351
  278MOL    H6444938   6.995   6.751   5.021 -0.3186 -1.3532 -0.6320
  278MOL    H6544939   7.152   6.750   4.980 -0.1042 -2.3462  0.1120
  278MOL    C6644940   6.885   6.671   4.812 -0.1642  0.1060  0.1404
  278MOL    C6744941   6.843   6.563   4.703  0.3307 -0.2637  0.6869
  278MOL    N6844942   6.899   6.430   4.732  0.0751  0.4381 -0.4526
  278MOL    H6944943   6.831   6.640   4.901  0.4046 -0.4221  0.3009
  278MOL    H7044944   6.853   6.767   4.769 -1.5681 -0.0824  0.7658
  278MOL    H7144945   6.877   6.595   4.605 -0.2420 -1.0715  0.2206
  278MOL    H7244946   6.854   6.401   4.818  0.2052  0.1678 -0.4741
  278MOL    H7344947   6.868   6.359   4.666 -0.1121  1.9477 -2.0334
  278MOL    C7444948   6.692   6.553   4.698 -0.1428  0.1745  0.2949
  278MOL    C7544949   6.635   6.656   4.599 -0.1649  0.2612 -0.4189
  278MOL    N7644950   6.665   6.625   4.460 -0.2140  0.2277  0.3593
  278MOL    H7744951   6.652   6.452   4.688  2.7711 -1.0145  0.0682
  278MOL    H7844952   6.661   6.592   4.795 -0.0354 -1.4939  1.0246
  278MOL    H7944953   6.675   6.756   4.613  1.9615 -0.4183 -1.5373
  278MOL    H8044954   6.759   6.587   4.459 -0.8632 -1.4444 -1.3161
  278MOL    H8144955   6.677   6.716   4.419  2.9801 -0.6633 -0.8312
  278MOL    C8244956   6.485   6.672   4.600  0.6564  0.0994  0.0393
  278MOL    C8344957   6.415   6.752   4.715 -0.1962  0.3524 -0.4951
  278MOL    N8444958   6.304   6.827   4.659  0.2070 -0.3062  0.4284
  278MOL    H8544959   6.455   6.721   4.508 -0.3598 -0.7741 -0.0997
  278MOL    H8644960   6.432   6.579   4.581 -1.9261  1.9367 -2.2118
  278MOL    H8744961   6.489   6.825   4.749  0.8036 -1.0593  0.3903
  278MOL    H8844962   6.237   6.765   4.615  0.6264  1.1560 -2.3881
  278MOL    H8944963   6.334   6.891   4.587  1.3633 -1.9603 -0.5967
  278MOL    C9044964   6.379   6.661   4.832 -0.1379 -0.9282 -0.8570
  278MOL    C9144965   6.408   6.735   4.974  0.1388 -0.3803 -0.2141
  278MOL    N9244966   6.346   6.665   5.083  0.1939  0.2052 -0.6623
  278MOL    H9344967   6.276   6.625   4.828 -1.2205  1.3028  3.6941
  278MOL    H9444968   6.434   6.567   4.827 -0.4860 -1.1121 -1.3380
  278MOL    H9544969   6.363   6.834   4.976 -0.9165 -0.8123 -1.6720
  278MOL    H9644970   6.245   6.673   5.077  0.0580 -0.9102 -0.0643
  278MOL    H9744971   6.355   6.566   5.064  0.9628  0.3606 -1.1248
  278MOL    C9844972   6.558   6.755   5.009  0.2455  0.2426  0.2885
  278MOL    C9944973   6.593   6.880   5.094 -0.0312 -1.0041  0.8006
  278MOL   N10044974   6.489   6.883   5.199  0.4063 -0.2017 -0.1261
  278MOL   H10144975   6.597   6.664   5.054 -0.2184  0.1700  0.5480
  278MOL   H10244976   6.619   6.764   4.919  0.4059  3.9725  0.6624
  278MOL   H10344977   6.580   6.969   5.033  0.5549  0.2007  2.4036
  278MOL   H10444978   6.399   6.845   5.171  0.0553  1.0435 -0.7508
  278MOL   H10544979   6.512   6.824   5.277  3.5065 -0.0933 -0.9200
  278MOL   C10644980   6.730   6.862   5.150  0.3111 -0.3318  0.4079
  278MOL   C10744981   6.795   6.991   5.210  0.0009 -0.2572  0.2084
  278MOL   N10844982   6.918   6.938   5.270  0.4478  0.6104 -0.4255
  278MOL   H10944983   6.723   6.787   5.229 -1.9532 -0.3295  0.2575
  278MOL   H11044984   6.792   6.828   5.067  2.1248  0.4836  1.3953
  278MOL   H11144985   6.730   7.026   5.291 -0.5175  0.6725 -0.6035
  278MOL   H11244986   6.956   6.872   5.203  1.3672  0.0410  0.6354
  278MOL   H11344987   6.989   7.008   5.279  0.5676  0.5132 -0.6276
  278MOL   C11444988   6.829   7.109   5.114  0.0407 -0.5243  0.0164
  278MOL   C11544989   6.799   7.251   5.171  0.0054 -0.1975  0.1898
  278MOL   N11644990   6.912   0.066   5.151  0.7606  0.2704 -0.2225
  278MOL   H11744991   6.926   7.098   5.066 -0.7745  0.2452 -1.8192
  278MOL   H11844992   6.760   7.097   5.031 -1.0508  0.7176  0.7318
  278MOL   H11944993   6.786   7.249   5.280 -0.8784 -0.4359  0.0820
  278MOL   H12044994   6.897   0.135   5.079  0.4451  1.7553  1.2555
  278MOL   H12144995   6.988   0.012   5.111  0.7848  0.2889 -0.2011
  278MOL   C12244996   6.675   0.042   5.111 -0.8197 -0.1031 -0.1741
  278MOL   C12344997   6.615   0.154   5.199  0.3622 -0.7419 -0.0239
  278MOL   N12444998   6.543   0.252   5.114  0.1249  0.1186 -0.1341
  278MOL   H12544999   6.695   0.080   5.011 -1.2136 -0.5260 -0.4150
  278MOL   H12645000   6.600   7.240   5.099  0.3346 -1.7710  2.9665
  278MOL   H12745001   6.709   0.194   5.237 -0.2120 -1.5003  2.3120
  278MOL   H12845002   6.449   0.224   5.091 -0.7423  3.3236 -0.8129
  278MOL   H12945003   6.513   0.324   5.177  0.7027 -1.1058  1.5586
  278MOL   C13045004   6.524   0.111   5.317  0.2459  0.0347  0.8924
  278MOL   C13145005   6.478   0.229   5.403  0.1221  0.0330  0.4460
  278MOL   N13245006   6.382   0.168   5.500  0.2570 -0.0557 -0.3336
  278MOL   H13345007   6.439   0.059   5.273  1.1036 -0.4834 -0.1669
  278MOL   H13445008   6.573   0.043   5.386 -1.1184 -0.3133  1.5412
  278MOL   H13545009   6.419   0.302   5.346  0.5590  2.3423  2.8554
  278MOL   H13645010   6.445   0.118   5.561  0.2373  0.0091 -0.2595
  278MOL   H13745011   6.336   0.237   5.558  1.7273  1.6087 -1.1062
  278MOL   C13845012   6.594   0.301   5.480 -0.0727  0.0092  0.3956
  278MOL   C13945013   6.679   0.412   5.420 -0.2507 -1.0715  0.3519
  278MOL   N14045014   6.603   0.528   5.403 -0.5983 -0.5654 -0.1297
  278MOL   H14145015   6.549   0.339   5.572  1.4472  2.2118  0.2754
  278MOL   H14245016   6.658   0.221   5.516  0.6914  0.2245 -0.4729
  278MOL   H14345017   6.726   0.374   5.329  0.9604 -0.5601  0.7541
  278MOL   H14445018   6.652   0.604   5.360 -2.4400  1.1419  0.6743
  278MOL   H14545019   6.519   0.501   5.355 -0.0099 -3.3169  0.3210
  278MOL   C14645020   6.795   0.464   5.510 -0.4322  0.2823  0.6646
  278MOL   C14745021   6.904   0.359   5.538 -0.1266  0.0965 -0.0581
  278MOL   N14845022   6.977   0.334   5.409  1.1244  0.1354 -0.8424
  278MOL   H14945023   6.841   0.557   5.476 -0.9986  0.2432 -0.2331
  278MOL   H15045024   6.748   0.498   5.602  0.5626 -0.3538  1.4109
  278MOL   H15145025   6.859   0.265   5.571  2.7399 -1.2210  0.1845
  278MOL   H15245026   7.057   0.273   5.421  0.7268  0.0130  1.3427
  278MOL   H15345027   6.912   0.292   5.344 -1.5018  2.4185  0.2366
  278MOL   C15445028   7.015   0.403   5.639 -0.2942 -0.2705 -0.4911
  278MOL   C15545029   6.965   0.428   5.781 -0.5890  0.2694  0.4565
  278MOL   N15645030   7.073   0.457   5.873  0.6850  0.2827  0.2419
  278MOL   H15745031   7.080   0.316   5.646 -0.2115 -0.1731 -0.0398
  278MOL   H15845032   7.078   0.478   5.592  0.8672 -0.1810  1.1357
  278MOL   H15945033   6.902   0.358   5.836  0.3229 -1.0585 -0.1485
  278MOL   H16045034   7.145   0.386   5.883 -0.1112 -0.5940 -0.1272
  278MOL   H16145035   7.136   0.521   5.828 -0.0141  1.7868  1.3608
  278MOL   H16245036   6.898   0.513   5.769 -0.9659 -0.3145 -1.7930
  279MOL     C145037   3.982   0.313   1.922  0.2509  0.2244  0.0557
  279MOL     C245038   3.837   0.357   1.894  0.1403 -0.0789 -0.2256
  279MOL     N345039   3.843   0.505   1.884  0.0536 -0.1297  0.0670
  279MOL     H445040   4.047   0.332   1.836  2.5287  0.1835  1.7459
  279MOL     H545041   4.002   0.210   1.950 -0.7158  0.1185  0.3528
  279MOL     H645042   3.776   0.338   1.982 -0.6939  0.6362 -0.6226
  279MOL     H745043   3.747   0.534   1.894  0.2338  1.2701 -1.9690
  279MOL     H845044   3.874   0.536   1.793  1.6052 -1.2708  0.1768
  279MOL     H945045   4.026   0.375   2.000 -0.7295  2.0802 -0.8337
  279MOL    C1045046   3.778   0.293   1.772 -0.5082  0.1626 -0.3218
  279MOL    C1145047   3.633   0.225   1.793 -0.3468 -0.3018  1.1005
  279MOL    N1245048   3.549   0.239   1.675  0.4910  0.4021  0.1890
  279MOL    H1345049   3.763   0.359   1.686  0.6245 -0.6778 -1.1864
  279MOL    H1445050   3.843   0.215   1.733  0.1818  1.0693 -1.0022
  279MOL    H1545051   3.593   0.287   1.874 -0.4441 -0.5456  1.2381
  279MOL    H1645052   3.449   0.227   1.687  0.3690 -1.6922 -2.4793
  279MOL    H1745053   3.565   0.327   1.628  2.1357 -1.2274 -2.4301
  279MOL    C1845054   3.637   0.076   1.830 -0.3737 -0.3017  0.7485
  279MOL    C1945055   3.503   0.012   1.878 -0.5509  0.8961  0.1558
  279MOL    N2045056   3.504   7.147   1.847 -0.4530 -0.1665  0.0592
  279MOL    H2145057   3.676   0.024   1.742 -2.3934 -1.2528  0.3962
  279MOL    H2245058   3.711   0.066   1.910 -1.8895 -1.4189  2.0446
  279MOL    H2345059   3.419   0.060   1.827 -1.4172  0.9362  1.5911
  279MOL    H2445060   3.416   7.101   1.866 -0.5428 -0.7577 -1.6675
  279MOL    H2545061   3.509   7.142   1.746 -0.8031  0.9514 -0.0145
  279MOL    C2645062   3.485   0.041   2.028  0.3753  0.7374  0.6801
  279MOL    C2745063   3.339   0.097   2.060 -0.5695  0.1568  0.3108
  279MOL    N2845064   3.329   0.087   2.201 -0.2402 -0.2132  0.1648
  279MOL    H2945065   3.515   7.231   2.088  0.9212 -1.0394 -2.0951
  279MOL    H3045066   3.561   0.112   2.064 -0.6303  1.3628  1.5909
  279MOL    H3145067   3.270   0.025   2.015  0.6162 -0.9926  0.2897
  279MOL    H3245068   3.240   0.131   2.222 -0.1984  0.1186 -0.3459
  279MOL    H3345069   3.308   7.266   2.219  0.0129 -0.1700  0.7169
  279MOL    C3445070   3.307   0.249   2.018 -0.6110  1.0370  0.7071
  279MOL    C3545071   3.159   0.278   1.977  0.7311 -0.5010 -0.2565
  279MOL    N3645072   3.153   0.411   1.930  0.5269 -0.6301  0.0602
  279MOL    H3745073   3.355   0.321   2.084  1.1280  0.4083  0.1652
  279MOL    H3845074   3.366   0.274   1.930 -3.6940  2.1437 -1.1165
  279MOL    H3945075   3.085   0.259   2.055 -0.4357  1.6782 -0.7984
  279MOL    H4045076   3.060   0.433   1.898  0.5468  0.2772  0.6018
  279MOL    H4145077   3.204   0.417   1.843  1.1399  1.7791  0.5374
  279MOL    C4245078   3.108   0.189   1.860  0.1088 -0.0598 -0.0192
  279MOL    C4345079   3.032   0.055   1.900  0.8187 -0.4123 -0.2413
  279MOL    N4445080   2.889   0.081   1.926 -0.0808 -0.1834 -0.0750
  279MOL    H4545081   3.039   0.248   1.799  1.4512  0.5243 -0.9823
  279MOL    H4645082   3.191   0.172   1.791 -0.5775  3.2588 -1.7663
  279MOL    H4745083   3.078   0.017   1.992  2.2811  1.0903 -0.3353
  279MOL    H4845084   2.839   7.273   1.953  1.9317 -1.9292 -1.5747
  279MOL    H4945085   2.877   0.133   2.012 -1.8506 -1.9978  0.7924
  279MOL    C5045086   3.033   7.209   1.795  0.0989  0.5689  0.0225
  279MOL    C5145087   3.174   7.157   1.767  0.4220 -0.2034  0.2814
  279MOL    N5245088   3.203   7.063   1.880  0.7095  0.3364  0.8448
  279MOL    H5345089   2.974   7.128   1.838  1.0204  0.9641  2.0723
  279MOL    H5445090   2.981   7.235   1.703 -1.8441  0.1805  0.9740
  279MOL    H5545091   3.252   7.230   1.788  0.2447 -0.4271  1.7292
  279MOL    H5645092   3.139   6.985   1.886 -2.0224  2.4583  0.4543
  279MOL    H5745093   3.186   7.109   1.969 -1.4618 -0.3198  0.8056
  279MOL    C5845094   3.205   7.084   1.642  0.3188  0.4087 -0.2400
  279MOL    C5945095   3.217   7.172   1.517  0.7142  0.6530 -0.2596
  279MOL    N6045096   3.339   7.247   1.516  0.0597  0.4114 -0.3366
  279MOL    H6145097   3.298   7.029   1.656 -0.2012  0.0022  1.8607
  279MOL    H6245098   3.122   7.016   1.621 -0.8288  1.5340  0.6060
  279MOL    H6345099   3.140   7.250   1.509 -0.2532 -0.3753 -1.1924
  279MOL    H6445100   3.414   7.192   1.476 -1.8659 -1.0871 -2.0173
  279MOL    H6545101   3.373   7.267   1.608 -1.1426 -1.3693  0.5325
  279MOL    C6645102   3.201   7.092   1.388 -0.0310  0.1980  0.0360
  279MOL    C6745103   3.197   7.174   1.256  0.4143  0.0248 -1.3585
  279MOL    N6845104   3.225   7.078   1.147 -0.0511  0.5305 -0.2018
  279MOL    H6945105   3.280   7.016   1.387  1.0335  1.2634  0.9725
  279MOL    H7045106   3.106   7.038   1.380  0.7486 -1.5162  1.8711
  279MOL    H7145107   3.268   7.257   1.254 -0.0407  0.5535  1.7733
  279MOL    H7245108   3.195   6.992   1.190  2.3850 -1.2689 -1.9409
  279MOL    H7345109   3.157   7.088   1.073  0.6004  0.9205 -0.7631
  279MOL    C7445110   3.062   7.232   1.233  0.0436 -0.2553  0.4026
  279MOL    C7545111   3.054   0.070   1.127  0.5542  0.7963 -0.6588
  279MOL    N7645112   2.910   0.073   1.088  0.1100 -0.2043 -0.2397
  279MOL    H7745113   3.000   7.148   1.204 -0.2862  0.4272 -0.9126
  279MOL    H7845114   3.019   7.269   1.326 -2.0118 -3.0051  0.6094
  279MOL    H7945115   3.107   0.053   1.034  0.1020 -0.4741 -0.6817
  279MOL    H8045116   2.875   7.266   1.044  1.6204 -0.6470 -0.6265
  279MOL    H8145117   2.894   0.143   1.017 -1.0512 -2.9695 -2.7652
  279MOL    C8245118   3.083   0.205   1.189 -0.1301 -0.4708 -0.4956
  279MOL    C8345119   3.229   0.240   1.239 -0.1209 -0.2308 -0.2412
  279MOL    N8445120   3.328   0.256   1.134 -0.6599  0.3656  0.4871
  279MOL    H8545121   3.033   0.288   1.139 -1.6007  0.0899  1.8108
  279MOL    H8645122   3.030   0.208   1.284  0.1979  1.2426 -0.3574
  279MOL    H8745123   3.265   0.163   1.307 -0.0185  1.3397  1.5129
  279MOL    H8845124   3.345   0.162   1.104 -1.3458  0.8549 -1.5160
  279MOL    H8945125   3.295   0.291   1.045  0.4859  1.1308  0.3502
  279MOL    C9045126   3.228   0.372   1.321 -0.0365 -0.2105 -0.9413
  279MOL    C9145127   3.176   0.363   1.467  0.1949 -0.2644  0.5203
  279MOL    N9245128   3.280   0.310   1.550 -0.0669  0.1450 -0.5855
  279MOL    H9345129   3.331   0.407   1.325 -0.2222  0.2356 -0.1879
  279MOL    H9445130   3.171   0.450   1.270 -0.5158  2.3840  3.3241
  279MOL    H9545131   3.094   0.292   1.472 -0.4333  0.5099  1.3699
  279MOL    H9645132   3.299   0.214   1.524 -1.6552 -0.3456 -0.0272
  279MOL    H9745133   3.361   0.370   1.545  0.6006 -0.3660  3.0511
  279MOL    C9845134   3.124   0.496   1.523 -0.4843  0.1162 -0.0589
  279MOL    C9945135   2.979   0.526   1.474 -0.4458 -0.0336  0.2629
  279MOL   N10045136   2.888   0.474   1.568 -0.1783 -0.5134  0.0553
  279MOL   H10145137   3.121   0.483   1.631  1.1365 -0.2219 -0.0474
  279MOL   H10245138   3.188   0.582   1.506 -1.7140  0.7760 -1.4837
  279MOL   H10345139   2.953   0.479   1.379  2.4365 -1.4848  0.1293
  279MOL   H10445140   2.881   0.375   1.547  0.7041 -0.1247 -2.1086
  279MOL   H10545141   2.804   0.515   1.530  0.2933  0.9747  0.5765
  279MOL   C10645142   2.945   0.678   1.463  0.8381 -0.0258 -0.4778
  279MOL   C10745143   3.026   0.758   1.359  0.1953  0.2041 -1.1742
  279MOL   N10845144   3.027   0.687   1.234 -0.4905 -0.0309  0.5639
  279MOL   H10945145   2.839   0.686   1.441  0.4297  0.9540  1.6338
  279MOL   H11045146   2.944   0.723   1.563 -1.5250  2.7853 -1.6992
  279MOL   H11145147   3.129   0.745   1.392  0.0031  0.2808 -0.5359
  279MOL   H11245148   3.013   0.588   1.250 -0.9032 -0.0037  0.3567
  279MOL   H11345149   3.111   0.699   1.179  1.3092 -0.4341  3.1318
  279MOL   C11445150   2.981   0.903   1.328 -0.2020  0.2452  0.2557
  279MOL   C11545151   2.957   1.001   1.450 -0.1139  0.1813  0.2194
  279MOL   N11645152   3.077   1.069   1.480  0.3090 -0.1744 -0.8332
  279MOL   H11745153   3.052   0.953   1.262  0.3894 -1.0043 -0.0581
  279MOL   H11845154   2.890   0.891   1.270  0.3979  0.1698 -0.6866
  279MOL   H11945155   2.920   0.934   1.528  0.5168 -1.1892 -0.6410
  279MOL   H12045156   3.161   1.013   1.489  0.7880  0.5492 -0.8116
  279MOL   H12145157   3.074   1.119   1.567 -0.1056  0.1805 -1.0522
  279MOL   C12245158   2.852   1.104   1.414 -0.4053 -0.5507  0.1037
  279MOL   C12345159   2.800   1.196   1.531  0.0155 -0.0055 -1.0187
  279MOL   N12445160   2.715   1.304   1.469 -0.3768  0.5723  0.1341
  279MOL   H12545161   2.879   1.167   1.329  0.6126 -0.3217  0.6033
  279MOL   H12645162   2.766   1.043   1.387 -0.5739 -0.5566  0.6595
  279MOL   H12745163   2.880   1.257   1.573  0.6370 -1.8956  0.5931
  279MOL   H12845164   2.623   1.266   1.455  0.2383 -1.2144  0.8736
  279MOL   H12945165   2.698   1.367   1.546  0.8809 -1.8839  2.5030
  279MOL   C13045166   2.712   1.131   1.647  0.1231  0.1811  0.3075
  279MOL   C13145167   2.797   1.114   1.773 -0.1189  0.6435  0.2053
  279MOL   N13245168   2.816   1.237   1.846  0.1216  0.6164  0.0104
  279MOL   H13345169   2.620   1.187   1.669 -1.6895 -2.8506  0.7225
  279MOL   H13445170   2.678   1.040   1.597 -1.0968  1.5494 -1.4269
  279MOL   H13545171   2.897   1.076   1.754  0.5279  1.2890  2.1959
  279MOL   H13645172   2.827   1.238   1.946  0.5561  2.4858 -0.0233
  279MOL   H13745173   2.732   1.291   1.831 -1.7080 -1.9368  0.9104
  279MOL   C13845174   2.724   1.015   1.868 -0.6154 -0.2817 -0.6713
  279MOL   C13945175   2.807   0.981   1.992 -0.8008  0.5948  0.1256
  279MOL   N14045176   2.749   1.042   2.112 -0.2692 -0.0266  0.8487
  279MOL   H14145177   2.620   1.045   1.879 -0.3466  0.4350  0.0143
  279MOL   H14245178   2.708   0.924   1.811 -2.3600 -0.5586  0.2329
  279MOL   H14345179   2.907   1.018   1.970 -0.7169  0.4260  0.2259
  279MOL   H14445180   2.714   1.135   2.091 -1.0661 -0.7832 -1.3731
  279MOL   H14545181   2.662   0.991   2.122 -1.1120  0.9724 -0.9841
  279MOL   C14645182   2.824   0.824   2.017 -0.0766  1.0496 -0.4250
  279MOL   C14745183   2.905   0.733   1.922 -0.1389  0.1108  0.4685
  279MOL   N14845184   2.811   0.661   1.838 -0.2573  0.7967 -0.5300
  279MOL   H14945185   2.881   0.824   2.110  1.1740 -2.1131 -1.1246
  279MOL   H15045186   2.728   0.782   2.045 -0.4985  2.0966 -0.2616
  279MOL   H15145187   2.952   0.658   1.987 -1.6080 -2.6140 -1.4814
  279MOL   H15245188   2.738   0.614   1.888 -1.9815  1.7373 -2.0932
  279MOL   H15345189   2.841   0.599   1.764 -1.5519 -0.1042 -0.3133
  279MOL   C15445190   3.015   0.802   1.845  0.4167 -0.1398  0.0348
  279MOL   C15545191   3.127   0.864   1.931 -0.3049 -0.0049 -0.4172
  279MOL   N15645192   3.196   0.970   1.855  0.4027 -0.1504 -0.0343
  279MOL   H15745193   3.060   0.726   1.781  0.5655 -0.0036 -0.0203
  279MOL   H15845194   2.969   0.877   1.781  2.2108 -0.1718 -1.3092
  279MOL   H15945195   3.209   0.794   1.948  1.5287  2.6165  1.8493
  279MOL   H16045196   3.135   1.050   1.854 -0.9634 -1.1815  0.4774
  279MOL   H16145197   3.265   0.997   1.925 -1.1148 -0.0835  1.4630
  279MOL   H16245198   3.091   0.898   2.027 -1.7600 -0.3467 -0.8389
  280MOL     C145199   1.622   6.479   4.305 -0.2093  0.3683 -0.4242
  280MOL     C245200   1.589   6.512   4.164 -0.0743  0.7470  0.5054
  280MOL     N345201   1.510   6.402   4.115 -0.0130 -0.3502  0.4354
  280MOL     H445202   1.696   6.542   4.355  0.4992 -0.5087 -0.3434
  280MOL     H545203   1.657   6.375   4.306  0.2832  0.5405  0.3427
  280MOL     H645204   1.686   6.526   4.115 -0.6059  1.4405 -0.3828
  280MOL     H745205   1.455   6.436   4.037  0.6004  0.6773  0.4353
  280MOL     H845206   1.573   6.332   4.079  0.0867 -0.2789  0.4704
  280MOL     H945207   1.529   6.466   4.359 -0.6823 -0.3072 -1.3706
  280MOL    C1045208   1.509   6.642   4.147 -0.6673 -0.1697 -0.3273
  280MOL    C1145209   1.502   6.698   4.004 -0.2567  0.2865  0.2355
  280MOL    N1245210   1.384   6.629   3.954  0.0964 -0.2222  0.4076
  280MOL    H1345211   1.416   6.647   4.204  0.0468 -0.3963  0.8873
  280MOL    H1445212   1.573   6.717   4.193 -2.6574  1.6610 -0.4789
  280MOL    H1545213   1.593   6.670   3.952  0.0454 -0.1250  0.9735
  280MOL    H1645214   1.411   6.595   3.862  0.7575  1.8546 -0.2045
  280MOL    H1745215   1.307   6.694   3.948  0.8901  1.1379  3.9272
  280MOL    C1845216   1.492   6.854   3.998  0.6097 -0.4532  0.6922
  280MOL    C1945217   1.640   6.902   3.994 -0.5820  0.0868  0.6264
  280MOL    N2045218   1.691   6.899   3.862  0.6207  0.1927 -0.7128
  280MOL    H2145219   1.426   6.890   3.919 -0.5622 -0.6881  1.5335
  280MOL    H2245220   1.441   6.901   4.083 -2.1780 -2.2306  0.0659
  280MOL    H2345221   1.694   6.832   4.057 -0.0844 -0.7674 -0.7375
  280MOL    H2445222   1.788   6.928   3.858  0.3222  1.3311  0.0081
  280MOL    H2545223   1.683   6.808   3.819 -0.0617  0.3778 -0.9870
  280MOL    C2645224   1.651   7.048   4.049 -0.0660  0.5611 -0.5764
  280MOL    C2745225   1.647   7.053   4.205 -0.5465 -0.3041 -0.0393
  280MOL    N2845226   1.790   7.048   4.239  0.0359 -0.1434 -0.1818
  280MOL    H2945227   1.737   7.109   4.019  0.7956  0.6455  1.9205
  280MOL    H3045228   1.563   7.094   4.005  0.2477  0.4028 -1.3656
  280MOL    H3145229   1.602   6.959   4.238 -2.7259  0.1515 -1.6083
  280MOL    H3245230   1.830   6.976   4.181 -0.0388 -1.4132  1.3097
  280MOL    H3345231   1.805   7.008   4.330 -2.5071 -0.8902 -0.0497
  280MOL    C3445232   1.583   7.174   4.267 -0.3843  0.2242 -0.3964
  280MOL    C3545233   1.481   7.143   4.371 -0.2368  0.3025 -0.7690
  280MOL    N3645234   1.481   7.240   4.473 -0.6801 -0.6330  0.7010
  280MOL    H3745235   1.663   7.244   4.295  0.4630 -1.0190  0.3329
  280MOL    H3845236   1.529   7.225   4.187 -1.0958 -3.2126 -2.2091
  280MOL    H3945237   1.514   7.056   4.427 -4.0762  0.8569  2.5956
  280MOL    H4045238   1.416   7.201   4.539  1.9762 -2.7670  2.2106
  280MOL    H4145239   1.433   0.041   4.429 -2.6249 -0.8305  2.4233
  280MOL    C4245240   1.335   7.120   4.308  0.0438 -0.6912  0.3362
  280MOL    C4345241   1.242   7.027   4.385  0.1767  0.2319  0.2949
  280MOL    N4445242   1.099   7.053   4.346 -0.4481 -0.3930 -0.1719
  280MOL    H4545243   1.289   7.218   4.294  1.8415 -0.1498 -2.1966
  280MOL    H4645244   1.351   7.075   4.210 -1.7507 -1.6811  0.4872
  280MOL    H4745245   1.264   7.051   4.489 -1.1882  0.1067  0.6141
  280MOL    H4845246   1.076   7.128   4.283  2.5683 -1.4637 -2.6934
  280MOL    H4945247   1.060   7.076   4.436 -1.0636 -2.0549  0.0118
  280MOL    C5045248   1.271   6.878   4.363 -0.3987 -0.5895 -0.4932
  280MOL    C5145249   1.234   6.795   4.490  0.1927 -1.1478 -0.1950
  280MOL    N5245250   1.091   6.774   4.487  0.6795 -0.1601  0.3042
  280MOL    H5345251   1.214   6.848   4.275 -0.9964  2.0069 -1.0402
  280MOL    H5445252   1.377   6.862   4.340 -0.2831 -1.6540  0.7565
  280MOL    H5545253   1.252   6.864   4.573 -0.7306 -0.5478 -0.4823
  280MOL    H5645254   1.068   6.700   4.422  1.7730 -0.0600 -0.2098
  280MOL    H5745255   1.051   6.853   4.437  3.0675  0.2561 -1.0141
  280MOL    C5845256   1.300   6.654   4.507 -0.6875 -0.2676  0.1516
  280MOL    C5945257   1.277   6.566   4.631 -0.1764 -0.5775  0.4664
  280MOL    N6045258   1.308   6.425   4.594 -0.8284 -0.1228  0.9541
  280MOL    H6145259   1.265   6.604   4.417 -1.5471 -1.2391  1.0058
  280MOL    H6245260   1.408   6.663   4.494 -0.6377 -0.7687  0.2305
  280MOL    H6345261   1.170   6.563   4.649 -0.3428  0.5007 -0.2697
  280MOL    H6445262   1.409   6.419   4.596 -0.8943 -1.0818  2.2264
  280MOL    H6545263   1.288   6.400   4.499  0.7489  0.7797  0.3699
  280MOL    C6645264   1.349   6.600   4.762  0.1335  1.1653  0.4444
  280MOL    C6745265   1.286   6.709   4.839  0.2672  0.2495  0.2085
  280MOL    N6845266   1.176   6.654   4.913 -0.3184 -0.4964  0.2962
  280MOL    H6945267   1.348   6.516   4.831  1.4261 -0.9682 -2.0042
  280MOL    H7045268   1.456   6.614   4.750  0.9667 -1.8850  3.5404
  280MOL    H7145269   1.249   6.794   4.782  0.7282  2.3024  2.8652
  280MOL    H7245270   1.107   6.715   4.872  2.4263 -0.3093 -4.4142
  280MOL    H7345271   1.155   6.566   4.867 -0.5480 -0.8472  1.0670
  280MOL    C7445272   1.384   6.763   4.941  0.4462 -0.2262 -0.1675
  280MOL    C7545273   1.505   6.848   4.883  0.1425 -0.3735  0.0546
  280MOL    N7645274   1.520   6.972   4.965 -0.0425 -0.6071  0.0426
  280MOL    H7745275   1.326   6.816   5.016  0.0958  0.2470 -0.7634
  280MOL    H7845276   1.424   6.684   5.004 -0.3542  0.0145  0.6462
  280MOL    H7945277   1.475   6.887   4.786  0.5281  1.3404  0.6035
  280MOL    H8045278   1.590   6.953   5.035  0.3008  0.7937  0.0918
  280MOL    H8145279   1.559   7.055   4.923 -2.2495  1.3539  1.7675
  280MOL    C8245280   1.642   6.774   4.892 -0.5142 -0.0842  0.3473
  280MOL    C8345281   1.759   6.851   4.818 -0.5585  0.5064 -0.2866
  280MOL    N8445282   1.891   6.792   4.855 -0.0032  0.0319 -0.4021
  280MOL    H8545283   1.672   6.752   4.995 -3.2814 -0.4073  1.1271
  280MOL    H8645284   1.634   6.672   4.855 -0.6299  0.3055 -0.7176
  280MOL    H8745285   1.752   6.954   4.853 -1.3460  0.0611  0.9222
  280MOL    H8845286   1.890   6.783   4.955 -0.2500 -0.5419 -0.4516
  280MOL    H8945287   1.968   6.854   4.836 -0.1254  0.1320 -0.5848
  280MOL    C9045288   1.740   6.835   4.660 -0.0997 -0.1189 -0.2729
  280MOL    C9145289   1.858   6.874   4.570  0.2165 -0.6985  0.0127
  280MOL    N9245290   1.816   6.860   4.436  0.2481  0.1858  0.1358
  280MOL    H9345291   1.711   6.736   4.623  0.2236 -0.1522 -0.4349
  280MOL    H9445292   1.657   6.899   4.631 -0.6978 -0.2617  1.0732
  280MOL    H9545293   1.936   6.798   4.577 -1.1628 -2.2382 -0.7700
  280MOL    H9645294   1.773   6.769   4.430  2.7765 -0.9798 -1.0512
  280MOL    H9745295   1.898   6.852   4.378 -0.2873  1.7800 -0.8646
  280MOL    C9845296   1.897   7.020   4.598  0.2646  0.2412 -0.0980
  280MOL    C9945297   2.052   7.038   4.577  0.3700  0.3735  0.1560
  280MOL   N10045298   2.075   7.181   4.561  0.5440  0.0094 -0.2859
  280MOL   H10145299   1.834   7.088   4.540  0.2232  0.6196  0.3799
  280MOL   H10245300   1.881   7.047   4.703  1.0463  0.9854 -0.1578
  280MOL   H10345301   2.084   6.990   4.485  0.6335 -1.7311  1.3278
  280MOL   H10445302   2.020   7.206   4.480 -1.0386  0.6344  0.9588
  280MOL   H10545303   2.030   7.238   4.631  0.4871 -1.6043  1.0030
  280MOL   C10645304   2.128   6.982   4.698  0.0804  0.0703 -0.4861
  280MOL   C10745305   2.281   6.971   4.675 -0.7833 -0.5649  0.3884
  280MOL   N10845306   2.333   6.964   4.814 -0.5212 -0.0379 -0.3157
  280MOL   H10945307   2.111   7.059   4.772 -1.2449 -0.6636 -0.0301
  280MOL   H11045308   2.085   6.886   4.725  0.5377  0.0355  0.1223
  280MOL   H11145309   2.320   7.059   4.624  0.9101 -1.2828  0.3962
  280MOL   H11245310   2.360   7.058   4.839 -1.1428  1.1478 -3.8315
  280MOL   H11345311   2.417   6.908   4.814  0.2252  1.0015  2.1749
  280MOL   C11445312   2.310   6.840   4.591 -0.4272 -0.3338  0.6287
  280MOL   C11545313   2.463   6.810   4.570  0.2450  0.2008  0.6852
  280MOL   N11645314   2.476   6.662   4.567 -0.7369 -0.2842 -0.1458
  280MOL   H11745315   2.270   6.755   4.646 -2.0841  1.1239  1.7379
  280MOL   H11845316   2.258   6.832   4.496 -2.7936 -0.7117  1.9216
  280MOL   H11945317   2.517   6.840   4.660  0.0702  0.1699  0.7983
  280MOL   H12045318   2.573   6.652   4.541 -1.1306 -1.7347 -1.0813
  280MOL   H12145319   2.457   6.631   4.661 -0.2991  1.3798  0.5089
  280MOL   C12245320   2.525   6.876   4.448 -0.2551  0.0876  0.1883
  280MOL   C12345321   2.563   7.027   4.462 -0.5714  0.2332 -0.5194
  280MOL   N12445322   2.672   7.039   4.560  0.0580  0.4627  0.3552
  280MOL   H12545323   2.606   6.815   4.408  0.1279  0.6931  0.0468
  280MOL   H12645324   2.451   6.879   4.367  0.4400  1.1068 -0.4197
  280MOL   H12745325   2.477   7.081   4.501 -0.1749  0.0849  0.5670
  280MOL   H12845326   2.675   7.134   4.594  2.0406 -0.6459  3.5689
  280MOL   H12945327   2.660   6.992   4.648 -2.1262 -2.3799 -1.3882
  280MOL   C13045328   2.603   7.101   4.333  0.8573  0.2221  0.1278
  280MOL   C13145329   2.485   7.180   4.269  0.3821 -0.5182  0.1343
  280MOL   N13245330   2.544   7.271   4.178 -0.2939 -0.1681 -0.2709
  280MOL   H13345331   2.689   7.165   4.353  0.3825  0.3392  1.8068
  280MOL   H13445332   2.644   7.036   4.255 -0.4400 -1.2224  0.6349
  280MOL   H13545333   2.432   7.236   4.346  1.0629  0.3383 -0.0245
  280MOL   H13645334   2.580   7.218   4.099 -0.8372  1.3381 -1.5522
  280MOL   H13745335   2.628   0.024   4.224  0.7390 -0.4720 -1.9096
  280MOL   C13845336   2.382   7.089   4.192 -0.2909 -0.0035  1.1278
  280MOL   C13945337   2.263   7.161   4.114 -0.1549 -0.4813  0.2137
  280MOL   N14045338   2.185   7.061   4.043 -0.2619 -0.1051  0.3416
  280MOL   H14145339   2.443   7.019   4.134 -0.7320 -0.1705  0.8609
  280MOL   H14245340   2.328   7.030   4.267 -0.8056 -0.7548  0.1735
  280MOL   H14345341   2.297   7.240   4.047 -3.2080  0.5177 -0.2231
  280MOL   H14445342   2.122   7.105   3.977  0.1061 -1.9442 -1.2650
  280MOL   H14545343   2.249   7.022   3.976  0.0902 -0.7225  1.0387
  280MOL   C14645344   2.165   7.234   4.216  0.1014 -0.2911  0.2868
  280MOL   C14745345   2.059   0.054   4.151  0.3091  0.2269  0.4846
  280MOL   N14845346   1.935   0.040   4.225 -0.3765  0.0312 -0.3456
  280MOL   H14945347   2.116   7.159   4.279 -2.0855  0.5151 -0.3891
  280MOL   H15045348   2.224   0.016   4.287 -0.1869  1.7801 -1.1069
  280MOL   H15145349   2.036   0.023   4.049 -1.5063 -1.2208  1.2910
  280MOL   H15245350   1.864   0.098   4.183 -0.8513  0.3107  0.8199
  280MOL   H15345351   1.905   7.220   4.215  3.1444 -1.4790  2.4092
  280MOL   C15445352   2.108   0.201   4.154  1.3266  0.1955  0.0900
  280MOL   C15545353   2.233   0.235   4.084 -0.9953 -0.4419  0.4948
  280MOL   N15645354   2.259   0.376   4.094  0.6131 -0.4554  0.5278
  280MOL   H15745355   2.024   0.267   4.132  2.3316  2.0776  1.7518
  280MOL   H15845356   2.131   0.225   4.258 -0.9148  0.0866  0.6366
  280MOL   H15945357   2.229   0.208   3.978  2.1952  2.5385 -0.4583
  280MOL   H16045358   2.205   0.412   4.016  3.0862  1.2972 -0.4021
  280MOL   H16145359   2.351   0.397   4.060  0.6291  0.8683  1.3479
  280MOL   H16245360   2.324   0.185   4.115  0.7607  1.8370 -0.8244
  281MOL     C145361   3.569   4.124   2.577 -0.4283  0.7005 -0.3242
  281MOL     C245362   3.536   4.269   2.627  0.2246 -0.8219  0.0264
  281MOL     N345363   3.503   4.345   2.516  0.1015  0.2173  0.5548
  281MOL     H445364   3.652   4.120   2.507 -1.1095  0.5678 -1.1336
  281MOL     H545365   3.485   4.073   2.529  1.0176 -2.7367  0.6552
  281MOL     H645366   3.628   4.305   2.674 -0.5515 -0.5936  1.4120
  281MOL     H745367   3.578   4.334   2.449  0.0776  0.6124  0.4663
  281MOL     H845368   3.420   4.298   2.481  1.0151 -1.5208  0.6307
  281MOL     H945369   3.611   4.073   2.663  1.1366  2.8262  0.2026
  281MOL    C1045370   3.420   4.261   2.733 -0.2071 -0.4014  0.2346
  281MOL    C1145371   3.399   4.396   2.803  0.1234  0.1325  0.3624
  281MOL    N1245372   3.315   4.487   2.729 -0.3459  0.9718 -0.4012
  281MOL    H1345373   3.329   4.216   2.695  1.5231 -1.1301 -3.1853
  281MOL    H1445374   3.464   4.197   2.810  1.8726 -0.2010 -0.7422
  281MOL    H1545375   3.496   4.444   2.815 -0.6010  1.5711  0.5926
  281MOL    H1645376   3.359   4.502   2.639  0.2029 -0.8680 -0.4512
  281MOL    H1745377   3.311   4.584   2.758  1.3544  0.5461  1.3302
  281MOL    C1845378   3.338   4.386   2.942  0.3166  0.5455  0.9740
  281MOL    C1945379   3.319   4.514   3.033  0.3317 -0.4628  0.3141
  281MOL    N2045380   3.201   4.592   3.003 -0.2118  0.0141  0.0524
  281MOL    H2145381   3.247   4.327   2.933  1.0416 -0.3215 -1.0396
  281MOL    H2245382   3.401   4.322   3.004  1.7409  3.4690  2.6178
  281MOL    H2345383   3.405   4.580   3.025 -2.1846  3.1217  1.4005
  281MOL    H2445384   3.214   4.638   2.914 -0.0520  1.0771  0.6283
  281MOL    H2545385   3.116   4.541   2.980 -1.1307  1.2695  0.6166
  281MOL    C2645386   3.317   4.484   3.190 -0.1353 -0.9005  0.3587
  281MOL    C2745387   3.442   4.413   3.245  0.9737 -0.3707  0.7692
  281MOL    N2845388   3.558   4.495   3.229 -0.1282 -0.2471 -0.2931
  281MOL    H2945389   3.287   4.566   3.254  1.2422 -0.2218  0.1477
  281MOL    H3045390   3.234   4.415   3.209  0.2804 -1.0034  1.8542
  281MOL    H3145391   3.450   4.321   3.187 -1.6769 -0.9358  1.2423
  281MOL    H3245392   3.540   4.587   3.267 -0.0409  0.9905 -3.0551
  281MOL    H3345393   3.638   4.462   3.281 -1.6046 -1.8786  1.0136
  281MOL    C3445394   3.427   4.367   3.403 -0.6581  0.2785  0.3819
  281MOL    C3545395   3.538   4.266   3.446 -0.2452  0.5335 -0.1068
  281MOL    N3645396   3.533   4.257   3.590  0.5517 -0.4856  0.3993
  281MOL    H3745397   3.423   4.461   3.458  1.5687  0.4081  0.3748
  281MOL    H3845398   3.329   4.320   3.414 -0.3985 -0.3547 -0.0170
  281MOL    H3945399   3.633   4.316   3.424  0.2204  0.2371  1.1792
  281MOL    H4045400   3.548   4.351   3.625 -1.7907  0.4975 -1.1575
  281MOL    H4145401   3.620   4.220   3.626  1.6311 -0.4367 -2.0986
  281MOL    C4245402   3.534   4.123   3.390  0.3797  0.3201  0.5656
  281MOL    C4345403   3.405   4.045   3.397 -0.1557  0.1305 -0.4064
  281MOL    N4445404   3.314   4.092   3.297  0.1697 -0.0724 -0.3798
  281MOL    H4545405   3.558   4.118   3.283 -2.6782 -0.3638 -0.1305
  281MOL    H4645406   3.612   4.066   3.441  1.5472  0.2701 -1.1976
  281MOL    H4745407   3.353   4.077   3.487  0.8348  0.4644  0.0533
  281MOL    H4845408   3.224   4.050   3.317  0.5236 -0.4911  0.3652
  281MOL    H4945409   3.297   4.188   3.323  1.3728  0.1841 -0.5405
  281MOL    C5045410   3.415   3.893   3.375 -0.2277  0.6692  0.1941
  281MOL    C5145411   3.425   3.800   3.506 -0.0002 -0.5426  0.4981
  281MOL    N5245412   3.294   3.813   3.574  0.4100 -0.4712 -0.0914
  281MOL    H5345413   3.328   3.855   3.322 -1.9093  0.9169  2.7149
  281MOL    H5445414   3.495   3.874   3.302 -0.7473 -0.5283 -0.0660
  281MOL    H5545415   3.507   3.832   3.571 -0.2062  2.3643 -0.6112
  281MOL    H5645416   3.210   3.804   3.518 -1.2710 -1.7966  2.5538
  281MOL    H5745417   3.275   3.747   3.648 -1.5040  0.1149 -0.0138
  281MOL    C5845418   3.439   3.647   3.474 -0.5702 -0.1735  0.3038
  281MOL    C5945419   3.582   3.615   3.427 -0.5855  0.7963 -1.2263
  281MOL    N6045420   3.659   3.605   3.551 -0.3191 -0.4264  0.1675
  281MOL    H6145421   3.414   3.577   3.553  3.0255 -1.9092  0.0056
  281MOL    H6245422   3.367   3.626   3.394 -0.1532 -2.0531  0.4048
  281MOL    H6345423   3.618   3.697   3.364 -0.8499  1.3812 -0.6302
  281MOL    H6445424   3.756   3.622   3.529 -0.6476 -0.0819 -1.0314
  281MOL    H6545425   3.634   3.681   3.613  0.7326  0.2877 -0.2697
  281MOL    C6645426   3.592   3.484   3.346 -0.0347 -0.2647 -0.4324
  281MOL    C6745427   3.510   3.491   3.210 -0.0577  0.0886 -0.8154
  281MOL    N6845428   3.597   3.525   3.102 -0.2216 -0.3107 -0.2324
  281MOL    H6945429   3.692   3.445   3.332  0.3600  0.5324  0.1382
  281MOL    H7045430   3.538   3.405   3.399  0.0902 -0.2023 -0.2160
  281MOL    H7145431   3.433   3.567   3.227 -2.1940 -2.6447  2.3926
  281MOL    H7245432   3.559   3.513   3.009  0.4869 -0.3116 -0.5256
  281MOL    H7345433   3.631   3.618   3.120 -0.6946  0.1596 -1.7230
  281MOL    C7445434   3.464   3.349   3.174 -0.1754  0.3627 -0.3126
  281MOL    C7545435   3.315   3.327   3.200  0.3904 -0.1137 -0.7359
  281MOL    N7645436   3.227   3.406   3.110  0.7831 -0.1080 -0.2821
  281MOL    H7745437   3.484   3.313   3.073  2.6128  0.6248  0.0951
  281MOL    H7845438   3.516   3.280   3.240 -0.9299 -0.3825 -0.4852
  281MOL    H7945439   3.307   3.341   3.308  1.7441 -1.6816 -0.4161
  281MOL    H8045440   3.135   3.364   3.110  0.4217  0.6686  0.3887
  281MOL    H8145441   3.268   3.408   3.017 -0.5867  0.4025 -0.8831
  281MOL    C8245442   3.268   3.182   3.188  0.3492  0.1852  0.4965
  281MOL    C8345443   3.134   3.154   3.267  0.7345 -0.9364  0.5628
  281MOL    N8445444   3.025   3.155   3.167 -0.4475 -0.1029 -0.2647
  281MOL    H8545445   3.274   3.145   3.086  0.5280 -0.2762  0.6780
  281MOL    H8645446   3.343   3.117   3.232 -0.7368 -1.3857  0.0605
  281MOL    H8745447   3.110   3.236   3.334 -2.4254 -1.1099 -0.2498
  281MOL    H8845448   2.937   3.151   3.216 -0.0613  2.0639  0.6638
  281MOL    H8945449   3.023   3.086   3.093  0.0915 -1.3341  0.8451
  281MOL    C9045450   3.138   3.027   3.351  0.1800  0.1495 -0.0475
  281MOL    C9145451   3.234   3.025   3.472  0.1377 -0.1374  0.3685
  281MOL    N9245452   3.161   3.004   3.600 -0.9201 -0.4245  0.3975
  281MOL    H9345453   3.039   3.027   3.395  0.7317  1.4864  1.2331
  281MOL    H9445454   3.155   2.952   3.273  2.1317 -0.4414  0.8986
  281MOL    H9545455   3.272   3.127   3.482 -1.1047  0.5744 -1.8687
  281MOL    H9645456   3.223   3.022   3.677 -0.0847  1.5825 -0.6800
  281MOL    H9745457   3.137   2.908   3.618  2.8341 -1.6169 -0.6099
  281MOL    C9845458   3.354   2.927   3.460  0.1821 -1.0129  0.0310
  281MOL    C9945459   3.468   2.945   3.554 -0.3341  0.0484  0.8620
  281MOL   N10045460   3.552   2.826   3.553  0.7404  0.6585 -0.2810
  281MOL   H10145461   3.323   2.822   3.467  1.2992 -1.3198  0.5177
  281MOL   H10245462   3.395   2.936   3.359  1.0003  1.4626  0.5681
  281MOL   H10345463   3.423   2.965   3.651 -3.2806 -4.7503  0.6610
  281MOL   H10445464   3.644   2.854   3.583  0.5182  0.2162  0.8451
  281MOL   H10545465   3.514   2.761   3.620  0.3209 -0.4169 -1.5393
  281MOL   C10645466   3.565   3.060   3.501 -0.3673 -0.9113 -0.5127
  281MOL   C10745467   3.650   3.132   3.609  0.1063  0.5383  0.3478
  281MOL   N10845468   3.723   3.238   3.537 -0.5993 -0.0066  0.3880
  281MOL   H10945469   3.614   3.024   3.411  1.8903  0.6507  0.0459
  281MOL   H11045470   3.499   3.142   3.474  1.7127  1.1045  0.3955
  281MOL   H11145471   3.715   3.056   3.651 -0.2223  0.5173  0.8148
  281MOL   H11245472   3.789   3.272   3.606  0.2653  0.5035 -0.6753
  281MOL   H11345473   3.655   3.313   3.539  1.2624  1.7206  0.6124
  281MOL   C11445474   3.578   3.190   3.729  0.0471 -0.0154 -0.9758
  281MOL   C11545475   3.583   3.095   3.846 -0.1803  0.2017 -0.2635
  281MOL   N11645476   3.707   3.129   3.917 -0.0453 -0.3857 -0.6985
  281MOL   H11745477   3.622   3.284   3.761 -2.8221  0.8600  0.4787
  281MOL   H11845478   3.476   3.211   3.697 -1.7159 -2.9342  2.3492
  281MOL   H11945479   3.602   2.994   3.811  1.8788  0.8051 -0.9961
  281MOL   H12045480   3.780   3.165   3.856 -1.5348  1.0101 -1.7154
  281MOL   H12145481   3.752   3.045   3.949  0.7813 -0.1349 -1.1807
  281MOL   C12245482   3.469   3.095   3.953  0.1772  0.0339 -0.3394
  281MOL   C12345483   3.328   3.038   3.909  0.0038  0.0089  0.3738
  281MOL   N12445484   3.332   2.893   3.909 -0.2994 -0.1161 -0.5320
  281MOL   H12545485   3.505   3.044   4.042  1.4376  0.8481 -0.3786
  281MOL   H12645486   3.450   3.200   3.975 -1.0414 -0.5321  1.4180
  281MOL   H12745487   3.321   3.082   3.810  0.7512 -0.2285  0.2110
  281MOL   H12845488   3.421   2.853   3.885 -0.3833 -0.9563  0.4939
  281MOL   H12945489   3.256   2.853   3.855 -0.9406 -1.1796  1.1060
  281MOL   C13045490   3.215   3.074   4.005 -0.7079  0.1913  0.2886
  281MOL   C13145491   3.167   3.222   4.034  0.6416 -0.3782 -0.3826
  281MOL   N13245492   3.158   3.302   3.918 -0.2028 -0.2571  0.1889
  281MOL   H13345493   3.130   3.015   3.970 -0.3869  0.8780 -1.7166
  281MOL   H13445494   3.240   3.035   4.103  0.4150 -0.1970 -0.1400
  281MOL   H13545495   3.237   3.266   4.105  0.3689 -1.0514  0.3061
  281MOL   H13645496   3.105   3.387   3.932  0.3441  0.3970 -1.4885
  281MOL   H13745497   3.245   3.342   3.887  0.5648 -2.5676 -0.7502
  281MOL   C13845498   3.034   3.220   4.113  0.2250  0.3094 -0.6032
  281MOL   C13945499   3.048   3.165   4.258 -0.0391 -0.3966  0.0323
  281MOL   N14045500   3.091   3.287   4.331  0.0463 -0.0721  0.0655
  281MOL   H14145501   2.993   3.321   4.114  1.6064  0.9303  3.4829
  281MOL   H14245502   2.958   3.165   4.056 -1.2996  1.3934  0.3568
  281MOL   H14345503   3.134   3.099   4.264  1.2216  1.2655  0.5293
  281MOL   H14445504   3.014   3.352   4.326 -0.0630  0.0716  2.9541
  281MOL   H14545505   3.165   3.342   4.289 -0.0705 -1.2573 -1.7745
  281MOL   C14645506   2.915   3.105   4.312 -0.0774 -0.1608  0.3478
  281MOL   C14745507   2.923   2.952   4.321  0.2588  0.7279 -0.0581
  281MOL   N14845508   2.849   2.886   4.430 -0.3808  0.6574  0.2767
  281MOL   H14945509   2.892   3.142   4.412 -1.0850  0.6019 -0.1505
  281MOL   H15045510   2.829   3.139   4.254  0.5574  0.6517 -0.1296
  281MOL   H15145511   3.026   2.916   4.328  0.0361  0.0367 -0.2845
  281MOL   H15245512   2.761   2.850   4.395  0.6026 -1.6651  0.1300
  281MOL   H15345513   2.819   2.951   4.501 -2.4452  1.7268 -1.4985
  281MOL   C15445514   2.872   2.888   4.196 -0.2921  0.0032 -0.3719
  281MOL   C15545515   2.715   2.895   4.171 -1.3637  0.1699 -0.0639
  281MOL   N15645516   2.677   2.824   4.053  0.1923  0.4695 -0.3244
  281MOL   H15745517   2.915   2.944   4.113  0.6756  1.0798  0.8281
  281MOL   H15845518   2.904   2.785   4.178 -1.2879 -0.3672 -0.0395
  281MOL   H15945519   2.693   3.001   4.153  1.4724  0.8231  0.0760
  281MOL   H16045520   2.745   2.847   3.981 -0.0246  0.0597 -0.6672
  281MOL   H16145521   2.585   2.853   4.021  0.5395  0.1601 -1.6295
  281MOL   H16245522   2.651   2.859   4.252 -0.9049 -0.5426 -0.0187
  282MOL     C145523   6.504   2.896   6.185  0.0827 -0.9092 -0.3450
  282MOL     C245524   6.452   2.792   6.292  0.6424  0.7549  0.6960
  282MOL     N345525   6.406   2.876   6.404  0.3178 -0.0116  0.3500
  282MOL     H445526   6.422   2.961   6.153  0.8747  0.3025  0.0421
  282MOL     H545527   6.546   2.846   6.098  2.0971  0.3330 -0.1067
  282MOL     H645528   6.533   2.732   6.334 -0.3154  0.3050  1.9099
  282MOL     H745529   6.333   2.938   6.370 -1.2740 -1.9881  0.0225
  282MOL     H845530   6.355   2.826   6.476 -0.1389  1.4172  1.0273
  282MOL     H945531   6.595   2.951   6.209 -1.5389  1.8011 -0.1435
  282MOL    C1045532   6.330   2.711   6.236  0.3295 -0.3937 -0.2154
  282MOL    C1145533   6.365   2.583   6.165  0.1651 -0.4865  1.1308
  282MOL    N1245534   6.243   2.506   6.163 -0.4521 -0.8933  0.3455
  282MOL    H1345535   6.278   2.692   6.331 -1.5714  0.5308 -1.0577
  282MOL    H1445536   6.268   2.774   6.173  2.4418 -0.9871 -2.9637
  282MOL    H1545537   6.446   2.539   6.223  0.2811 -1.1308  0.5016
  282MOL    H1645538   6.270   2.409   6.153 -0.8566 -1.0220  0.4824
  282MOL    H1745539   6.188   2.526   6.080 -0.3098 -1.5932  0.0736
  282MOL    C1845540   6.409   2.615   6.019 -0.8178 -0.0979 -0.2956
  282MOL    C1945541   6.564   2.583   6.000 -0.1088 -0.4095 -0.0831
  282MOL    N2045542   6.582   2.438   6.017  0.3407 -0.0907  0.4126
  282MOL    H2145543   6.359   2.566   5.936 -1.5372  1.1753 -0.6349
  282MOL    H2245544   6.384   2.719   5.997 -2.3153  0.1875  2.5079
  282MOL    H2345545   6.626   2.635   6.073  1.7196 -0.3876 -1.6068
  282MOL    H2445546   6.531   2.385   5.947  1.5197  1.0948 -1.3785
  282MOL    H2545547   6.678   2.418   5.993  0.6161  1.0386  0.5400
  282MOL    C2645548   6.621   2.616   5.858 -0.4804  0.1243  0.1803
  282MOL    C2745549   6.674   2.764   5.853 -0.0674  0.5245 -0.0060
  282MOL    N2845550   6.769   2.763   5.743  0.1572  0.3309 -0.5554
  282MOL    H2945551   6.700   2.545   5.833  2.6640  3.6940 -0.6549
  282MOL    H3045552   6.543   2.610   5.782  0.7509 -1.3736 -0.9951
  282MOL    H3145553   6.727   2.798   5.942 -0.7564  1.3508  0.0979
  282MOL    H3245554   6.791   2.860   5.726 -0.9448  0.2889 -2.3306
  282MOL    H3345555   6.852   2.733   5.793 -0.7864  0.0347  0.8893
  282MOL    C3445556   6.574   2.883   5.822 -0.1308  0.5342 -0.4576
  282MOL    C3545557   6.631   3.022   5.799 -0.6105 -0.2478 -1.0858
  282MOL    N3645558   6.520   3.098   5.737 -0.3981  0.0562  0.3307
  282MOL    H3745559   6.523   2.853   5.730  0.1968  0.6579 -0.6790
  282MOL    H3845560   6.497   2.890   5.900 -0.5894  0.2473 -0.8792
  282MOL    H3945561   6.714   3.021   5.728  0.6679  0.9924  0.3435
  282MOL    H4045562   6.562   3.167   5.675  0.4161 -0.4671  0.2884
  282MOL    H4145563   6.473   3.162   5.799 -0.7943  0.6613 -0.5818
  282MOL    C4245564   6.685   3.091   5.928  0.1820  0.3702  0.3125
  282MOL    C4345565   6.791   3.201   5.907 -0.3001 -0.7145  0.5604
  282MOL    N4445566   6.723   3.321   5.861  0.6382  0.5724 -0.0952
  282MOL    H4545567   6.610   3.122   6.002 -1.1584 -1.9313 -0.0519
  282MOL    H4645568   6.746   3.016   5.978  1.3394  0.2617 -1.2338
  282MOL    H4745569   6.859   3.170   5.828  0.1863  1.0771  0.2581
  282MOL    H4845570   6.705   3.305   5.763 -3.7492 -2.2185  1.0247
  282MOL    H4945571   6.788   3.396   5.842 -0.0265  0.9036 -1.0930
  282MOL    C5045572   6.868   3.248   6.038 -1.0135  0.8180 -0.1607
  282MOL    C5145573   7.021   3.223   6.035 -0.2803  0.9260 -0.3982
  282MOL    N5245574   7.088   3.299   5.935  0.0451  0.0013 -0.5396
  282MOL    H5345575   6.854   3.354   6.060 -0.0989  1.3257 -1.9431
  282MOL    H5445576   6.822   3.192   6.119 -0.3372 -0.0235 -0.3505
  282MOL    H5545577   7.041   3.118   6.011 -0.5386  0.3861  1.6804
  282MOL    H5645578   7.189   3.297   5.933  0.0909  0.9493  0.4252
  282MOL    H5745579   7.053   3.278   5.843  1.6700  0.0244 -1.1783
  282MOL    C5845580   7.088   3.249   6.171 -0.7389 -0.0775 -0.1652
  282MOL    C5945581   7.230   3.198   6.195  0.5808  0.5827  0.1966
  282MOL    N6045582   7.264   3.248   6.327 -0.2641  0.2740 -0.0467
  282MOL    H6145583   7.079   3.356   6.191  1.3601  0.8421 -3.7331
  282MOL    H6245584   7.026   3.192   6.241  1.3844 -1.8211  0.3549
  282MOL    H6345585   0.025   3.238   6.122 -0.2545 -1.0194 -1.5121
  282MOL    H6445586   0.085   3.228   6.349  0.2829  1.7336 -1.0500
  282MOL    H6545587   7.213   3.206   6.403 -0.3799  1.5740  0.6092
  282MOL    C6645588   7.225   3.042   6.199 -0.1731 -0.3009 -0.7652
  282MOL    C6745589   0.064   2.983   6.120 -0.1011  0.5889 -0.8185
  282MOL    N6845590   0.088   2.851   6.159  0.7032  0.1857  0.3814
  282MOL    H6945591   7.231   3.018   6.305 -0.5221 -1.9784 -1.1242
  282MOL    H7045592   7.129   2.998   6.170 -0.2032  0.1892 -1.4122
  282MOL    H7145593   0.157   3.032   6.148  0.9689 -2.1085  0.4368
  282MOL    H7245594   0.137   2.852   6.247  2.8196 -0.9843 -0.7692
  282MOL    H7345595   0.155   2.799   6.104  0.7169  3.1974 -2.6113
  282MOL    C7445596   0.054   2.991   5.963 -0.3385 -0.3041 -1.1403
  282MOL    C7545597   0.156   2.903   5.883  0.2921  0.3938  0.6501
  282MOL    N7645598   0.112   2.925   5.748  0.0633  0.0788 -0.0940
  282MOL    H7745599   7.224   2.976   5.938 -1.0664  0.0008  1.5665
  282MOL    H7845600   0.065   3.096   5.935  0.1114 -0.1709 -0.4803
  282MOL    H7945601   0.145   2.800   5.915 -4.3321 -0.0206 -1.8375
  282MOL    H8045602   0.119   2.840   5.694 -1.2050  0.3569 -0.6936
  282MOL    H8145603   0.014   2.946   5.753 -0.0055 -0.1635 -0.4275
  282MOL    C8245604   0.308   2.937   5.887  0.8912  0.0673  0.6935
  282MOL    C8345605   0.392   2.866   6.004 -0.3718 -0.1154 -0.1857
  282MOL    N8445606   0.403   2.729   5.965  0.2397  0.3589  0.9044
  282MOL    H8545607   0.356   2.926   5.790  1.1266  0.3152  0.7820
  282MOL    H8645608   0.293   3.045   5.898  1.6067  0.2169  0.1891
  282MOL    H8745609   0.343   2.883   6.100  0.4852 -2.0138  0.6063
  282MOL    H8845610   0.323   2.708   5.908  1.1313 -2.3587  0.5744
  282MOL    H8945611   0.477   2.704   5.901 -1.1759  0.0675 -0.6594
  282MOL    C9045612   0.540   2.926   6.007  0.1375  0.2492  0.4772
  282MOL    C9145613   0.550   3.048   6.100 -0.1400  0.4038  0.3800
  282MOL    N9245614   0.692   3.072   6.130  0.0971 -0.0867 -0.1888
  282MOL    H9345615   0.608   2.849   6.043  1.3916  0.5864 -1.0742
  282MOL    H9445616   0.576   2.954   5.908 -3.2917 -0.2862 -0.9942
  282MOL    H9545617   0.495   3.015   6.188  0.7275 -0.4961  0.6046
  282MOL    H9645618   0.751   3.095   6.052  0.6814 -2.5265 -0.5146
  282MOL    H9745619   0.706   3.130   6.212  2.0027 -0.5112 -0.1839
  282MOL    C9845620   0.484   3.183   6.051  0.3505 -0.6302  0.0312
  282MOL    C9945621   0.504   3.309   6.137  0.4253 -0.4572 -0.7197
  282MOL   N10045622   0.435   3.410   6.056  0.1172  0.2135 -0.4464
  282MOL   H10145623   0.518   3.207   5.951 -2.7436  0.5664 -0.7786
  282MOL   H10245624   0.378   3.162   6.043  0.1081  1.2366 -1.8656
  282MOL   H10345625   0.608   3.339   6.121  0.5726 -1.2685 -1.3223
  282MOL   H10445626   0.483   3.499   6.063  2.6807 -1.0493 -1.3212
  282MOL   H10545627   0.346   3.430   6.100  0.8481  0.3973  1.0059
  282MOL   C10645628   0.448   3.303   6.286 -0.1166 -0.2576  0.5652
  282MOL   C10745629   0.545   3.233   6.382 -0.0097 -0.2459  0.1816
  282MOL   N10845630   0.680   3.263   6.349 -0.4936  0.6469 -0.0599
  282MOL   H10945631   0.436   3.404   6.326 -0.4454 -0.6239  1.3959
  282MOL   H11045632   0.346   3.265   6.288 -0.7259  1.0186 -2.7098
  282MOL   H11145633   0.534   3.125   6.367 -1.5692 -0.2092  0.9953
  282MOL   H11245634   0.735   3.231   6.427  0.2705 -0.3301 -0.9779
  282MOL   H11345635   0.687   3.364   6.353 -0.6548  0.6853 -0.6561
  282MOL   C11445636   0.510   3.252   6.532  0.9482 -0.4536  0.1426
  282MOL   C11545637   0.393   3.177   6.581 -0.7184  0.7727  0.3284
  282MOL   N11645638   0.431   3.032   6.586  0.1362  0.0285  0.5841
  282MOL   H11745639   0.590   3.225   6.600  1.4129 -0.1775 -0.2921
  282MOL   H11845640   0.495   3.359   6.544 -1.4526 -0.6757 -0.6058
  282MOL   H11945641   0.312   3.186   6.508  1.0617  0.8970 -1.6827
  282MOL   H12045642   0.353   2.976   6.615 -0.0483  0.5419  1.0829
  282MOL   H12145643   0.501   3.010   6.655  0.3983 -1.3184 -0.0882
  282MOL   C12245644   0.359   3.226   6.727 -0.0712  0.3424  0.0227
  282MOL   C12345645   0.233   3.159   6.783  0.2130 -0.2257 -0.3451
  282MOL   N12445646   0.223   3.185   6.928 -0.1844  0.0895  0.0398
  282MOL   H12545647   0.450   3.216   6.786  0.1879 -0.8070 -0.5616
  282MOL   H12645648   0.335   3.332   6.731  1.0139  0.6058 -0.2103
  282MOL   H12745649   0.256   3.054   6.769  1.4825 -0.1745  1.2090
  282MOL   H12845650   0.145   3.126   6.955  0.8323 -1.2433  0.1208
  282MOL   H12945651   0.297   3.142   6.982  2.4736  3.1088 -1.0615
  282MOL   C13045652   0.096   3.200   6.714  0.5380 -0.5981  0.2068
  282MOL   C13145653   7.268   3.093   6.682 -0.3449 -0.8223 -0.3165
  282MOL   N13245654   7.162   3.155   6.608 -0.0918  0.4118 -0.0995
  282MOL   H13345655   0.047   3.277   6.772  2.4632  1.3051 -0.6070
  282MOL   H13445656   0.123   3.249   6.620  0.8278  0.2361  0.7250
  282MOL   H13545657   7.237   3.046   6.776  0.4343 -1.5914 -0.4384
  282MOL   H13645658   7.095   3.080   6.597 -1.2705  1.4898 -0.3598
  282MOL   H13745659   7.117   3.224   6.667  0.3500 -1.2239  2.2084
  282MOL   C13845660   0.048   2.978   6.603  0.0721  0.0094 -0.4338
  282MOL   C13945661   7.211   2.877   6.572 -0.1380  0.3773  0.1804
  282MOL   N14045662   7.256   2.780   6.471 -0.2047  0.3476  0.0546
  282MOL   H14145663   0.101   3.003   6.511 -0.1628 -0.5896 -0.7375
  282MOL   H14245664   0.126   2.926   6.659 -0.2308 -2.0688 -1.8747
  282MOL   H14345665   7.128   2.927   6.522 -0.8774 -1.2373 -0.2119
  282MOL   H14445666   7.241   2.820   6.380  0.9107  0.0272 -0.2737
  282MOL   H14545667   0.079   2.763   6.457  0.0055  1.1700  0.5473
  282MOL   C14645668   7.149   2.800   6.692 -0.1078 -0.5920  0.2188
  282MOL   C14745669   7.006   2.734   6.671 -0.5704  0.2102  0.4114
  282MOL   N14845670   6.986   2.648   6.788  0.0758 -0.2822 -0.3695
  282MOL   H14945671   7.225   2.724   6.712 -0.8562 -0.7202  2.7676
  282MOL   H15045672   7.144   2.854   6.786 -0.2347 -3.0980  1.7021
  282MOL   H15145673   7.015   2.675   6.580  0.2224  0.3841  0.3741
  282MOL   H15245674   6.890   2.618   6.797 -0.6932  2.0309 -0.5802
  282MOL   H15345675   7.038   2.562   6.778 -1.5897 -1.4004  0.5514
  282MOL   C15445676   6.873   2.825   6.654  0.1726  0.2151  0.2607
  282MOL   C15545677   6.825   2.834   6.512 -0.3577 -0.2821  0.4124
  282MOL   N15645678   6.697   2.912   6.505  0.1312 -0.0998 -0.2026
  282MOL   H15745679   6.787   2.775   6.699  0.6849  1.1915  2.4130
  282MOL   H15845680   6.893   2.919   6.706  1.1477  0.8949 -1.3178
  282MOL   H15945681   6.812   2.738   6.462 -1.7529 -0.9612  2.0383
  282MOL   H16045682   6.657   2.926   6.414 -2.0867  0.5545  0.8248
  282MOL   H16145683   6.708   3.002   6.549 -2.4871 -0.2604  0.8981
  282MOL   H16245684   6.898   2.888   6.452 -0.7204  0.4707  0.6418
  283MOL     C145685   1.899   2.306   5.067 -0.1304  0.3362  0.5005
  283MOL     C245686   1.972   2.261   4.935  0.5448  0.0834 -0.0266
  283MOL     N345687   1.893   2.297   4.817 -0.3810  0.0825 -0.2418
  283MOL     H445688   1.951   2.267   5.154  1.6934  3.7692  1.0154
  283MOL     H545689   1.798   2.263   5.072 -0.8511  1.8292 -0.8835
  283MOL     H645690   1.976   2.153   4.927  2.0315  0.1225  0.1083
  283MOL     H745691   1.796   2.270   4.823 -1.1715  2.9416  0.8849
  283MOL     H845692   1.887   2.395   4.791  0.9940 -0.0694 -1.2054
  283MOL     H945693   1.885   2.414   5.073 -2.0173  0.2260 -1.1740
  283MOL    C1045694   2.105   2.334   4.920  0.0394  0.3287 -0.5864
  283MOL    C1145695   2.233   2.265   4.984  0.7683  0.5293  0.1103
  283MOL    N1245696   2.268   2.153   4.896  0.5817  0.0974  0.1865
  283MOL    H1345697   2.127   2.328   4.814 -0.2724 -1.6514 -0.5662
  283MOL    H1445698   2.101   2.440   4.945  1.2909  0.1258  0.5248
  283MOL    H1545699   2.207   2.219   5.079  0.0886  0.7783  0.0518
  283MOL    H1645700   2.352   2.100   4.918 -0.3419 -0.4723  2.4739
  283MOL    H1745701   2.186   2.096   4.880  1.0796 -1.1853  2.1314
  283MOL    C1845702   2.344   2.369   5.000 -1.4118  0.4085 -0.0862
  283MOL    C1945703   2.320   2.482   5.107  0.1992 -0.1224 -0.2548
  283MOL    N2045704   2.313   2.433   5.241 -0.0948  0.1356 -0.0617
  283MOL    H2145705   2.430   2.310   5.031 -1.7435 -0.9423 -1.6878
  283MOL    H2245706   2.375   2.411   4.904  3.0822  0.5087  1.2591
  283MOL    H2345707   2.227   2.534   5.086 -0.2140 -0.5044  0.6164
  283MOL    H2445708   2.256   2.349   5.240  0.7348 -0.4436  0.6308
  283MOL    H2545709   2.293   2.507   5.306  1.3272 -0.3889  0.9904
  283MOL    C2645710   2.427   2.595   5.083 -0.4349  0.6609 -0.0812
  283MOL    C2745711   2.375   2.716   4.996 -0.5119  0.3774  0.3495
  283MOL    N2845712   2.473   2.819   5.003  0.0006 -0.3975 -0.2088
  283MOL    H2945713   2.443   2.637   5.182  0.2721  1.0781 -0.3705
  283MOL    H3045714   2.518   2.545   5.049 -0.6440  0.6400 -0.6120
  283MOL    H3145715   2.284   2.744   5.049 -0.0325  1.0773  0.8170
  283MOL    H3245716   2.523   2.820   5.090 -1.3125 -1.2672  0.5633
  283MOL    H3345717   2.556   2.806   4.947  0.5063  1.0673  0.1866
  283MOL    C3445718   2.352   2.693   4.844 -0.0788 -0.7356  0.1135
  283MOL    C3545719   2.288   2.808   4.759 -0.5115 -0.3313 -0.2836
  283MOL    N3645720   2.289   2.769   4.620 -0.3890  0.2196  0.0737
  283MOL    H3745721   2.455   2.684   4.808  0.4330 -0.6361  1.5120
  283MOL    H3845722   2.297   2.601   4.825  0.4091 -0.7448 -1.3302
  283MOL    H3945723   2.352   2.896   4.770 -1.4778  0.2963  0.4353
  283MOL    H4045724   2.381   2.738   4.590 -0.1890  1.3793 -0.5773
  283MOL    H4145725   2.235   2.685   4.602 -2.2662  1.0521  1.7084
  283MOL    C4245726   2.138   2.825   4.797 -0.0628  0.8414 -0.2391
  283MOL    C4345727   2.088   2.976   4.774  0.3012  0.1024 -0.2218
  283MOL    N4445728   1.942   2.964   4.745  0.0151  0.3700  0.2808
  283MOL    H4545729   2.074   2.751   4.749 -0.4682  1.3655 -0.5087
  283MOL    H4645730   2.112   2.811   4.902 -1.3516  1.0236 -0.5270
  283MOL    H4745731   2.135   3.020   4.687  1.1416  1.5123  0.9358
  283MOL    H4845732   1.918   2.892   4.811 -0.3128  0.6711  0.4925
  283MOL    H4945733   1.925   2.925   4.654  0.0708 -4.0243  2.0242
  283MOL    C5045734   2.120   3.064   4.898 -0.2520 -0.3171 -0.2926
  283MOL    C5145735   2.262   3.089   4.936 -0.1975  0.1400 -0.0098
  283MOL    N5245736   2.335   3.155   4.828  0.4012 -0.6192  0.0862
  283MOL    H5345737   2.065   3.156   4.877 -0.9475 -1.1389 -2.1583
  283MOL    H5445738   2.066   3.017   4.980 -2.0406  0.6657 -0.8771
  283MOL    H5545739   2.303   2.989   4.948  0.7679  0.4847 -0.3998
  283MOL    H5645740   2.334   3.094   4.748  1.8196 -0.5771  0.0272
  283MOL    H5745741   2.428   3.145   4.866  0.7133  0.4109 -0.4065
  283MOL    C5845742   2.294   3.177   5.062  0.0819  0.3730 -0.3316
  283MOL    C5945743   2.248   3.122   5.199 -0.0133 -0.4002 -1.0691
  283MOL    N6045744   2.339   3.017   5.235 -0.2801 -0.0658  0.3366
  283MOL    H6145745   2.402   3.193   5.071  0.7402 -2.7938 -1.9711
  283MOL    H6245746   2.251   3.276   5.047 -0.6477  0.1247  0.1253
  283MOL    H6345747   2.145   3.086   5.187 -0.1532 -1.0445  1.7825
  283MOL    H6445748   2.307   2.956   5.309  0.3877 -0.1450  0.5571
  283MOL    H6545749   2.353   2.948   5.163 -0.1285 -0.6981  0.9658
  283MOL    C6645750   2.251   3.231   5.321 -0.5706 -0.0299  0.0003
  283MOL    C6745751   2.151   3.340   5.323 -0.0180 -0.1511 -0.1816
  283MOL    N6845752   2.024   3.274   5.326 -0.6908 -0.1727  0.3932
  283MOL    H6945753   2.238   3.169   5.409  2.3078 -1.6674 -0.6692
  283MOL    H7045754   2.353   3.265   5.339  0.0992 -2.9139  2.0028
  283MOL    H7145755   2.164   3.402   5.235 -0.1155  0.1715  0.0278
  283MOL    H7245756   2.019   3.199   5.259  2.2939  0.3652 -0.5072
  283MOL    H7345757   2.021   3.223   5.413 -1.0193  0.9337  1.0431
  283MOL    C7445758   2.161   3.433   5.441  0.1801  0.8192  0.0379
  283MOL    C7545759   2.060   3.544   5.446 -0.2991 -0.0705  0.6464
  283MOL    N7645760   2.053   3.577   5.587  0.7066  0.2976 -0.0658
  283MOL    H7745761   2.155   3.361   5.523  1.3865  0.2073 -0.4007
  283MOL    H7845762   2.262   3.473   5.434  2.0495 -3.5205  0.5905
  283MOL    H7945763   1.969   3.497   5.410 -0.3483  1.5230 -1.3605
  283MOL    H8045764   2.004   3.502   5.632  0.8618  1.0185  1.3323
  283MOL    H8145765   2.136   3.594   5.643 -0.7326  0.8128  1.9813
  283MOL    C8245766   2.112   3.658   5.354 -0.0995  0.7002  0.2456
  283MOL    C8345767   2.021   3.783   5.353  0.2895  0.2186 -0.5528
  283MOL    N8445768   2.110   3.893   5.313 -0.2026 -0.1794 -0.3145
  283MOL    H8545769   2.211   3.685   5.391 -0.2724  0.1755  1.1025
  283MOL    H8645770   2.138   3.632   5.252  0.7492 -1.0359  0.8772
  283MOL    H8745771   1.983   3.794   5.454 -0.7109  1.6797 -1.0724
  283MOL    H8845772   2.182   3.904   5.382 -0.4326  2.4138 -0.4535
  283MOL    H8945773   2.057   3.979   5.313 -0.7241 -0.4907  1.2397
  283MOL    C9045774   1.907   3.790   5.245 -0.4571 -0.2159  0.2279
  283MOL    C9145775   1.791   3.890   5.257  0.0213  0.5758  0.4454
  283MOL    N9245776   1.683   3.860   5.170 -0.1566  0.6369 -0.2035
  283MOL    H9345777   1.937   3.795   5.141  0.8640 -1.2358  0.5554
  283MOL    H9445778   1.873   3.687   5.257 -0.4673 -0.1369  0.9364
  283MOL    H9545779   1.838   3.985   5.229 -0.4315  0.4433 -0.8132
  283MOL    H9645780   1.626   3.785   5.206  0.2219  0.5407  0.1989
  283MOL    H9745781   1.723   3.818   5.086  1.2427 -0.2014  0.8537
  283MOL    C9845782   1.742   3.900   5.405  0.8165 -0.2835 -0.9094
  283MOL    C9945783   1.814   4.009   5.486  0.2881 -0.2373  0.0765
  283MOL   N10045784   1.741   4.137   5.457  0.5618 -0.5340 -0.1819
  283MOL   H10145785   1.636   3.925   5.407  0.5535 -1.3089  2.3684
  283MOL   H10245786   1.753   3.803   5.455  0.6852 -0.5622 -1.4187
  283MOL   H10345787   1.918   4.009   5.453  0.2602 -1.9590 -0.0532
  283MOL   H10445788   1.753   4.164   5.360 -2.2005  0.9113 -0.1561
  283MOL   H10545789   1.643   4.116   5.462 -0.4416  3.7445  0.1021
  283MOL   C10645790   1.799   3.987   5.639  0.3442  0.0673 -0.1807
  283MOL   C10745791   1.904   4.061   5.733 -0.5100 -0.5116  0.2507
  283MOL   N10845792   1.863   4.059   5.874 -0.3953  0.3334 -0.1452
  283MOL   H10945793   1.693   3.998   5.660 -0.1636 -2.3552 -1.2330
  283MOL   H11045794   1.821   3.882   5.661  1.1747  0.6876  2.0702
  283MOL   H11145795   1.895   4.162   5.694  0.9940  0.3209  1.9791
  283MOL   H11245796   1.930   4.114   5.924 -1.2827  0.1998  1.2378
  283MOL   H11345797   1.782   4.119   5.883 -0.4803  0.3217 -0.8083
  283MOL   C11445798   2.048   3.998   5.712  0.6725 -0.3370 -0.1012
  283MOL   C11545799   2.175   4.085   5.756  0.0411  0.3389  0.0279
  283MOL   N11645800   2.291   3.991   5.762  0.2670  0.1114 -0.3313
  283MOL   H11745801   2.051   3.903   5.765  0.7998 -0.1260  0.2744
  283MOL   H11845802   2.054   3.975   5.606 -0.5105  0.4941 -0.3597
  283MOL   H11945803   2.144   4.117   5.856  0.0014  3.2995 -0.8618
  283MOL   H12045804   2.366   4.045   5.804  0.9330 -1.1472  0.1287
  283MOL   H12145805   2.276   3.923   5.835  0.4106  0.2986 -0.1265
  283MOL   C12245806   2.219   4.190   5.652  0.1026 -0.8873  0.0954
  283MOL   C12345807   2.114   4.290   5.600 -0.7437 -0.9637 -0.4891
  283MOL   N12445808   2.077   4.389   5.699  0.0299  0.9359  0.3288
  283MOL   H12545809   2.300   4.243   5.703  0.3580 -1.7032  0.5493
  283MOL   H12645810   2.251   4.139   5.561 -0.4793  0.0434 -0.6394
  283MOL   H12745811   2.021   4.245   5.567 -1.6602 -0.1327  0.9338
  283MOL   H12845812   2.016   4.347   5.768 -0.5704  2.7926  0.9573
  283MOL   H12945813   2.026   4.466   5.660  0.2135  0.8453 -0.0882
  283MOL   C13045814   2.166   4.362   5.470 -0.5116 -0.8774  0.5346
  283MOL   C13145815   2.126   4.286   5.349 -0.1337 -0.1276  0.6123
  283MOL   N13245816   1.990   4.324   5.306  0.1937 -0.5602 -0.3786
  283MOL   H13345817   2.132   4.466   5.464  0.3390 -0.5933  0.6351
  283MOL   H13445818   2.272   4.376   5.489 -0.8096 -0.6435  2.1208
  283MOL   H13545819   2.124   4.181   5.380 -0.3299 -0.6284 -1.0485
  283MOL   H13645820   1.977   4.280   5.216 -1.8124  1.7281 -1.2517
  283MOL   H13745821   1.926   4.284   5.373 -1.2283  0.3899 -1.1326
  283MOL   C13845822   2.223   4.290   5.232  0.3653 -0.4532  0.2641
  283MOL   C13945823   2.364   4.223   5.256  0.0288 -0.1430  0.0690
  283MOL   N14045824   2.354   4.091   5.317 -0.0776 -0.3987  0.9008
  283MOL   H14145825   2.171   4.250   5.145 -0.5750  0.0608  0.5898
  283MOL   H14245826   2.234   4.397   5.214 -1.0289 -0.7041 -2.3668
  283MOL   H14345827   2.427   4.287   5.318 -3.0367  1.3521  1.7436
  283MOL   H14445828   2.439   4.045   5.288 -1.4392 -1.5854 -1.2521
  283MOL   H14545829   2.281   4.037   5.273 -0.1193  1.5424 -1.5188
  283MOL   C14645830   2.437   4.200   5.118  0.1408 -0.3953  0.1327
  283MOL   C14745831   2.581   4.154   5.117 -0.0729  0.4144 -0.4472
  283MOL   N14845832   2.603   4.025   5.183 -0.6265  0.4142 -1.0370
  283MOL   H14945833   2.367   4.159   5.045 -0.6360  0.7224  0.2323
  283MOL   H15045834   2.432   4.303   5.084  0.2695 -1.1804 -2.3201
  283MOL   H15145835   2.646   4.217   5.178  1.9728 -1.7162 -0.3483
  283MOL   H15245836   2.557   3.954   5.128 -0.4728 -2.0702  1.9023
  283MOL   H15345837   2.700   3.996   5.182 -0.8917 -0.4805 -2.0837
  283MOL   C15445838   2.640   4.168   4.969 -0.0421 -0.4440 -0.0707
  283MOL   C15545839   2.669   4.318   4.934 -0.0658  0.1809 -0.5130
  283MOL   N15645840   2.750   4.345   4.810 -0.0534 -0.3342 -0.0240
  283MOL   H15745841   2.731   4.110   4.953 -1.1408 -2.0969 -0.3352
  283MOL   H15845842   2.571   4.133   4.893 -1.1457  0.8460  0.3031
  283MOL   H15945843   2.728   4.359   5.016 -2.0104  1.7079  0.1661
  283MOL   H16045844   2.806   4.428   4.820  0.7780 -0.8543 -0.3212
  283MOL   H16145845   2.805   4.260   4.809 -0.7822 -0.8115 -0.3814
  283MOL   H16245846   2.579   4.379   4.925 -0.6837 -0.4720  1.0979
  284MOL     C145847   3.452   0.332   5.267  0.5304 -0.5054 -0.3634
  284MOL     C245848   3.356   0.429   5.195 -0.1190 -0.1955 -0.1749
  284MOL     N345849   3.393   0.412   5.051  0.3051  0.0495  0.5062
  284MOL     H445850   3.543   0.392   5.256  0.3165 -0.4275 -1.8396
  284MOL     H545851   3.482   0.236   5.225  0.1207 -0.9522  0.3635
  284MOL     H645852   3.384   0.534   5.210  1.3895 -0.7926  1.3558
  284MOL     H745853   3.388   0.500   5.003 -0.2982  1.4467  3.0267
  284MOL     H845854   3.493   0.398   5.054  0.6590  2.3748  0.4657
  284MOL     H945855   3.428   0.304   5.370 -0.0777 -0.0600 -0.3883
  284MOL    C1045856   3.211   0.393   5.241 -0.0764  0.7175  0.0010
  284MOL    C1145857   3.092   0.456   5.171 -0.1823 -0.7160  0.0232
  284MOL    N1245858   2.973   0.417   5.244 -0.0286 -0.0034 -0.4327
  284MOL    H1345859   3.209   0.284   5.230 -0.2110  0.8230 -1.0353
  284MOL    H1445860   3.209   0.419   5.347  3.2764  4.7475 -0.7997
  284MOL    H1545861   3.084   0.414   5.071  1.3502  0.6933 -0.7233
  284MOL    H1645862   2.903   0.488   5.229  0.1261  1.0271  3.2889
  284MOL    H1745863   2.982   0.406   5.344 -0.5837 -0.4637 -0.4365
  284MOL    C1845864   3.115   0.609   5.170  0.1100  0.2126 -0.4548
  284MOL    C1945865   3.012   0.691   5.086  0.0472 -0.5328  0.0348
  284MOL    N2045866   3.043   0.829   5.109  1.0289  0.0910  0.4153
  284MOL    H2145867   3.118   0.643   5.273 -0.8668 -2.3844  0.4589
  284MOL    H2245868   3.213   0.629   5.126  2.1189 -0.4833  3.4994
  284MOL    H2345869   2.912   0.673   5.125  0.5415  0.3285  1.7709
  284MOL    H2445870   3.039   0.855   5.206  0.9155 -2.4097  1.0994
  284MOL    H2545871   2.979   0.889   5.058 -2.6023 -1.9775  2.3689
  284MOL    C2645872   3.018   0.675   4.934 -0.4371  0.2589  0.1936
  284MOL    C2745873   2.888   0.619   4.870 -0.2752 -0.4169  0.4630
  284MOL    N2845874   2.898   0.619   4.725  0.0280  0.0105 -0.2935
  284MOL    H2945875   3.051   0.758   4.872 -3.4656  2.0063  0.8251
  284MOL    H3045876   3.096   0.601   4.912 -0.1689  0.2563  1.1158
  284MOL    H3145877   2.798   0.678   4.884 -0.4544 -1.2324  2.8284
  284MOL    H3245878   2.958   0.691   4.688 -0.2975 -0.3213 -1.4760
  284MOL    H3345879   2.811   0.613   4.675  0.4629  0.6573 -1.1342
  284MOL    C3445880   2.846   0.479   4.919 -0.1425  0.0243 -0.8028
  284MOL    C3545881   2.702   0.440   4.894 -0.4223  0.2801  0.3363
  284MOL    N3645882   2.700   0.296   4.892 -0.0490  0.3313 -1.3629
  284MOL    H3745883   2.920   0.419   4.864  0.9058  1.0353 -0.5138
  284MOL    H3845884   2.873   0.463   5.023 -0.0205 -1.2009 -1.0036
  284MOL    H3945885   2.686   0.467   4.790  0.9457 -0.1849 -0.0148
  284MOL    H4045886   2.755   0.248   4.963 -0.8597  0.6655 -0.4947
  284MOL    H4145887   2.604   0.267   4.904  0.1088  0.8025  1.3233
  284MOL    C4245888   2.600   0.499   4.988 -0.4667  0.3988 -0.4028
  284MOL    C4345889   2.448   0.469   4.962 -0.2436 -0.0177  0.5677
  284MOL    N4445890   2.377   0.494   5.088 -0.1288 -0.5603  0.5053
  284MOL    H4545891   2.633   0.462   5.085  2.1044 -0.9865 -1.7455
  284MOL    H4645892   2.618   0.603   5.015 -0.5727  0.0449  1.0858
  284MOL    H4745893   2.424   0.367   4.931  1.4988  0.0728 -1.2615
  284MOL    H4845894   2.279   0.471   5.081 -0.6043  1.6093 -0.3295
  284MOL    H4945895   2.419   0.428   5.153 -1.3443 -1.2859  0.5690
  284MOL    C5045896   2.396   0.569   4.851  0.0160 -0.5460  0.3381
  284MOL    C5145897   2.254   0.549   4.799 -0.0617 -0.1318 -0.4303
  284MOL    N5245898   2.168   0.665   4.813 -0.0105  0.2521 -0.1617
  284MOL    H5345899   2.419   0.671   4.883 -1.0446 -0.4693  0.8749
  284MOL    H5445900   2.451   0.566   4.757  0.3731  2.3080  0.4205
  284MOL    H5545901   2.207   0.489   4.877 -2.5964  2.0301 -0.2042
  284MOL    H5645902   2.190   0.710   4.900 -0.2082  2.2417 -1.0921
  284MOL    H5745903   2.071   0.642   4.829  0.5110  0.0628  2.9243
  284MOL    C5845904   2.234   0.489   4.654 -0.0214  0.2249  0.6042
  284MOL    C5945905   2.262   0.340   4.643  0.1565  0.3052 -0.2044
  284MOL    N6045906   2.151   0.275   4.702  0.3587 -0.2668  0.6686
  284MOL    H6145907   2.132   0.514   4.622 -0.1071 -1.6473 -0.6544
  284MOL    H6245908   2.297   0.547   4.586 -0.2898 -2.4298 -1.9842
  284MOL    H6345909   2.345   0.303   4.704 -0.4363 -1.6599 -0.5654
  284MOL    H6445910   2.179   0.183   4.733 -0.9907 -0.9987 -0.2719
  284MOL    H6545911   2.142   0.320   4.792  1.1929  0.0524  0.5957
  284MOL    C6645912   2.286   0.284   4.503 -0.1325  0.0377  0.1705
  284MOL    C6745913   2.438   0.283   4.462  0.2888  0.1572  0.8917
  284MOL    N6845914   2.439   0.251   4.321 -0.4796  0.0632  0.0511
  284MOL    H6945915   2.248   0.182   4.498  1.6241 -0.6700  0.8795
  284MOL    H7045916   2.235   0.347   4.430  0.7783  1.7239  0.9513
  284MOL    H7145917   2.490   0.205   4.520 -0.2467 -0.8579  0.0202
  284MOL    H7245918   2.410   0.158   4.294 -0.3972  0.7738 -2.6104
  284MOL    H7345919   2.391   0.321   4.266 -1.5800  1.7485  3.0306
  284MOL    C7445920   2.498   0.423   4.459 -0.2079  0.8473 -0.3727
  284MOL    C7545921   2.641   0.445   4.402 -0.3875 -1.0670 -0.5457
  284MOL    N7645922   2.667   0.590   4.396  0.7927 -0.1229 -0.3275
  284MOL    H7745923   2.435   0.488   4.400  1.4441  1.9608 -0.9557
  284MOL    H7845924   2.493   0.471   4.556  0.9710  3.3071 -1.4857
  284MOL    H7945925   2.642   0.414   4.298  2.4423 -1.4861 -0.4424
  284MOL    H8045926   2.583   0.636   4.363  0.8593  0.3215  0.1311
  284MOL    H8145927   2.742   0.614   4.332  1.1829 -1.0309 -0.2098
  284MOL    C8245928   2.754   0.384   4.481 -0.3430  0.3355 -0.0528
  284MOL    C8345929   2.763   0.231   4.466 -0.0973 -0.2813 -0.1082
  284MOL    N8445930   2.743   0.200   4.326  0.0305  0.4715  0.4744
  284MOL    H8545931   2.850   0.423   4.446 -0.9296  0.1981 -1.8728
  284MOL    H8645932   2.757   0.403   4.588  2.3879 -1.7780  0.2827
  284MOL    H8745933   2.690   0.179   4.527 -1.8710 -0.1753 -2.0766
  284MOL    H8845934   2.651   0.238   4.308  0.6220  1.0783 -1.4776
  284MOL    H8945935   2.801   0.255   4.263 -0.5012 -0.8600 -1.2337
  284MOL    C9045936   2.916   0.183   4.484 -0.1879 -0.3133  0.4877
  284MOL    C9145937   2.988   0.245   4.611 -0.4508 -0.1403 -0.1464
  284MOL    N9245938   2.924   0.197   4.732 -0.1778 -0.7140 -0.0622
  284MOL    H9345939   2.920   0.074   4.486 -1.5320 -0.3533  1.4717
  284MOL    H9445940   2.977   0.220   4.402  2.3041  0.8673  2.7572
  284MOL    H9545941   2.976   0.353   4.610  2.0282  0.2120  2.5939
  284MOL    H9645942   2.964   0.231   4.818 -0.3778 -1.5373  0.3609
  284MOL    H9745943   2.830   0.234   4.744 -0.2704 -0.3326 -1.8170
  284MOL    C9845944   3.143   0.211   4.625 -0.1765  0.3566 -0.1506
  284MOL    C9945945   3.207   0.319   4.711  0.1602 -0.8161  0.1773
  284MOL   N10045946   3.281   0.256   4.818  0.0333  0.2393  0.0433
  284MOL   H10145947   3.167   0.112   4.664 -0.4860 -0.0154 -0.8847
  284MOL   H10245948   3.191   0.215   4.527  0.4185 -2.6359 -0.0389
  284MOL   H10345949   3.125   0.376   4.755  1.4523 -0.2119  1.8694
  284MOL   H10445950   3.220   0.186   4.856  0.6814 -0.9388 -1.0506
  284MOL   H10545951   3.301   0.315   4.897  1.8013 -0.5490  0.2028
  284MOL   C10645952   3.299   0.430   4.642  0.4847  0.3847 -0.6097
  284MOL   C10745953   3.253   0.506   4.517 -0.6872 -0.2340  0.0828
  284MOL   N10845954   3.361   0.603   4.504  0.2977  0.3455  0.2011
  284MOL   H10945955   3.309   0.502   4.724 -0.7579  1.0988 -1.0763
  284MOL   H11045956   3.399   0.394   4.618  0.5280  0.1765 -0.1304
  284MOL   H11145957   3.157   0.556   4.529 -0.7986 -0.7878  1.6727
  284MOL   H11245958   3.332   0.692   4.466  0.1250  0.8148  1.4053
  284MOL   H11345959   3.418   0.565   4.430  1.5838 -1.8881  2.2689
  284MOL   C11445960   3.251   0.427   4.385 -0.4149 -0.6553  0.9919
  284MOL   C11545961   3.203   0.509   4.262  0.0778  0.6987 -0.4770
  284MOL   N11645962   3.238   0.436   4.143  0.4050  0.6371 -0.7257
  284MOL   H11745963   3.349   0.385   4.362 -0.1921 -0.1359  0.9963
  284MOL   H11845964   3.180   0.345   4.383 -2.6911  1.2549 -3.3678
  284MOL   H11945965   3.268   0.596   4.264  0.9036  0.1077 -1.3219
  284MOL   H12045966   3.188   0.348   4.138  0.7012  0.1814  2.6456
  284MOL   H12145967   3.326   0.395   4.174 -0.0022  0.7976  0.6981
  284MOL   C12245968   3.053   0.553   4.262 -0.4326 -0.4463 -0.3763
  284MOL   C12345969   3.013   0.671   4.162 -0.0033 -0.3159  0.8468
  284MOL   N12445970   2.868   0.700   4.169  0.4838  0.3840 -0.2196
  284MOL   H12545971   2.992   0.466   4.239 -0.2372 -0.3564 -1.2558
  284MOL   H12645972   3.023   0.581   4.363  1.3002 -0.8529  0.2739
  284MOL   H12745973   3.039   0.641   4.061  1.5029  1.4635  0.6886
  284MOL   H12845974   2.830   0.636   4.100 -2.0330  0.5192  0.9562
  284MOL   H12945975   2.853   0.783   4.113  0.2896  0.0274 -0.7023
  284MOL   C13045976   3.086   0.810   4.185  0.1242 -0.1482  0.2809
  284MOL   C13145977   3.066   0.874   4.323  0.0532 -0.2417  0.2664
  284MOL   N13245978   3.178   0.839   4.414  0.0251  0.1448  0.1704
  284MOL   H13345979   3.189   0.789   4.157  0.3595 -0.8869  1.6497
  284MOL   H13445980   3.049   0.877   4.108 -0.7472  0.2723  1.0609
  284MOL   H13545981   2.970   0.852   4.370 -0.1774  1.6226  0.6911
  284MOL   H13645982   3.146   0.874   4.503  1.0828 -0.6935  0.8819
  284MOL   H13745983   3.174   0.738   4.418 -0.1414 -0.2005 -5.1345
  284MOL   C13845984   3.078   1.032   4.303  0.1147  0.0833 -0.2910
  284MOL   C13945985   3.030   1.132   4.415  0.4221 -0.0423 -0.4593
  284MOL   N14045986   3.003   1.257   4.350 -0.3405 -0.1385  0.0668
  284MOL   H14145987   3.179   1.052   4.270  0.4732 -0.5616  0.3928
  284MOL   H14245988   3.021   1.057   4.213  3.6926  1.6298 -2.2117
  284MOL   H14345989   3.109   1.136   4.489  1.2202 -1.6102 -1.1877
  284MOL   H14445990   2.978   1.254   4.252 -1.3312  2.1546  0.2254
  284MOL   H14545991   3.092   1.304   4.346 -0.7593  0.6376 -0.1975
  284MOL   C14645992   2.899   1.098   4.493  0.4038  0.0199 -0.3493
  284MOL   C14745993   2.910   1.003   4.614  0.5212  0.5701  0.2658
  284MOL   N14845994   3.000   1.052   4.717 -0.0600 -0.7130  0.1045
  284MOL   H14945995   2.864   1.188   4.544 -0.3122 -1.9451  2.7270
  284MOL   H15045996   2.839   1.058   4.411  0.2671 -1.4126  0.4288
  284MOL   H15145997   2.958   0.911   4.581  3.6374  2.2231 -0.0016
  284MOL   H15245998   3.021   0.979   4.784  2.9468 -0.1963 -0.2217
  284MOL   H15345999   3.085   1.067   4.665  0.6766  1.8465  1.9502
  284MOL   C15446000   2.768   0.987   4.677  0.3305  0.1432  0.3748
  284MOL   C15546001   2.673   0.907   4.585  0.3128 -0.4574  0.1896
  284MOL   N15646002   2.536   0.922   4.634 -0.0644  0.1940  0.1734
  284MOL   H15746003   2.775   0.941   4.776  0.1474  3.7481  2.1257
  284MOL   H15846004   2.723   1.084   4.696 -0.1307  0.2883 -1.3576
  284MOL   H15946005   2.695   0.800   4.573 -0.0322 -0.5943  0.7481
  284MOL   H16046006   2.476   0.874   4.568 -0.1872 -0.8141  1.0216
  284MOL   H16146007   2.511   1.020   4.627 -2.0915 -0.3073  0.1499
  284MOL   H16246008   2.669   0.954   4.487  2.8504  0.9658  0.7170
  285MOL     C146009   0.302   6.940   1.744 -0.3322 -0.1751 -0.9073
  285MOL     C246010   0.291   7.083   1.669 -0.5419  0.3245 -0.0082
  285MOL     N346011   0.400   7.174   1.704  0.1270  0.3492  0.3513
  285MOL     H446012   0.406   6.910   1.729 -0.5033 -0.9101 -0.6245
  285MOL     H546013   0.226   6.873   1.705  1.6583 -2.2376 -1.3766
  285MOL     H646014   0.196   7.123   1.706 -0.3944  1.6324 -1.0069
  285MOL     H746015   0.415   7.165   1.804 -2.2295  1.1746  0.8052
  285MOL     H846016   0.489   7.151   1.663 -0.2751 -3.1918  1.2692
  285MOL     H946017   0.270   6.945   1.848 -2.1827  0.3249 -1.4860
  285MOL    C1046018   0.283   7.071   1.513 -0.3121  0.0651 -0.2473
  285MOL    C1146019   0.152   7.008   1.456  0.4032  0.4020 -0.1794
  285MOL    N1246020   0.044   7.102   1.471 -0.4593  0.1211 -0.4706
  285MOL    H1346021   0.299   7.169   1.468  0.2194 -0.8520 -2.1238
  285MOL    H1446022   0.374   7.018   1.486  0.6683  1.0892  0.9912
  285MOL    H1546023   0.122   6.928   1.524 -0.6386  0.0100 -1.0969
  285MOL    H1646024   0.050   7.184   1.413 -0.0631 -0.7543 -1.6679
  285MOL    H1746025   0.045   7.140   1.565  0.7118 -0.7837 -0.1127
  285MOL    C1846026   0.163   6.972   1.305 -0.1727 -0.3308  0.1820
  285MOL    C1946027   0.258   6.852   1.273 -0.3430  0.6084  0.0872
  285MOL    N2046028   0.217   6.733   1.345  0.2088 -0.4449 -0.1223
  285MOL    H2146029   0.072   6.941   1.255  0.0819  2.5030 -2.1814
  285MOL    H2246030   0.198   7.062   1.254 -2.3390  0.0375 -0.6780
  285MOL    H2346031   0.359   6.886   1.299  0.4883  0.0276 -2.2077
  285MOL    H2446032   0.241   6.745   1.443  1.8664  0.1217 -0.5917
  285MOL    H2546033   0.279   6.660   1.313  0.3133 -0.9789  1.2621
  285MOL    C2646034   0.274   6.806   1.125 -0.0641  0.1407 -0.0255
  285MOL    C2746035   0.366   6.900   1.044 -0.2368  0.3750 -0.9084
  285MOL    N2846036   0.501   6.910   1.095  0.0845 -0.0562  0.3513
  285MOL    H2946037   0.311   6.703   1.131  0.2738  0.1698 -1.4337
  285MOL    H3046038   0.176   6.803   1.078 -0.0164 -0.0742 -0.1119
  285MOL    H3146039   0.322   7.000   1.042 -2.2866 -0.3851  2.3481
  285MOL    H3246040   0.496   6.937   1.192  0.4403  0.4757  0.2242
  285MOL    H3346041   0.510   7.003   1.057 -1.7591  0.0463  0.1162
  285MOL    C3446042   0.364   6.850   0.893  0.9253  0.4926 -0.0343
  285MOL    C3546043   0.249   6.911   0.817 -0.5140  0.1953 -0.5962
  285MOL    N3646044   0.289   7.051   0.800 -0.3441 -0.6012  0.6895
  285MOL    H3746045   0.457   6.867   0.837  0.6651  2.4049  0.0811
  285MOL    H3846046   0.367   6.741   0.887  0.5994  0.4971 -0.2872
  285MOL    H3946047   0.161   6.910   0.881 -1.8892  1.2754 -2.4398
  285MOL    H4046048   0.362   7.089   0.859  1.1447  0.7533 -1.9324
  285MOL    H4146049   0.213   7.098   0.847 -1.2904 -1.3131 -0.1153
  285MOL    C4246050   0.210   6.842   0.688 -0.5577 -0.2375 -0.0489
  285MOL    C4346051   0.085   6.760   0.701  0.0323 -0.0072  0.0050
  285MOL    N4446052   0.037   6.725   0.566  0.0516  0.4789  0.4023
  285MOL    H4546053   0.190   6.926   0.621  1.1429 -0.8678 -1.3831
  285MOL    H4646054   0.279   6.785   0.626  0.3934 -0.5760  1.3039
  285MOL    H4746055   0.004   6.820   0.740 -0.2931  0.5394 -1.4770
  285MOL    H4846056   7.232   6.666   0.580  1.7840 -1.7311  1.4991
  285MOL    H4946057   0.003   6.807   0.518  1.4164  1.3381  0.8873
  285MOL    C5046058   0.107   6.629   0.784 -0.2992  0.1804 -1.3168
  285MOL    C5146059   7.261   6.575   0.861 -0.0584 -0.4320 -0.2432
  285MOL    N5246060   7.166   6.528   0.763 -0.3628  1.0716 -0.7163
  285MOL    H5346061   0.160   6.551   0.730  1.8360  1.1013 -0.6268
  285MOL    H5446062   0.180   6.658   0.859 -1.4538 -1.1750  0.3516
  285MOL    H5546063   7.224   6.650   0.931  3.4877  1.2355 -0.0192
  285MOL    H5646064   7.134   6.443   0.806  1.3952  0.0642 -1.3672
  285MOL    H5746065   7.079   6.578   0.752 -0.8930  0.6163  1.2634
  285MOL    C5846066   0.025   6.450   0.959 -0.4462 -0.0484 -0.1122
  285MOL    C5946067   0.108   6.489   1.086  0.4253  0.3263 -0.7527
  285MOL    N6046068   0.025   6.570   1.173  0.4789 -0.1403 -0.1865
  285MOL    H6146069   7.205   6.406   0.982 -1.0900  2.1633  1.5915
  285MOL    H6246070   0.077   6.374   0.901 -0.7472 -1.5297  1.5546
  285MOL    H6346071   0.191   6.550   1.051 -0.0350  1.2111 -0.3446
  285MOL    H6446072   0.073   6.625   1.244  0.2774  1.5715 -1.3512
  285MOL    H6546073   7.235   6.511   1.222 -0.5966  1.9445  0.9742
  285MOL    C6646074   0.153   6.372   1.176 -0.6545  0.7574 -0.0915
  285MOL    C6746075   0.254   6.274   1.105  0.4837 -0.3266  0.4019
  285MOL    N6846076   0.367   6.349   1.052 -0.3561 -0.0893 -0.8829
  285MOL    H6946077   0.209   6.416   1.259  0.8666 -1.3831  0.0611
  285MOL    H7046078   0.078   6.302   1.212  0.3437 -0.2280  0.0993
  285MOL    H7146079   0.196   6.234   1.023  3.4737  0.0819 -2.0123
  285MOL    H7246080   0.428   6.287   1.001  0.2924  0.8022 -1.2081
  285MOL    H7346081   0.427   6.382   1.126  0.8726 -1.1339 -1.4042
  285MOL    C7446082   0.303   6.159   1.200 -0.4123  0.0920 -0.0016
  285MOL    C7546083   0.411   6.060   1.133 -0.3014 -0.7991 -1.0298
  285MOL    N7646084   0.454   5.985   1.249  1.2812  1.2119 -0.3924
  285MOL    H7746085   0.339   6.215   1.286  1.0189 -0.2250 -0.3944
  285MOL    H7846086   0.212   6.113   1.240 -0.0209 -0.6668  0.0289
  285MOL    H7946087   0.498   6.117   1.100 -0.7984 -0.3667 -1.6210
  285MOL    H8046088   0.487   6.053   1.316 -0.1662 -0.9124  2.5710
  285MOL    H8146089   0.549   5.949   1.243  0.8559 -0.0661  0.4400
  285MOL    C8246090   0.366   5.959   1.031  0.2145 -0.3097 -0.3910
  285MOL    C8346091   0.330   6.013   0.889  0.4910  0.6078 -0.2206
  285MOL    N8446092   0.448   5.990   0.806  0.0290 -0.0484  0.1200
  285MOL    H8546093   0.438   5.880   1.010 -1.9645 -2.5113  0.1616
  285MOL    H8646094   0.280   5.903   1.067  0.2255  1.2526  2.1311
  285MOL    H8746095   0.309   6.120   0.895  0.9249  0.5955  2.5437
  285MOL    H8846096   0.446   6.042   0.720  1.8909  0.5715  0.4247
  285MOL    H8946097   0.531   6.032   0.846  0.1763  0.7100 -0.9651
  285MOL    C9046098   0.209   5.932   0.828 -0.7112  0.4318  0.4319
  285MOL    C9146099   0.069   5.952   0.893  0.2289  0.0749 -0.0091
  285MOL    N9246100   0.028   6.086   0.852 -0.1165  0.0735 -0.6891
  285MOL    H9346101   0.200   5.949   0.721  0.1553 -1.6664 -0.0067
  285MOL    H9446102   0.228   5.826   0.845  0.4471  0.5748  0.0667
  285MOL    H9546103   0.072   5.951   1.002 -0.7741 -1.6219  0.0301
  285MOL    H9646104   0.033   6.092   0.752  0.7807  0.4758 -0.6303
  285MOL    H9746105   7.207   6.092   0.880  0.2228 -1.7634  1.0179
  285MOL    C9846106   7.236   5.844   0.852 -0.4221  0.7791 -0.4355
  285MOL    C9946107   7.203   5.740   0.962 -0.4154  0.7117  0.0270
  285MOL   N10046108   7.075   5.674   0.930  0.0562 -0.7801  0.2121
  285MOL   H10146109   7.136   5.886   0.844 -0.5517  0.7562  0.9856
  285MOL   H10246110   7.258   5.805   0.752 -0.4726 -0.5212  0.0552
  285MOL   H10346111   7.191   5.808   1.047  0.4266  1.9428 -0.8290
  285MOL   H10446112   7.113   5.587   0.896 -3.3724 -1.6747 -1.5247
  285MOL   H10546113   7.028   5.644   1.013 -0.3242 -0.4319  0.1223
  285MOL   C10646114   0.050   5.639   0.977 -0.0145 -0.0243 -0.7528
  285MOL   C10746115   0.097   5.627   1.131  0.3404 -0.7100 -0.9948
  285MOL   N10846116   7.264   5.649   1.223  0.6564  0.0379  0.3447
  285MOL   H10946117   0.005   5.541   0.959 -0.6369 -0.5932  3.2858
  285MOL   H11046118   0.138   5.650   0.914 -0.7321  1.5341 -1.5060
  285MOL   H11146119   0.162   5.713   1.144 -1.2092  0.4283 -0.6641
  285MOL   H11246120   7.221   5.735   1.191 -0.4827 -0.4931  0.4176
  285MOL   H11346121   0.031   5.682   1.308  1.6454 -0.7776  0.1608
  285MOL   C11446122   0.178   5.505   1.176  0.9445 -0.2082 -0.2262
  285MOL   C11546123   0.311   5.503   1.099  0.2756 -0.4437  0.2990
  285MOL   N11646124   0.410   5.599   1.152  0.8009  0.3104 -0.5983
  285MOL   H11746125   0.197   5.507   1.283  1.2411  0.7751 -0.2943
  285MOL   H11846126   0.110   5.421   1.163  2.8498 -1.6277 -1.3486
  285MOL   H11946127   0.287   5.520   0.994  0.8797 -1.8364 -0.0789
  285MOL   H12046128   0.376   5.693   1.163  1.9127  0.6756 -0.2108
  285MOL   H12146129   0.494   5.615   1.097  1.2661 -0.2941 -0.0763
  285MOL   C12246130   0.364   5.362   1.114  0.3846  0.2352 -0.4725
  285MOL   C12346131   0.280   5.250   1.047 -0.3856  0.0051 -0.6022
  285MOL   N12446132   0.368   5.167   0.973  0.5772  0.0241 -0.1911
  285MOL   H12546133   0.462   5.356   1.066  0.1633 -2.6135 -0.6255
  285MOL   H12646134   0.380   5.345   1.220  0.4144 -2.9357 -0.9471
  285MOL   H12746135   0.215   5.306   0.979 -0.1201 -0.0481 -0.9027
  285MOL   H12846136   0.357   5.184   0.874 -0.0328  0.0000 -0.1313
  285MOL   H12946137   0.339   5.070   0.974 -1.7969  0.6852 -1.2532
  285MOL   C13046138   0.195   5.165   1.146 -0.0549 -1.0962  0.3016
  285MOL   C13146139   0.104   5.051   1.098  0.2155  0.5329 -0.6972
  285MOL   N13246140   0.064   4.972   1.217 -0.1369 -0.1425 -0.2007
  285MOL   H13346141   0.268   5.118   1.211  0.8758 -1.2441 -0.8412
  285MOL   H13446142   0.140   5.231   1.214 -1.0415 -0.3056 -1.2152
  285MOL   H13546143   0.161   4.989   1.030  1.0947  0.5365  0.0256
  285MOL   H13646144   0.060   5.030   1.300  0.7543 -0.0120 -0.2514
  285MOL   H13746145   7.248   4.930   1.208 -0.9004  1.4193  0.0673
  285MOL   C13846146   7.256   5.084   1.020  0.5956 -0.5808  0.0356
  285MOL   C13946147   0.001   5.146   0.884  0.5158 -0.1645  0.1715
  285MOL   N14046148   0.083   5.065   0.801  0.0603 -0.5653 -0.1975
  285MOL   H14146149   7.186   5.002   1.009 -0.0279 -0.0246 -0.1410
  285MOL   H14246150   7.210   5.165   1.076 -0.1223 -1.4417  0.7092
  285MOL   H14346151   0.043   5.246   0.899  1.1373 -0.4780  0.5332
  285MOL   H14446152   0.175   5.061   0.841 -1.3424 -2.4983  2.9992
  285MOL   H14546153   0.092   5.108   0.710  0.5072  0.2943  0.2418
  285MOL   C14646154   7.142   5.150   0.810  0.0745 -0.6420 -0.4851
  285MOL   C14746155   7.030   5.230   0.875  0.5734  1.1676 -0.2405
  285MOL   N14846156   7.065   5.372   0.883 -0.2260 -0.2399 -0.4417
  285MOL   H14946157   7.166   5.195   0.713  0.9814  0.6211  0.3083
  285MOL   H15046158   7.102   5.054   0.776 -1.2334  0.1740 -1.3305
  285MOL   H15146159   7.022   5.196   0.978 -1.6246  2.1509 -0.0465
  285MOL   H15246160   6.996   5.421   0.828  0.4601 -0.9692 -1.9632
  285MOL   H15346161   7.054   5.396   0.981  0.4349 -1.0109 -0.1715
  285MOL   C15446162   6.884   5.210   0.808  0.0842  0.2472 -0.1218
  285MOL   C15546163   6.792   5.110   0.876  0.2913 -0.4675 -0.0048
  285MOL   N15646164   6.667   5.089   0.799 -0.1232  0.2944  0.3744
  285MOL   H15746165   6.828   5.303   0.802 -0.2615  0.1316  1.0972
  285MOL   H15846166   6.904   5.187   0.703  3.3033  0.6448  0.3537
  285MOL   H15946167   6.766   5.153   0.973 -1.1740  4.8456 -2.5647
  285MOL   H16046168   6.697   5.061   0.707 -1.0593  0.8670 -0.1116
  285MOL   H16146169   6.622   5.175   0.770  0.3477 -0.0619 -1.4597
  285MOL   H16246170   6.839   5.013   0.890  0.8982 -0.1773 -0.0367
  286MOL     C146171   2.030   1.541   1.555 -0.6343 -0.3706  0.0914
  286MOL     C246172   2.030   1.691   1.575 -0.3063  0.5076 -0.5276
  286MOL     N346173   2.147   1.748   1.511  0.4057 -0.8256 -0.4846
  286MOL     H446174   1.936   1.497   1.590  1.4690 -5.5469 -0.2461
  286MOL     H546175   2.118   1.501   1.604  2.0708  0.9928 -3.4685
  286MOL     H646176   2.043   1.698   1.683 -0.3237 -0.2946 -0.4716
  286MOL     H746177   2.151   1.848   1.527 -2.0182 -1.0794  2.3734
  286MOL     H846178   2.231   1.714   1.556  0.2328 -0.2433  0.2901
  286MOL     H946179   2.039   1.509   1.451  0.2816 -2.5702  0.8156
  286MOL    C1046180   1.897   1.749   1.505 -0.8690  0.2330 -0.1904
  286MOL    C1146181   1.853   1.894   1.543 -0.5008  0.8744 -0.1787
  286MOL    N1246182   1.762   1.942   1.445 -0.2974 -0.0242  0.7744
  286MOL    H1346183   1.911   1.725   1.400  0.5195 -1.6617  0.3856
  286MOL    H1446184   1.815   1.681   1.529  0.0711 -0.9820 -0.3937
  286MOL    H1546185   1.944   1.955   1.549  0.7956 -1.0378  0.0992
  286MOL    H1646186   1.804   1.926   1.354 -1.5919 -1.2940  0.3779
  286MOL    H1746187   1.766   2.043   1.449 -0.4449  0.1295 -1.7212
  286MOL    C1846188   1.783   1.903   1.679  0.8442  0.3989 -0.2800
  286MOL    C1946189   1.868   1.972   1.795 -0.6806 -0.6386 -0.1953
  286MOL    N2046190   1.877   2.117   1.774 -0.1148 -0.3406 -0.1765
  286MOL    H2146191   1.681   1.940   1.683  1.1489  1.2562 -0.4685
  286MOL    H2246192   1.767   1.800   1.712  0.5584  0.1666 -1.1437
  286MOL    H2346193   1.965   1.923   1.788 -0.3447  0.2485 -2.0121
  286MOL    H2446194   1.781   2.146   1.788  0.3574  1.2288 -0.1013
  286MOL    H2546195   1.915   2.150   1.861  2.0825 -1.7133 -0.5777
  286MOL    C2646196   1.798   1.948   1.932 -0.0594  0.0175 -0.5680
  286MOL    C2746197   1.853   1.831   2.010 -0.0397  0.4642 -0.5181
  286MOL    N2846198   1.998   1.842   2.021 -0.5567  0.1410 -0.1291
  286MOL    H2946199   1.815   2.038   1.990  2.3058 -0.1242 -0.9827
  286MOL    H3046200   1.690   1.940   1.927 -0.0299 -0.7510 -0.1001
  286MOL    H3146201   1.811   1.738   1.973 -2.4085  0.1573  2.6995
  286MOL    H3246202   2.038   1.808   1.934  0.4020  0.7484  0.0608
  286MOL    H3346203   2.028   1.772   2.087  0.2303  0.8039  0.2350
  286MOL    C3446204   1.804   1.830   2.165  0.5277  0.2517  0.0649
  286MOL    C3546205   1.792   1.687   2.227  0.2131  0.5612 -0.2676
  286MOL    N3646206   1.761   1.695   2.365 -0.0219 -0.4848  0.0754
  286MOL    H3746207   1.846   1.903   2.233 -0.6568 -0.0113  1.0968
  286MOL    H3846208   1.705   1.873   2.155  1.0444  1.1390 -1.4773
  286MOL    H3946209   1.887   1.638   2.210 -0.1595 -0.0242 -0.7118
  286MOL    H4046210   1.812   1.778   2.393 -0.3375 -0.8219  1.7350
  286MOL    H4146211   1.789   1.628   2.436 -1.3270 -1.5615 -0.4058
  286MOL    C4246212   1.691   1.580   2.168 -0.6727 -0.1137  0.1270
  286MOL    C4346213   1.739   1.431   2.176  0.0779 -0.4834 -0.6037
  286MOL    N4446214   1.667   1.368   2.286 -0.0450 -0.4728 -0.3585
  286MOL    H4546215   1.589   1.590   2.206 -1.4026  0.2720 -1.8598
  286MOL    H4646216   1.678   1.619   2.067  3.7420  1.5726  0.1254
  286MOL    H4746217   1.847   1.431   2.193 -0.3653  0.0565  2.5721
  286MOL    H4846218   1.578   1.414   2.276  0.2949  0.2841  0.0469
  286MOL    H4946219   1.703   1.410   2.370  1.2635  1.8156 -1.9756
  286MOL    C5046220   1.704   1.345   2.056  0.2415  0.3172 -0.2204
  286MOL    C5146221   1.805   1.375   1.938  0.0665  0.0944 -0.5033
  286MOL    N5246222   1.932   1.318   1.963 -0.0342  0.3365  0.1087
  286MOL    H5346223   1.712   1.238   2.074  1.3769  0.5233  0.5140
  286MOL    H5446224   1.605   1.377   2.025 -0.0103 -0.3124 -0.0782
  286MOL    H5546225   1.812   1.483   1.930 -0.3005  0.2758  1.3136
  286MOL    H5646226   1.977   1.300   1.874 -1.7653 -0.7541 -0.5687
  286MOL    H5746227   1.914   1.229   2.006  1.5634  0.4907  1.1233
  286MOL    C5846228   1.744   1.345   1.799 -0.2520 -0.6378 -0.2793
  286MOL    C5946229   1.624   1.431   1.759  0.8847  0.5162  0.3443
  286MOL    N6046230   1.666   1.567   1.751  0.3685  0.1287 -0.5476
  286MOL    H6146231   1.815   1.346   1.716  0.4828  1.1135  0.3509
  286MOL    H6246232   1.727   1.237   1.797 -0.9930 -0.5443  0.7428
  286MOL    H6346233   1.539   1.424   1.826 -0.5300  1.2853 -1.3415
  286MOL    H6446234   1.587   1.623   1.723 -1.3180 -1.5911  0.7187
  286MOL    H6546235   1.695   1.608   1.838  0.0650  1.1427 -0.9069
  286MOL    C6646236   1.575   1.404   1.617 -0.6613  0.6352 -0.3076
  286MOL    C6746237   1.502   1.267   1.612  0.3580  0.0277 -0.4427
  286MOL    N6846238   1.383   1.284   1.526 -0.0824  0.0332 -0.0836
  286MOL    H6946239   1.509   1.486   1.588  0.3650  2.2492  1.8361
  286MOL    H7046240   1.658   1.405   1.546 -1.6197 -0.9599 -1.4820
  286MOL    H7146241   1.468   1.244   1.713  0.7710  1.2375 -0.0138
  286MOL    H7246242   1.318   1.342   1.578  0.9712 -0.5736  1.9538
  286MOL    H7346243   1.333   1.196   1.530  0.4401 -0.2789 -0.3149
  286MOL    C7446244   1.596   1.157   1.550  0.2257  0.4839  0.0060
  286MOL    C7546245   1.540   1.017   1.568  0.0916  0.3877  0.0384
  286MOL    N7646246   1.579   0.940   1.449  0.0210  0.3596 -0.3017
  286MOL    H7746247   1.608   1.174   1.443 -1.1911  2.2559  0.0980
  286MOL    H7846248   1.697   1.164   1.588  0.6220 -0.3909 -0.8672
  286MOL    H7946249   1.431   1.014   1.568  0.0368  1.8793  0.3895
  286MOL    H8046250   1.524   0.855   1.451 -0.8715  0.9508  0.4622
  286MOL    H8146251   1.557   0.997   1.369  0.0479 -0.6434 -1.0301
  286MOL    C8246252   1.598   0.950   1.695  0.6798  0.7553  0.1296
  286MOL    C8346253   1.550   0.803   1.712  0.2770 -0.0733  0.5191
  286MOL    N8446254   1.629   0.713   1.619  0.8217 -0.2988  0.0677
  286MOL    H8546255   1.707   0.948   1.691  0.7019  0.2994  0.9241
  286MOL    H8646256   1.557   1.008   1.778 -0.8809 -0.7617  0.4427
  286MOL    H8746257   1.444   0.798   1.686  0.1963  4.2433 -0.3750
  286MOL    H8846258   1.661   0.769   1.540  0.1066  0.2474  0.1608
  286MOL    H8946259   1.721   0.692   1.655  1.1981  1.9554  0.4984
  286MOL    C9046260   1.578   0.753   1.845 -0.5088 -0.8571 -0.0816
  286MOL    C9146261   1.520   0.615   1.869  0.4757  0.5071 -0.2851
  286MOL    N9246262   1.592   0.543   1.975 -0.0595 -0.3237 -0.0009
  286MOL    H9346263   1.686   0.759   1.857 -0.1798  0.9194 -3.4198
  286MOL    H9446264   1.529   0.819   1.917 -1.4993 -1.8614  0.1673
  286MOL    H9546265   1.546   0.565   1.776  0.4638  1.5455 -0.8540
  286MOL    H9646266   1.532   0.520   2.053 -0.4738  0.0938 -0.1895
  286MOL    H9746267   1.629   0.451   1.955  0.0938 -0.5544  1.3023
  286MOL    C9846268   1.363   0.611   1.893 -0.3564  0.4310 -0.4622
  286MOL    C9946269   1.278   0.514   1.808  0.5437  0.5151  0.4448
  286MOL   N10046270   1.143   0.513   1.869  0.4830 -0.2336  0.0316
  286MOL   H10146271   1.342   0.579   1.995 -1.3600  0.9798 -0.4860
  286MOL   H10246272   1.319   0.710   1.884 -0.9557  0.1555 -0.5869
  286MOL   H10346273   1.326   0.418   1.824 -0.0061  0.2280  0.3888
  286MOL   H10446274   1.092   0.437   1.827  1.9543  0.4653 -3.1450
  286MOL   H10546275   1.139   0.495   1.968 -1.5514  2.0932  0.4319
  286MOL   C10646276   1.265   0.546   1.654 -0.4237  1.2442  0.3706
  286MOL   C10746277   1.215   0.432   1.558  0.0245  0.2712  1.1232
  286MOL   N10846278   1.192   0.485   1.427  0.3078  0.3312  0.0748
  286MOL   H10946279   1.205   0.634   1.632 -1.6085  0.2278 -0.4969
  286MOL   H11046280   1.364   0.568   1.613 -0.2127 -0.6347 -0.1779
  286MOL   H11146281   1.120   0.386   1.585 -1.5348  0.9854 -2.8513
  286MOL   H11246282   1.112   0.546   1.428  0.0419  0.2253 -4.3876
  286MOL   H11346283   1.167   0.417   1.357 -0.2436  0.0961  0.5008
  286MOL   C11446284   1.322   0.320   1.545 -0.4916  0.6485  0.6911
  286MOL   C11546285   1.267   0.184   1.502  0.3233  1.1868  0.0901
  286MOL   N11646286   1.367   0.078   1.512 -0.1982 -0.1718  0.0887
  286MOL   H11746287   1.399   0.351   1.474 -1.8658  1.3217 -0.5302
  286MOL   H11846288   1.370   0.306   1.642  0.4268 -0.5435  0.0865
  286MOL   H11946289   1.230   0.177   1.399  0.1023  0.0265  0.2510
  286MOL   H12046290   1.457   0.111   1.482  0.1065 -0.2816  0.8778
  286MOL   H12146291   1.342   0.009   1.442  0.1337 -0.1768 -0.0262
  286MOL   C12246292   1.147   0.129   1.591 -0.0180  0.0426  0.8454
  286MOL   C12346293   1.009   0.145   1.529  0.5981  0.0603  0.4707
  286MOL   N12446294   0.988   0.022   1.453 -0.5627 -0.4659  0.8618
  286MOL   H12546295   1.159   0.025   1.621 -1.2237 -0.0558  1.0212
  286MOL   H12646296   1.160   0.188   1.682  0.0820  1.8529 -0.3075
  286MOL   H12746297   1.022   0.221   1.453 -0.5191  1.0134  1.2085
  286MOL   H12846298   0.968   7.214   1.504 -2.1049 -0.8920 -0.4010
  286MOL   H12946299   1.063   0.004   1.388  1.3370  5.2874  1.1615
  286MOL   C13046300   0.888   0.166   1.638  0.3670  0.1715 -0.1442
  286MOL   C13146301   0.757   0.193   1.561 -0.2248 -0.3470 -0.0776
  286MOL   N13246302   0.652   0.196   1.662  0.7305 -0.1884  0.3727
  286MOL   H13346303   0.882   0.078   1.701 -1.0731  0.4372  0.1071
  286MOL   H13446304   0.910   0.254   1.698  2.2097  0.5219 -1.3050
  286MOL   H13546305   0.735   0.107   1.497  0.7285  0.1980 -1.1453
  286MOL   H13646306   0.589   0.121   1.640  2.1978 -0.8456 -1.7672
  286MOL   H13746307   0.686   0.163   1.751 -1.3563  1.4565  1.8395
  286MOL   C13846308   0.756   0.316   1.471  0.5251  0.1052 -0.5091
  286MOL   C13946309   0.624   0.363   1.408  0.2021 -0.5779  0.2809
  286MOL   N14046310   0.654   0.487   1.344 -0.4531  0.3850 -0.5505
  286MOL   H14146311   0.793   0.396   1.535 -1.6647 -0.5676  1.6557
  286MOL   H14246312   0.835   0.306   1.396 -0.4783 -1.3962 -1.4038
  286MOL   H14346313   0.558   0.394   1.489  0.7863  1.7754 -0.1133
  286MOL   H14446314   0.567   0.510   1.297 -1.4711 -0.1798  1.0171
  286MOL   H14546315   0.662   0.547   1.425 -0.5708 -0.6679  0.2552
  286MOL   C14646316   0.551   0.274   1.303  0.2615 -0.2575 -0.0960
  286MOL   C14746317   0.500   0.137   1.347  0.0721  0.3117  0.3731
  286MOL   N14846318   0.385   0.166   1.434 -0.6376  1.1960 -0.1772
  286MOL   H14946319   0.471   0.339   1.268 -0.2690 -0.5470  0.5801
  286MOL   H15046320   0.619   0.253   1.220  0.9396  0.1181  0.3650
  286MOL   H15146321   0.577   0.083   1.402 -0.0022 -0.6556 -0.4577
  286MOL   H15246322   0.349   0.082   1.476 -0.6499 -0.3689 -3.2234
  286MOL   H15346323   0.405   0.235   1.506 -2.1556  1.2349  0.2171
  286MOL   C15446324   0.441   0.040   1.233 -0.7684 -0.4275 -0.1230
  286MOL   C15546325   0.546   0.005   1.121 -0.2561  0.5448 -0.1524
  286MOL   N15646326   0.493   7.203   1.012 -0.5862  0.0238  0.0852
  286MOL   H15746327   0.417   7.217   1.274 -0.5709 -0.7302 -0.7244
  286MOL   H15846328   0.354   0.077   1.180 -0.1295  2.3484  0.7120
  286MOL   H15946329   0.627   7.227   1.170  1.0427  3.0341  0.5120
  286MOL   H16046330   0.567   7.173   0.950 -0.9482  0.5007 -0.5828
  286MOL   H16146331   0.441   7.263   0.949  0.4779  0.8669 -0.0005
  286MOL   H16246332   0.595   0.095   1.083 -0.0283  1.7480  2.8623
  287MOL     C146333   0.127   6.957   4.868 -0.2455  0.8573 -0.0107
  287MOL     C246334   0.233   7.075   4.870  0.0496  0.1416 -0.0161
  287MOL     N346335   0.188   7.166   4.978 -0.1160 -0.7945  0.7397
  287MOL     H446336   0.022   6.983   4.880 -0.4250  1.4831 -2.5353
  287MOL     H546337   0.154   6.889   4.948 -1.1594  1.5196  0.8787
  287MOL     H646338   0.231   7.128   4.775 -2.0916 -1.8410 -1.1392
  287MOL     H746339   0.223   7.261   4.968  2.6093 -1.9994 -2.2720
  287MOL     H846340   0.238   7.153   5.065 -1.8329 -1.7468  1.6029
  287MOL     H946341   0.147   6.894   4.781  2.1826 -0.8316  1.7172
  287MOL    C1046342   0.383   7.042   4.901 -0.0942 -0.9114 -0.0759
  287MOL    C1146343   0.471   6.995   4.783  0.1648 -0.1190 -0.0510
  287MOL    N1246344   0.609   7.030   4.810  0.5969 -0.4348  0.6639
  287MOL    H1346345   0.418   7.133   4.950  0.4622 -1.7005  1.0039
  287MOL    H1446346   0.382   6.966   4.979 -0.8637  0.4892  1.3258
  287MOL    H1546347   0.426   7.051   4.700  2.8537  1.4778 -0.4801
  287MOL    H1646348   0.643   6.962   4.876  1.1494  0.1923  1.0325
  287MOL    H1746349   0.667   7.012   4.729 -0.0467  1.7835 -0.3308
  287MOL    C1846350   0.455   6.853   4.730 -0.4380 -0.4282 -1.0762
  287MOL    C1946351   0.531   6.825   4.600 -0.4309 -0.7164 -0.4295
  287MOL    N2046352   0.674   6.819   4.619 -0.3957  0.3445  0.4424
  287MOL    H2146353   0.468   6.777   4.807 -0.2044 -0.5706 -1.2543
  287MOL    H2246354   0.348   6.852   4.712 -0.6672  0.0144  0.1985
  287MOL    H2346355   0.508   6.902   4.528 -2.0582 -0.7646  0.0176
  287MOL    H2446356   0.706   6.765   4.698 -2.4072 -2.4776 -0.5656
  287MOL    H2546357   0.717   6.773   4.540  0.6563  0.2078  1.0991
  287MOL    C2646358   0.475   6.693   4.538 -0.3807  0.3498 -0.1560
  287MOL    C2746359   0.330   6.686   4.488 -0.0373  0.2743 -0.1774
  287MOL    N2846360   0.324   6.794   4.387  0.1232 -0.3479 -0.1288
  287MOL    H2946361   0.534   6.665   4.451 -1.6793  0.2234 -1.0079
  287MOL    H3046362   0.487   6.606   4.603  1.2389 -0.2184 -1.1819
  287MOL    H3146363   0.260   6.695   4.571  0.5180  0.8716  0.2264
  287MOL    H3246364   0.352   6.751   4.300 -0.2869  1.9904 -1.4545
  287MOL    H3346365   0.231   6.830   4.374 -0.1241 -0.8930  0.1388
  287MOL    C3446366   0.294   6.550   4.420 -0.1070 -0.2905 -0.3331
  287MOL    C3546367   0.282   6.427   4.521  0.7732  0.1558  0.1656
  287MOL    N3646368   0.152   6.363   4.491  0.3597  0.1655  0.0199
  287MOL    H3746369   0.195   6.569   4.380 -1.7429 -2.3154  2.5434
  287MOL    H3846370   0.354   6.534   4.331 -0.1142 -0.4885 -0.3033
  287MOL    H3946371   0.274   6.470   4.620  2.2560 -2.1526  1.3363
  287MOL    H4046372   0.147   6.295   4.566 -0.5367  1.7277  1.4101
  287MOL    H4146373   0.170   6.307   4.408 -1.2933  1.8362 -1.5186
  287MOL    C4246374   0.417   6.349   4.515 -0.3435 -0.3876 -0.1495
  287MOL    C4346375   0.432   6.232   4.620  0.3369 -0.4120 -0.2797
  287MOL    N4446376   0.528   6.133   4.576  0.1025  0.2737  0.6180
  287MOL    H4546377   0.419   6.313   4.413 -2.2312 -0.1645 -0.2885
  287MOL    H4646378   0.498   6.422   4.514 -0.7619  0.0725 -0.6885
  287MOL    H4746379   0.341   6.173   4.628 -1.0350  1.8053  0.9762
  287MOL    H4846380   0.500   6.043   4.614 -0.4595  0.8198  1.5345
  287MOL    H4946381   0.540   6.118   4.477 -1.4632  0.0115  0.4400
  287MOL    C5046382   0.456   6.292   4.761 -0.4305  1.1257 -0.6624
  287MOL    C5146383   0.324   6.300   4.846 -0.2675  0.5436 -0.1593
  287MOL    N5246384   0.286   6.165   4.888 -0.0611  0.6252 -0.5248
  287MOL    H5346385   0.538   6.245   4.815 -1.9574 -0.9568 -0.0625
  287MOL    H5446386   0.498   6.392   4.756  2.2063  0.0212 -1.5253
  287MOL    H5546387   0.251   6.331   4.771 -0.9188 -1.0877 -0.2155
  287MOL    H5646388   0.331   6.104   4.821  0.3148  1.9151 -1.4718
  287MOL    H5746389   0.339   6.146   4.971  0.1998  0.0784 -0.8129
  287MOL    C5846390   0.333   6.382   4.979  0.0788  0.4417  0.1196
  287MOL    C5946391   0.311   6.534   4.954 -0.2401  0.0964  0.3266
  287MOL    N6046392   0.172   6.569   4.937 -0.6076 -0.0189  0.0609
  287MOL    H6146393   0.260   6.347   5.052  0.2181  0.3968  0.2359
  287MOL    H6246394   0.436   6.360   5.006 -0.4410 -0.6573  1.2802
  287MOL    H6346395   0.363   6.567   4.864  0.2934 -1.0318  0.2253
  287MOL    H6446396   0.137   6.530   4.851 -0.5719 -0.6427  0.3222
  287MOL    H6546397   0.166   6.670   4.934  3.0291  0.4206  3.0414
  287MOL    C6646398   0.360   6.616   5.081  0.0185  0.4563 -0.2155
  287MOL    C6746399   0.516   6.622   5.112 -0.5389  0.2980  0.4358
  287MOL    N6846400   0.573   6.743   5.057  0.1668 -0.3562  0.4823
  287MOL    H6946401   0.322   6.718   5.082  0.0840  0.4841  0.6076
  287MOL    H7046402   0.309   6.571   5.167 -0.1479  0.1599 -0.4675
  287MOL    H7146403   0.561   6.540   5.055  0.2601  2.1013 -1.5968
  287MOL    H7246404   0.665   6.757   5.096 -0.8462  1.9574  2.1850
  287MOL    H7346405   0.522   6.825   5.085  1.8787  1.0597 -0.4395
  287MOL    C7446406   0.533   6.610   5.258 -0.0717  0.6640  0.0450
  287MOL    C7546407   0.673   6.617   5.317  0.1719  0.0161 -0.1257
  287MOL    N7646408   0.663   6.628   5.462  1.2296 -0.3277 -0.2328
  287MOL    H7746409   0.470   6.690   5.296 -0.3889 -0.5644  2.1633
  287MOL    H7846410   0.480   6.522   5.295  0.9339 -0.2187 -0.5655
  287MOL    H7946411   0.715   6.714   5.290  0.7234 -0.7198 -2.0163
  287MOL    H8046412   0.755   6.656   5.492  1.3943 -0.0683 -0.9711
  287MOL    H8146413   0.600   6.701   5.493  1.7633 -0.0838  0.2935
  287MOL    C8246414   0.775   6.505   5.292  0.0766 -0.2859  0.7808
  287MOL    C8346415   0.831   6.489   5.147 -0.0527 -0.3136 -0.5645
  287MOL    N8446416   0.898   6.613   5.110 -0.1906  0.2544 -0.7570
  287MOL    H8546417   0.857   6.533   5.358  0.9911  0.7879 -0.7890
  287MOL    H8646418   0.736   6.413   5.336  0.0582 -0.3792  0.5683
  287MOL    H8746419   0.749   6.470   5.078 -0.9724 -0.3514  0.5290
  287MOL    H8846420   0.968   6.594   5.040 -0.0551 -1.2778 -0.2382
  287MOL    H8946421   0.964   6.640   5.181 -0.6804  1.2951 -0.6911
  287MOL    C9046422   0.936   6.383   5.149 -0.0291 -0.1725  0.1169
  287MOL    C9146423   0.879   6.245   5.138  0.4859  1.2312  0.8970
  287MOL    N9246424   0.841   6.215   4.998 -0.1900  0.2200 -0.6267
  287MOL    H9346425   1.015   6.398   5.075 -0.3654  0.4219 -0.1226
  287MOL    H9446426   0.998   6.398   5.238  0.4877 -1.8828  0.0629
  287MOL    H9546427   0.787   6.233   5.195 -0.3302 -1.0801 -0.7938
  287MOL    H9646428   0.788   6.284   4.946  0.0054  2.3363  1.8789
  287MOL    H9746429   0.922   6.191   4.942  0.8588 -1.3719  1.5076
  287MOL    C9846430   0.974   6.125   5.184 -0.7050 -0.2722  0.4315
  287MOL    C9946431   1.008   6.123   5.334  0.0751 -0.4015 -0.1563
  287MOL   N10046432   0.879   6.094   5.398 -0.2635 -0.1719 -0.5612
  287MOL   H10146433   0.916   6.035   5.164 -0.3524 -0.4362  0.1596
  287MOL   H10246434   1.058   6.123   5.115 -1.0539 -2.1537  0.0262
  287MOL   H10346435   1.049   6.221   5.360 -0.9216 -0.2177  0.7852
  287MOL   H10446436   0.850   6.004   5.363 -0.3972 -0.0706 -0.7149
  287MOL   H10546437   0.799   6.152   5.380  0.0553  0.2136 -0.7447
  287MOL   C10646438   1.112   6.013   5.356  0.3604 -0.4275 -0.0082
  287MOL   C10746439   1.216   6.031   5.469  0.1529 -0.0194 -0.0319
  287MOL   N10846440   1.293   5.904   5.481  0.4559  0.3824 -0.6048
  287MOL   H10946441   1.050   5.923   5.367 -1.1220  0.5174 -0.4884
  287MOL   H11046442   1.164   5.992   5.262 -2.7832 -0.2632 -1.8489
  287MOL   H11146443   1.158   6.030   5.562 -1.0178 -0.8260 -0.7661
  287MOL   H11246444   1.352   5.886   5.401 -0.4168 -1.2559 -0.8963
  287MOL   H11346445   1.352   5.901   5.563  0.1431  0.6259 -0.3676
  287MOL   C11446446   1.310   6.155   5.456  0.5561 -0.2792 -0.0211
  287MOL   C11546447   1.389   6.197   5.587  0.2879  0.5260  0.0252
  287MOL   N11646448   1.497   6.281   5.542  0.0113  0.6843  0.0655
  287MOL   H11746449   1.382   6.134   5.378  1.1854 -0.7244  0.6709
  287MOL   H11846450   1.266   6.251   5.430  0.1519 -0.2776  0.6388
  287MOL   H11946451   1.415   6.098   5.625 -0.1665  0.7794  1.0101
  287MOL   H12046452   1.574   6.222   5.511 -0.9208 -0.9480  0.7765
  287MOL   H12146453   1.536   6.321   5.625  1.2113 -1.5781  0.6423
  287MOL   C12246454   1.300   6.270   5.689  0.0550  0.1769  0.1232
  287MOL   C12346455   1.372   6.296   5.827 -0.5763  0.3388 -0.4543
  287MOL   N12446456   1.303   6.403   5.893  0.0319 -0.6528  0.0900
  287MOL   H12546457   1.265   6.362   5.643  0.7561  0.6027  0.4460
  287MOL   H12646458   1.207   6.217   5.712 -0.3582  0.0099 -1.8801
  287MOL   H12746459   1.471   6.337   5.805  0.3960 -1.5806  0.2147
  287MOL   H12846460   1.367   6.430   5.967 -0.7551  1.1705  0.1344
  287MOL   H12946461   1.228   6.350   5.933  0.0653  0.6712  1.9906
  287MOL   C13046462   1.389   6.177   5.930  0.2127  0.0073  0.0772
  287MOL   C13146463   1.495   6.070   5.887 -0.5830 -0.4407  1.1247
  287MOL   N13246464   1.623   6.105   5.953  0.2088 -0.2004  0.3486
  287MOL   H13346465   1.417   6.207   6.030  2.1799  0.0195 -0.4482
  287MOL   H13446466   1.294   6.124   5.938  0.3772 -0.2242  0.5067
  287MOL   H13546467   1.529   6.072   5.784  0.7076  0.8633  1.5666
  287MOL   H13646468   1.642   6.203   5.938  0.8529 -0.1839  1.2609
  287MOL   H13746469   1.607   6.085   6.051 -0.8404  2.3625  0.7409
  287MOL   C13846470   1.448   5.926   5.917 -0.3661  0.4030 -0.0380
  287MOL   C13946471   1.339   5.867   5.827 -0.5901  0.5693  0.1066
  287MOL   N14046472   1.404   5.779   5.727  0.4397  0.6003  0.5474
  287MOL   H14146473   1.529   5.854   5.918  2.2368  3.2583  0.4753
  287MOL   H14246474   1.412   5.932   6.020  0.3865  0.3564  0.2310
  287MOL   H14346475   1.287   5.946   5.774 -1.3245  1.7647  2.5306
  287MOL   H14446476   1.477   5.725   5.770  2.0185  2.9506  0.9415
  287MOL   H14546477   1.341   5.718   5.677 -1.8191  0.0755  3.9023
  287MOL   C14646478   1.221   5.796   5.903  0.0480  0.2894 -0.3256
  287MOL   C14746479   1.106   5.880   5.966 -0.4406 -0.0584 -0.0554
  287MOL   N14846480   0.977   5.848   5.906 -0.3084 -0.6589  0.1212
  287MOL   H14946481   1.168   5.722   5.843 -0.3551 -0.0437  0.4238
  287MOL   H15046482   1.275   5.732   5.973 -0.9975 -0.8730 -0.5493
  287MOL   H15146483   1.121   5.987   5.951  3.1942 -0.1310  2.4039
  287MOL   H15246484   0.985   5.860   5.806 -0.4024 -0.8500  0.0892
  287MOL   H15346485   0.917   5.928   5.920  1.2397  0.3934  0.8674
  287MOL   C15446486   1.081   5.843   6.111  0.3885 -0.4730  0.0866
  287MOL   C15546487   1.198   5.886   6.203 -1.2974  0.4149 -0.3351
  287MOL   N15646488   1.158   5.879   6.340 -0.5194  0.4029 -0.4506
  287MOL   H15746489   0.994   5.894   6.152 -0.6079 -0.7663 -1.5879
  287MOL   H15846490   1.064   5.735   6.118  3.0620 -1.0498 -1.4950
  287MOL   H15946491   1.214   5.993   6.189  0.9470 -0.1137 -2.1236
  287MOL   H16046492   1.229   5.917   6.400 -0.9309  1.3322 -0.5393
  287MOL   H16146493   1.132   5.785   6.367 -0.1107  0.4229  0.0037
  287MOL   H16246494   1.289   5.828   6.191 -0.5947  0.8864  2.3435
  288MOL     C146495   2.259   2.822   1.060  0.5716  0.2645 -0.2183
  288MOL     C246496   2.117   2.775   1.111 -0.5076 -0.5245  1.0240
  288MOL     N346497   2.043   2.896   1.154  0.0730 -0.2329  1.0594
  288MOL     H446498   2.244   2.900   0.985 -0.5660 -0.1028 -0.3736
  288MOL     H546499   2.332   2.749   1.027  1.5981  0.7267  0.9499
  288MOL     H646500   2.119   2.715   1.202  1.6334 -0.6055  0.9467
  288MOL     H746501   1.986   2.935   1.080  0.1001 -1.1330  0.5502
  288MOL     H846502   1.981   2.879   1.231  0.5012 -1.2549  1.1845
  288MOL     H946503   2.318   2.862   1.143  0.1868  0.7118 -0.1584
  288MOL    C1046504   2.025   2.704   1.000 -0.2884  0.9052  0.4649
  288MOL    C1146505   2.009   2.548   1.015 -1.0813 -0.5503 -0.0640
  288MOL    N1246506   1.902   2.503   0.918  0.1347  0.3689 -0.2840
  288MOL    H1346507   1.923   2.742   1.010  0.6209  3.0847  1.5987
  288MOL    H1446508   2.052   2.730   0.898 -1.3956 -0.1704 -0.1234
  288MOL    H1546509   1.978   2.532   1.118 -0.7648  0.7171  0.2463
  288MOL    H1646510   1.812   2.503   0.963  0.1201 -0.2738 -0.2994
  288MOL    H1746511   1.919   2.404   0.903 -0.3142  0.1711  0.4898
  288MOL    C1846512   2.139   2.472   0.985 -0.1959  0.1475 -0.5591
  288MOL    C1946513   2.125   2.316   1.009 -0.1787  0.6372 -0.3966
  288MOL    N2046514   2.241   2.263   0.944  0.0852 -0.0553 -0.1593
  288MOL    H2146515   2.171   2.488   0.883 -0.2320  3.1022 -0.1565
  288MOL    H2246516   2.212   2.514   1.054  0.2999  0.1041 -1.0604
  288MOL    H2346517   2.035   2.283   0.958  0.5813  0.0245 -1.3714
  288MOL    H2446518   2.262   2.175   0.988 -1.1622 -0.0227  0.5182
  288MOL    H2546519   2.315   2.321   0.979 -0.8999 -0.1640  2.1740
  288MOL    C2646520   2.119   2.266   1.158 -0.1656 -0.2442  0.0421
  288MOL    C2746521   2.076   2.122   1.183 -0.1486 -0.7760  0.2576
  288MOL    N2846522   2.078   2.088   1.323 -0.0290  0.7229 -0.3527
  288MOL    H2946523   2.216   2.281   1.205 -1.0435  0.7602  1.5726
  288MOL    H3046524   2.034   2.313   1.208 -1.3848  0.0266 -2.2206
  288MOL    H3146525   2.149   2.062   1.130 -0.3507  0.1921 -1.1326
  288MOL    H3246526   1.992   2.124   1.361  0.2093  2.1341 -1.1097
  288MOL    H3346527   2.057   1.989   1.334 -0.5557  0.8205 -0.4779
  288MOL    C3446528   1.936   2.073   1.130 -0.3598  0.0892  0.4997
  288MOL    C3546529   1.896   1.919   1.151  0.2491 -0.5246  0.5954
  288MOL    N3646530   1.759   1.900   1.110  0.0100 -0.3914 -0.3202
  288MOL    H3746531   1.860   2.132   1.181  0.2888  0.6361  0.8298
  288MOL    H3846532   1.928   2.096   1.023 -1.0446  0.7211  0.6837
  288MOL    H3946533   1.911   1.886   1.254  3.3043  2.5775  1.2333
  288MOL    H4046534   1.737   1.893   1.011  2.3397 -2.8965 -0.7175
  288MOL    H4146535   1.720   1.811   1.136 -2.6361  0.5030 -1.0384
  288MOL    C4246536   1.982   1.830   1.058  0.1158  0.3779 -0.2542
  288MOL    C4346537   2.107   1.768   1.119  0.2867 -0.3606  0.2773
  288MOL    N4446538   2.070   1.665   1.213  0.6328 -0.2770  0.0772
  288MOL    H4546539   1.920   1.747   1.025  0.7240 -0.1905 -0.0010
  288MOL    H4646540   2.004   1.891   0.970  0.5458  2.5850  1.3576
  288MOL    H4746541   2.165   1.848   1.165 -1.6328  0.0574  2.0783
  288MOL    H4846542   2.153   1.613   1.238  0.9403 -0.6890 -1.6760
  288MOL    H4946543   2.044   1.710   1.299  0.7959  2.0438 -1.0346
  288MOL    C5046544   2.199   1.701   1.023 -0.3089 -0.2482 -0.1487
  288MOL    C5146545   2.251   1.787   0.909  0.4143  0.0434 -0.1263
  288MOL    N5246546   2.393   1.770   0.905  0.1706  0.1913 -0.1580
  288MOL    H5346547   2.287   1.668   1.076  0.1544  0.2094 -0.6223
  288MOL    H5446548   2.155   1.614   0.974 -0.1034 -0.5859  0.2710
  288MOL    H5546549   2.227   1.891   0.934  0.8434  0.3357 -0.8918
  288MOL    H5646550   2.422   1.674   0.910 -0.3965  0.0839  1.1635
  288MOL    H5746551   2.427   1.798   0.814  0.8575 -0.0438  0.0270
  288MOL    C5846552   2.181   1.756   0.772 -0.4245 -0.1764  0.4913
  288MOL    C5946553   2.195   1.861   0.658  0.1918 -0.1524  0.7200
  288MOL    N6046554   2.119   1.815   0.540  0.7646 -0.1588 -0.0758
  288MOL    H6146555   2.235   1.674   0.724  1.1363  0.1406  1.6546
  288MOL    H6246556   2.078   1.719   0.775 -0.9199  0.8071 -2.5901
  288MOL    H6346557   2.298   1.868   0.625 -0.0490 -0.5440 -0.1400
  288MOL    H6446558   2.172   1.739   0.499 -1.6835 -2.6094  1.1365
  288MOL    H6546559   2.119   1.893   0.475 -0.4200 -0.5852 -0.6011
  288MOL    C6646560   2.139   2.005   0.704 -0.1616  0.4091 -0.2328
  288MOL    C6746561   2.198   2.128   0.626  0.2052 -0.0847  0.0174
  288MOL    N6846562   2.127   2.249   0.666  0.2810 -0.0230 -0.9717
  288MOL    H6946563   2.030   2.007   0.706 -0.2877 -3.7650  1.3881
  288MOL    H7046564   2.153   2.018   0.811 -0.6958 -2.6355  0.2405
  288MOL    H7146565   2.168   2.110   0.523  1.1483  0.1995 -0.3057
  288MOL    H7246566   2.173   2.330   0.627  0.1677 -1.2996 -3.8977
  288MOL    H7346567   2.147   2.261   0.764 -1.0205 -0.0927 -0.6850
  288MOL    C7446568   2.353   2.151   0.631 -0.3499  0.3509  0.5933
  288MOL    C7546569   2.428   2.168   0.502 -0.1864 -0.3905 -0.3541
  288MOL    N7646570   2.417   2.309   0.466 -0.4659 -0.2466 -0.6984
  288MOL    H7746571   2.386   2.230   0.700  0.6015  0.1404  0.3847
  288MOL    H7846572   2.390   2.062   0.682  1.7433  1.2716  0.7442
  288MOL    H7946573   2.370   2.106   0.434 -3.3003  0.4199  1.4410
  288MOL    H8046574   2.319   2.312   0.445 -0.7224  0.4117  0.5394
  288MOL    H8146575   2.444   2.318   0.369  2.8723  0.6814  0.2561
  288MOL    C8246576   2.580   2.142   0.526 -0.2168 -0.3507  0.1488
  288MOL    C8346577   2.635   1.999   0.483 -0.0118  0.5832 -0.3182
  288MOL    N8446578   2.772   2.000   0.445 -0.5023 -0.3624  0.0432
  288MOL    H8546579   2.625   2.205   0.450 -1.0447 -0.5712 -0.5289
  288MOL    H8646580   2.629   2.180   0.616  1.0403  0.7584 -0.9829
  288MOL    H8746581   2.570   1.962   0.403 -1.6508  0.7765  0.8942
  288MOL    H8846582   2.808   1.910   0.415  0.4559 -0.5623  1.7017
  288MOL    H8946583   2.812   2.018   0.536  1.1239  2.1059 -1.1310
  288MOL    C9046584   2.605   1.899   0.592  0.4706  0.2406  0.3931
  288MOL    C9146585   2.669   1.757   0.577 -0.4812  0.6360 -0.4959
  288MOL    N9246586   2.689   1.714   0.719 -0.1347  0.1190  0.3804
  288MOL    H9346587   2.628   1.946   0.688  2.7091  1.8259 -0.8658
  288MOL    H9446588   2.499   1.875   0.585  0.4051  0.4364  0.7204
  288MOL    H9546589   2.767   1.770   0.530 -0.5606  0.4662 -0.7101
  288MOL    H9646590   2.772   1.656   0.718  1.8587  2.7502  2.9066
  288MOL    H9746591   2.715   1.796   0.772 -0.3958 -1.4978  3.0815
  288MOL    C9846592   2.587   1.642   0.514 -0.3585 -0.1358 -0.5104
  288MOL    C9946593   2.539   1.674   0.371 -0.5381  0.3998 -0.1431
  288MOL   N10046594   2.632   1.620   0.275 -0.3056 -0.3682  0.1066
  288MOL   H10146595   2.630   1.542   0.518  1.3837  0.4956 -2.5592
  288MOL   H10246596   2.498   1.625   0.575  1.2202 -1.9877  1.3336
  288MOL   H10346597   2.538   1.780   0.342 -0.4317 -0.1487 -2.2611
  288MOL   H10446598   2.631   1.522   0.300  1.7469 -0.4213  0.1196
  288MOL   H10546599   2.717   1.666   0.305 -1.0902  0.3552  1.2218
  288MOL   C10646600   2.402   1.619   0.335 -0.0384 -0.4701  0.4335
  288MOL   C10746601   2.343   1.681   0.199 -0.0790 -0.4374 -0.0265
  288MOL   N10846602   2.221   1.616   0.164  0.6806 -0.1515  0.0531
  288MOL   H10946603   2.407   1.510   0.329  0.2747 -0.4223 -0.1763
  288MOL   H11046604   2.334   1.650   0.414 -0.0247 -0.0524  0.2820
  288MOL   H11146605   2.418   1.664   0.122  0.1033 -2.7098  0.6031
  288MOL   H11246606   2.209   1.608   0.064 -0.6028  2.5248 -0.0438
  288MOL   H11346607   2.231   1.516   0.176  0.2042 -0.3994 -1.5222
  288MOL   C11446608   2.324   1.831   0.202  0.0020  0.3383  0.3519
  288MOL   C11546609   2.276   1.892   0.071  0.0592 -0.4700 -1.3738
  288MOL   N11646610   2.190   1.997   0.109  0.1655  0.3223  0.2238
  288MOL   H11746611   2.260   1.846   0.289 -1.0269 -0.0002 -0.3291
  288MOL   H11846612   2.407   1.895   0.229 -0.2658  1.0572 -0.5065
  288MOL   H11946613   2.207   1.824   0.022 -1.7439 -0.1363  0.5975
  288MOL   H12046614   2.153   2.015   0.017 -0.5146  0.7371  0.5682
  288MOL   H12146615   2.106   1.961   0.153  0.4648  0.6144  1.0444
  288MOL   C12246616   2.392   1.934   7.251 -0.1544  0.3166 -0.9442
  288MOL   C12346617   2.341   1.989   7.114  0.1586 -0.6404 -0.1715
  288MOL   N12446618   2.452   2.020   7.031  0.2023 -0.6623 -0.8999
  288MOL   H12546619   2.449   2.013   0.024  0.7874  0.0155 -1.5573
  288MOL   H12646620   2.459   1.850   7.235  0.6163  0.9654 -1.1513
  288MOL   H12746621   2.286   2.083   7.123  0.6610 -0.3720  0.1519
  288MOL   H12846622   2.477   2.117   7.037  2.5563 -1.2476 -0.9199
  288MOL   H12946623   2.429   2.012   6.933 -0.8451 -0.3243 -0.6914
  288MOL   C13046624   2.252   1.895   7.030 -0.0332 -0.4584 -0.0111
  288MOL   C13146625   2.187   1.953   6.898  0.0440 -0.6255 -0.1225
  288MOL   N13246626   2.285   1.945   6.786 -0.3828  0.2013 -0.1749
  288MOL   H13346627   2.310   1.804   7.017  1.2967  0.1365  1.5664
  288MOL   H13446628   2.174   1.864   7.099  0.7415 -0.1797  0.9873
  288MOL   H13546629   2.165   2.058   6.916 -1.0241 -0.4214 -2.4943
  288MOL   H13646630   2.269   2.013   6.712 -1.0956  0.7110  0.4391
  288MOL   H13746631   2.304   1.861   6.735 -3.8161 -0.4180 -0.5472
  288MOL   C13846632   2.043   1.903   6.849 -0.4715 -0.3820  0.3367
  288MOL   C13946633   1.930   1.951   6.940 -0.5156  0.3717 -0.3708
  288MOL   N14046634   1.809   1.974   6.860 -0.5372  0.2171  0.2776
  288MOL   H14146635   2.025   1.926   6.744 -0.7707  0.6433  0.6139
  288MOL   H14246636   2.041   1.794   6.841 -0.5097 -0.3241 -0.4020
  288MOL   H14346637   1.951   2.053   6.971  1.6963  0.0152 -0.6234
  288MOL   H14446638   1.829   2.055   6.802  2.3811 -1.2390 -0.8871
  288MOL   H14546639   1.738   1.989   6.930 -0.5651  1.4467  0.0050
  288MOL   C14646640   1.890   1.844   7.041 -0.0005  0.1018 -0.1424
  288MOL   C14746641   1.853   1.899   7.186 -0.1494 -0.6052  0.6655
  288MOL   N14846642   1.738   1.992   7.180 -0.7842  0.5082  0.1604
  288MOL   H14946643   1.803   1.787   7.008 -1.3454  3.0494 -1.8465
  288MOL   H15046644   1.974   1.777   7.059 -0.5729 -0.3063  1.0317
  288MOL   H15146645   1.932   1.964   7.223 -0.5224  0.9507 -1.2109
  288MOL   H15246646   1.739   2.028   7.274  0.2666  0.9945 -0.0233
  288MOL   H15346647   1.763   2.074   7.127 -0.1171  1.1685  1.4720
  288MOL   C15446648   1.807   1.788   0.008  0.4612 -0.0507 -0.4023
  288MOL   C15546649   1.932   1.736   0.081 -0.5510  0.0341 -0.2722
  288MOL   N15646650   1.976   1.831   0.190  0.5398  0.0361 -0.1623
  288MOL   H15746651   1.735   1.809   0.086  0.3761  3.3666 -1.3086
  288MOL   H15846652   1.753   1.711   7.229  2.8213 -2.4504  0.5299
  288MOL   H15946653   2.015   1.706   0.017  0.3942  1.2379  0.3662
  288MOL   H16046654   1.903   1.820   0.260 -0.6831 -1.0206 -1.5729
  288MOL   H16146655   2.060   1.795   0.232 -0.3987 -1.9748  0.0808
  288MOL   H16246656   1.902   1.642   0.128  0.4804  0.0528  0.4409
  289MOL     C146657   5.562   0.419   3.114 -0.1242  0.4961  0.5123
  289MOL     C246658   5.528   0.270   3.089 -0.8341  0.6682 -0.3973
  289MOL     N346659   5.649   0.197   3.130  0.2711 -0.3781  0.6147
  289MOL     H446660   5.655   0.454   3.069 -0.6219  1.4684  0.2427
  289MOL     H546661   5.546   0.445   3.218 -0.3763 -1.4876  0.9915
  289MOL     H646662   5.510   0.258   2.982 -0.7761 -0.8254 -0.2463
  289MOL     H746663   5.656   0.099   3.107 -0.9567 -0.8178  2.0156
  289MOL     H846664   5.727   0.244   3.085 -1.3088  2.6157  0.8507
  289MOL     H946665   5.487   0.476   3.059 -1.1293 -0.1914  1.1645
  289MOL    C1046666   5.411   0.232   3.178  0.4753 -0.3106 -0.3190
  289MOL    C1146667   5.275   0.282   3.119 -0.8475 -0.2958 -0.5314
  289MOL    N1246668   5.249   0.215   2.991  0.0188 -0.2161  0.0951
  289MOL    H1346669   5.408   0.123   3.181 -1.3924 -0.3577 -2.8794
  289MOL    H1446670   5.424   0.267   3.281  0.1560  1.7982 -0.9840
  289MOL    H1546671   5.281   0.390   3.101  1.2254 -0.7596 -3.0107
  289MOL    H1646672   5.320   0.261   2.935  0.3460 -0.3400  0.3994
  289MOL    H1746673   5.260   0.114   2.990 -0.7767 -0.3029  0.0271
  289MOL    C1846674   5.152   0.232   3.202  0.7636 -0.0495 -0.4521
  289MOL    C1946675   5.130   0.292   3.337  0.0777  0.1887 -0.2047
  289MOL    N2046676   5.078   0.424   3.321  0.5770  0.0589 -0.5627
  289MOL    H2146677   5.052   0.229   3.159  0.7479  1.1281 -0.4896
  289MOL    H2246678   5.155   0.123   3.207 -1.1023 -0.1567 -1.3761
  289MOL    H2346679   5.226   0.294   3.390  0.1859  0.9312 -0.4306
  289MOL    H2446680   5.025   0.451   3.403  2.8797  2.7962  0.1382
  289MOL    H2546681   5.012   0.425   3.245 -1.7381 -2.0205  1.3367
  289MOL    C2646682   5.021   0.221   3.427 -0.8030 -0.1916 -0.2134
  289MOL    C2746683   5.029   0.269   3.573 -0.1324 -0.1863 -0.1452
  289MOL    N2846684   4.889   0.284   3.627 -0.1259 -0.6234  0.7425
  289MOL    H2946685   4.922   0.238   3.385 -0.6647 -1.9454 -1.3465
  289MOL    H3046686   5.041   0.114   3.432 -1.5469 -0.2883  0.7538
  289MOL    H3146687   5.084   0.363   3.579  0.5699 -0.5708 -0.5539
  289MOL    H3246688   4.838   0.342   3.563  0.5004 -1.3421 -0.4255
  289MOL    H3346689   4.883   0.336   3.713 -0.9644 -0.2672  0.4681
  289MOL    C3446690   5.095   0.169   3.667 -0.0291 -0.2207 -0.0850
  289MOL    C3546691   5.250   0.150   3.644 -0.6052 -0.2602  0.0810
  289MOL    N3646692   5.321   0.253   3.717  0.7431 -0.0979 -0.3390
  289MOL    H3746693   5.074   0.202   3.768  0.9324 -1.9665  0.7083
  289MOL    H3846694   5.043   0.074   3.658  0.8163 -0.4916 -2.5412
  289MOL    H3946695   5.281   0.147   3.540 -0.5850 -0.1222  0.0833
  289MOL    H4046696   5.355   0.237   3.811  1.2826  1.2677 -0.2841
  289MOL    H4146697   5.400   0.298   3.673  1.2461 -1.5656 -0.9661
  289MOL    C4246698   5.302   0.017   3.692  0.0482 -0.1825 -0.4531
  289MOL    C4346699   5.436   7.256   3.638 -0.7172  0.8464 -0.8084
  289MOL    N4446700   5.506   7.190   3.750  0.0865 -0.1768  0.8429
  289MOL    H4546701   5.295   0.019   3.801  0.5721  1.0159 -0.4302
  289MOL    H4646702   5.227   7.222   3.657 -0.4762  0.3705 -0.4390
  289MOL    H4746703   5.497   0.070   3.634 -1.2131  1.3336  1.5707
  289MOL    H4846704   5.590   7.244   3.767  0.1145 -0.8903  3.0539
  289MOL    H4946705   5.448   7.196   3.833  1.5690 -0.8842  1.9478
  289MOL    C5046706   5.433   7.169   3.513 -0.9353 -0.4387 -0.2640
  289MOL    C5146707   5.566   7.128   3.459 -0.7680  0.0237  0.0430
  289MOL    N5246708   5.551   7.057   3.332  0.2715 -0.1914 -0.0273
  289MOL    H5346709   5.378   7.077   3.533 -2.9545  0.6998 -0.4416
  289MOL    H5446710   5.379   7.215   3.430 -0.3317 -0.2617 -0.5578
  289MOL    H5546711   5.621   7.066   3.531 -1.3986  0.7422  1.1622
  289MOL    H5646712   5.509   7.115   3.262  1.4399 -0.0372 -0.6191
  289MOL    H5746713   5.484   6.984   3.349 -0.7481  1.0914  1.6479
  289MOL    C5846714   5.664   7.248   3.420 -0.2185 -0.2491  0.3712
  289MOL    C5946715   5.809   7.224   3.438  0.1408 -1.0079 -0.2189
  289MOL    N6046716   5.874   0.046   3.355  0.2568  0.1714 -0.1100
  289MOL    H6146717   5.633   0.008   3.321 -0.8950  0.2327  0.7542
  289MOL    H6246718   5.640   0.049   3.493  0.0240 -0.3953  0.6053
  289MOL    H6346719   5.829   7.127   3.392  0.1786 -0.9296 -0.3690
  289MOL    H6446720   5.885   0.127   3.413  1.8589 -0.2979  0.2859
  289MOL    H6546721   5.811   0.063   3.279 -1.5643  0.2127  1.3781
  289MOL    C6646722   5.863   7.228   3.583  0.8120  0.6515 -0.3025
  289MOL    C6746723   5.927   7.096   3.628  0.2466  0.3130  0.2649
  289MOL    N6846724   5.991   7.122   3.758 -0.5332 -0.2931  0.2790
  289MOL    H6946725   5.936   0.031   3.601  0.5861  0.9012 -0.4588
  289MOL    H7046726   5.776   7.245   3.647  2.4854  0.9460  1.9319
  289MOL    H7146727   6.003   7.059   3.559  0.9059  1.5267  0.3207
  289MOL    H7246728   6.055   7.200   3.758  2.5674 -2.6397  3.5466
  289MOL    H7346729   6.050   7.042   3.778  2.2834  1.1072 -2.0803
  289MOL    C7446730   5.823   6.984   3.659  0.3646  0.1372  0.1748
  289MOL    C7546731   5.886   6.846   3.698  0.7826 -0.4709 -0.1623
  289MOL    N7646732   5.818   6.788   3.816  0.0917 -0.2672  0.0148
  289MOL    H7746733   5.753   7.015   3.736  2.0235  1.3713  1.2327
  289MOL    H7846734   5.772   6.955   3.567 -0.5212  2.9107 -0.2341
  289MOL    H7946735   5.988   6.862   3.732  1.1933 -1.5894 -0.8817
  289MOL    H8046736   5.831   6.847   3.897  1.8148  0.6458 -0.8747
  289MOL    H8146737   5.853   6.700   3.851 -0.9512 -0.4529  0.5928
  289MOL    C8246738   5.871   6.739   3.591 -1.1739 -0.5176  0.2912
  289MOL    C8346739   5.932   6.769   3.450 -0.4229 -0.0521  0.7916
  289MOL    N8446740   6.077   6.741   3.460  0.7121 -0.3444 -0.1053
  289MOL    H8546741   5.918   6.649   3.631  0.8498  0.8640  1.1270
  289MOL    H8646742   5.769   6.711   3.564 -0.4370 -2.5658 -0.4764
  289MOL    H8746743   5.919   6.874   3.424  0.9373 -0.6569 -2.6817
  289MOL    H8846744   6.128   6.819   3.501 -1.0149  0.6796  0.1325
  289MOL    H8946745   6.125   6.721   3.373 -1.6515  1.8677 -1.9752
  289MOL    C9046746   5.878   6.671   3.338 -0.1077  0.7147  0.0512
  289MOL    C9146747   5.749   6.730   3.293 -0.5407 -0.0778 -0.2833
  289MOL    N9246748   5.789   6.808   3.183 -0.3976  0.0728  0.3983
  289MOL    H9346749   5.956   6.661   3.262  0.1192 -0.8057  0.4637
  289MOL    H9446750   5.863   6.573   3.385 -0.8352  1.7786  2.1275
  289MOL    H9546751   5.711   6.792   3.373 -0.4522  1.7266 -1.6171
  289MOL    H9646752   5.840   6.883   3.227  1.4846  0.1017 -1.7716
  289MOL    H9746753   5.697   6.841   3.158 -1.5813 -2.9997  0.4509
  289MOL    C9846754   5.648   6.622   3.248 -0.1440 -0.7458  0.3316
  289MOL    C9946755   5.556   6.566   3.360  0.5028 -0.3659  0.0588
  289MOL   N10046756   5.427   6.527   3.306  0.1565 -0.3503 -0.1582
  289MOL   H10146757   5.591   6.669   3.168  0.7499 -0.6100 -0.2231
  289MOL   H10246758   5.704   6.537   3.210 -1.2353 -1.2234 -0.2243
  289MOL   H10346759   5.552   6.647   3.433  1.1889 -1.0298  0.8327
  289MOL   H10446760   5.440   6.439   3.256  2.2389 -0.5643  0.7308
  289MOL   H10546761   5.382   6.492   3.389 -0.7064 -0.8106 -0.8035
  289MOL   C10646762   5.604   6.436   3.426 -0.3251 -0.1708 -0.4258
  289MOL   C10746763   5.543   6.420   3.571 -0.1117 -0.0589 -0.2518
  289MOL   N10846764   5.404   6.371   3.561 -0.1604 -0.7833  0.0960
  289MOL   H10946765   5.587   6.352   3.359 -2.0279  0.5243 -0.9006
  289MOL   H11046766   5.712   6.438   3.437 -0.4375  0.4864  0.6238
  289MOL   H11146767   5.528   6.521   3.608  1.2656 -0.0857  0.4170
  289MOL   H11246768   5.351   6.370   3.647  0.8294  0.4369  0.7368
  289MOL   H11346769   5.410   6.273   3.537 -0.1077 -0.0986 -2.8382
  289MOL   C11446770   5.613   6.312   3.654  0.4821  0.5828  0.1698
  289MOL   C11546771   5.742   6.371   3.718  0.0894 -0.0017  0.7743
  289MOL   N11646772   5.703   6.448   3.835 -0.2094  0.3624  0.1930
  289MOL   H11746773   5.544   6.268   3.727 -0.2408  1.2166 -0.1288
  289MOL   H11846774   5.631   6.241   3.573 -0.4018  1.3194 -0.6817
  289MOL   H11946775   5.792   6.433   3.644 -1.7099 -1.0915 -1.4280
  289MOL   H12046776   5.786   6.474   3.886 -0.0931  0.3412  0.0181
  289MOL   H12146777   5.669   6.540   3.812 -2.7135  0.1886  2.9856
  289MOL   C12246778   5.824   6.253   3.773  0.0457  0.4384 -0.8956
  289MOL   C12346779   5.962   6.300   3.817 -0.2754 -0.5238 -0.6551
  289MOL   N12446780   6.019   6.200   3.900  0.2462 -0.2673  0.2660
  289MOL   H12546781   5.773   6.211   3.860  0.7739  0.8466 -0.2765
  289MOL   H12646782   5.825   6.172   3.700 -1.4816  0.5982 -1.1158
  289MOL   H12746783   5.956   6.393   3.873 -1.6352 -0.8266 -0.2718
  289MOL   H12846784   6.112   6.236   3.917 -0.0311 -0.5222  2.4885
  289MOL   H12946785   5.976   6.193   3.991 -0.4477  1.6788  0.1107
  289MOL   C13046786   6.056   6.297   3.702 -0.7861  0.3617  0.3017
  289MOL   C13146787   6.079   6.422   3.616  0.3382 -0.4063  0.4988
  289MOL   N13246788   6.132   6.536   3.685 -0.0822  0.2388 -0.4563
  289MOL   H13346789   6.156   6.265   3.731  0.3027  0.4619 -3.1050
  289MOL   H13446790   6.021   6.211   3.645  0.2031 -1.6226  2.6342
  289MOL   H13546791   5.981   6.455   3.585  0.0936 -0.4747  1.1740
  289MOL   H13646792   6.069   6.551   3.763 -1.4927 -1.1137 -1.2925
  289MOL   H13746793   6.112   6.615   3.625 -1.0702  0.9094  0.7388
  289MOL   C13846794   6.176   6.395   3.500  0.9310 -0.1866 -0.8016
  289MOL   C13946795   6.116   6.350   3.362 -0.1037  0.4558  0.3668
  289MOL   N14046796   6.227   6.353   3.260  0.2300  0.8700  0.0024
  289MOL   H14146797   6.220   6.490   3.470 -0.8514  1.3256  1.2463
  289MOL   H14246798   6.264   6.335   3.523  0.2521 -0.3883  1.3819
  289MOL   H14346799   6.026   6.405   3.334 -0.4708  0.0190  0.6787
  289MOL   H14446800   6.318   6.339   3.300  0.4330 -1.4707 -1.1792
  289MOL   H14546801   6.224   6.449   3.228 -0.6677  2.0802  3.4452
  289MOL   C14646802   6.087   6.195   3.358  0.0954 -0.0477  0.3402
  289MOL   C14746803   6.008   6.160   3.227 -0.1397  0.3563  0.3510
  289MOL   N14846804   6.102   6.118   3.123 -0.2616 -0.2262 -0.4204
  289MOL   H14946805   6.180   6.139   3.373 -1.0753 -1.8303  1.0317
  289MOL   H15046806   6.018   6.166   3.437  0.0799  0.1048  0.3838
  289MOL   H15146807   5.965   6.250   3.184  1.0210  0.8870  0.3036
  289MOL   H15246808   6.076   6.161   3.035  1.1204 -0.2676 -0.8646
  289MOL   H15346809   6.187   6.170   3.142 -1.8311  2.7500 -1.2482
  289MOL   C15446810   5.897   6.053   3.239 -0.2490  0.9251  0.4054
  289MOL   C15546811   5.775   6.104   3.313  0.2162  0.4615 -0.0583
  289MOL   N15646812   5.662   6.019   3.343  0.0835 -0.0044  0.1591
  289MOL   H15746813   5.847   6.045   3.143  1.5058 -2.3663 -0.2897
  289MOL   H15846814   5.923   5.953   3.274  0.9571  1.6281  1.5853
  289MOL   H15946815   5.738   6.189   3.255 -0.7009  0.3075  0.2904
  289MOL   H16046816   5.629   5.956   3.270 -0.7622  1.5226 -0.7951
  289MOL   H16146817   5.682   5.958   3.421 -1.3572 -0.5932  0.0991
  289MOL   H16246818   5.802   6.139   3.412  1.5698  0.4764 -0.4157
  290MOL     C146819   3.106   3.928   6.095 -0.1324  0.5726  0.0576
  290MOL     C246820   3.179   3.825   6.002  0.1691 -0.2748  1.3675
  290MOL     N346821   3.148   3.856   5.870 -0.3653 -0.4517  0.1116
  290MOL     H446822   3.107   3.894   6.199  2.8861 -0.7848 -0.3656
  290MOL     H546823   3.007   3.962   6.066 -0.6752  1.4695  2.8438
  290MOL     H646824   3.133   3.730   6.029  0.7586 -1.1090 -0.5163
  290MOL     H746825   3.188   3.778   5.820  1.3136  1.0003 -0.8504
  290MOL     H846826   3.050   3.834   5.865 -0.1910 -1.2474  0.1647
  290MOL     H946827   3.166   4.019   6.092  0.5744  0.1131  0.1380
  290MOL    C1046828   3.333   3.815   6.044  0.4443  0.8684 -0.2977
  290MOL    C1146829   3.368   3.774   6.190 -0.7222  1.1286 -0.1148
  290MOL    N1246830   3.341   3.627   6.206 -0.0315  0.1516 -0.0598
  290MOL    H1346831   3.377   3.744   5.974  0.0561  2.2669 -1.9702
  290MOL    H1446832   3.381   3.909   6.016 -0.8222  1.7893  0.5702
  290MOL    H1546833   3.301   3.829   6.256 -0.9568  0.8154 -0.0866
  290MOL    H1646834   3.359   3.610   6.304  1.1041 -2.4441 -0.6573
  290MOL    H1746835   3.414   3.570   6.165  0.3993  0.6336  0.0280
  290MOL    C1846836   3.518   3.796   6.224 -0.0681  0.8379  0.3940
  290MOL    C1946837   3.581   3.935   6.240 -0.4476 -0.4362  0.3636
  290MOL    N2046838   3.505   4.031   6.315 -0.6963 -0.7135  0.2853
  290MOL    H2146839   3.554   3.727   6.301 -0.3463  0.9429  0.6236
  290MOL    H2246840   3.564   3.745   6.140  1.5884 -0.4706  2.0326
  290MOL    H2346841   3.578   3.970   6.136 -4.1872 -1.3597  0.0808
  290MOL    H2446842   3.415   4.052   6.274  0.0691 -0.8040 -1.4830
  290MOL    H2546843   3.556   4.118   6.323  1.7207 -2.0261 -0.3830
  290MOL    C2646844   3.727   3.931   6.284 -0.4886 -0.0280 -0.3894
  290MOL    C2746845   3.833   3.847   6.201  0.5673 -0.0446  0.1658
  290MOL    N2846846   3.852   3.912   6.073  0.8089 -0.0316  0.1138
  290MOL    H2946847   3.770   4.031   6.292  0.2303 -0.4023  0.4016
  290MOL    H3046848   3.729   3.893   6.386 -2.3670  3.8758  1.1962
  290MOL    H3146849   3.786   3.750   6.186  0.3916  0.0960 -0.2322
  290MOL    H3246850   3.909   3.855   6.012  1.2103  0.8375 -0.3313
  290MOL    H3346851   3.764   3.919   6.023  1.6637  1.9416 -1.1823
  290MOL    C3446852   3.972   3.838   6.270 -0.3214  0.1496  0.1610
  290MOL    C3546853   4.083   3.746   6.206  0.1996  0.0768  0.6537
  290MOL    N3646854   4.201   3.771   6.284  0.1926  0.0761 -0.1230
  290MOL    H3746855   4.009   3.939   6.285 -1.1711  0.2935  1.3790
  290MOL    H3846856   3.957   3.804   6.373 -0.1491 -3.1051 -0.8216
  290MOL    H3946857   4.097   3.783   6.105 -2.0453 -0.2771  0.1927
  290MOL    H4046858   4.274   3.723   6.234  0.0290 -0.8263  0.4915
  290MOL    H4146859   4.201   3.724   6.374  0.6615  3.1934  1.5748
  290MOL    C4246860   4.044   3.594   6.189  0.0665  0.0042 -0.2686
  290MOL    C4346861   4.125   3.527   6.083 -0.7940 -0.3649  0.0466
  290MOL    N4446862   4.148   3.392   6.120  0.0881 -0.9663  1.1515
  290MOL    H4546863   4.052   3.535   6.280 -0.5289  1.7423  0.9455
  290MOL    H4646864   3.937   3.595   6.174 -0.0197 -2.3202  0.0991
  290MOL    H4746865   4.217   3.583   6.064 -1.3721  0.3570 -0.6811
  290MOL    H4846866   4.060   3.358   6.156 -0.0486 -2.9335 -0.9453
  290MOL    H4946867   4.219   3.385   6.191 -1.0529  4.4953  3.0722
  290MOL    C5046868   4.055   3.537   5.949  0.2174  0.2489 -0.9204
  290MOL    C5146869   4.137   3.577   5.824  0.0383 -0.2580 -0.3006
  290MOL    N5246870   4.040   3.564   5.715  0.9425 -0.4226 -0.7302
  290MOL    H5346871   4.012   3.437   5.938 -2.1702  1.1691 -0.2366
  290MOL    H5446872   3.969   3.604   5.955 -0.1272 -0.2564 -0.0173
  290MOL    H5546873   4.221   3.509   5.811  0.2448  0.3541 -2.3276
  290MOL    H5646874   4.016   3.468   5.735  0.7255  0.0882  1.6293
  290MOL    H5746875   3.950   3.608   5.729  0.3286 -1.8292 -0.2289
  290MOL    C5846876   4.182   3.727   5.823  0.0187  0.3767 -0.0643
  290MOL    C5946877   4.323   3.758   5.892  0.3071  0.0427 -0.1571
  290MOL    N6046878   4.428   3.714   5.806  0.9477  0.0436 -0.4781
  290MOL    H6146879   4.195   3.767   5.722  0.6842  2.5393  0.8627
  290MOL    H6246880   4.099   3.787   5.859  0.4028  0.4769  0.6475
  290MOL    H6346881   4.346   3.724   5.993  1.8693  0.9847 -0.1832
  290MOL    H6446882   4.422   3.748   5.711 -1.3380  0.1627 -0.3197
  290MOL    H6546883   4.511   3.763   5.835 -0.2928  0.3671  2.7533
  290MOL    C6646884   4.348   3.911   5.893 -0.6780  0.6409  0.4042
  290MOL    C6746885   4.245   3.992   5.976  0.4437  0.4052 -0.5679
  290MOL    N6846886   4.299   3.983   6.110  0.4983  0.0038 -0.0732
  290MOL    H6946887   4.453   3.935   5.913 -0.5259  0.6694 -0.4108
  290MOL    H7046888   4.338   3.938   5.788 -0.3876  0.4607  0.3279
  290MOL    H7146889   4.146   3.950   5.956  0.8687 -0.2572 -1.2977
  290MOL    H7246890   4.397   4.004   6.121  0.6438 -1.4341  1.6007
  290MOL    H7346891   4.273   3.900   6.161 -3.3107  0.5903 -0.9153
  290MOL    C7446892   4.236   4.147   5.949  0.7089 -0.0266  0.2287
  290MOL    C7546893   4.096   4.200   5.967 -0.1056 -0.2439 -0.5705
  290MOL    N7646894   4.033   4.152   6.092  0.1638 -0.6269  0.2036
  290MOL    H7746895   4.307   4.192   6.018  0.8758 -1.0857  0.7698
  290MOL    H7846896   4.267   4.169   5.848 -0.8608 -1.0232 -0.4945
  290MOL    H7946897   4.033   4.152   5.892  0.2853 -1.0829 -0.3691
  290MOL    H8046898   4.113   4.127   6.149 -0.1033  1.7998  1.7034
  290MOL    H8146899   3.982   4.065   6.093 -0.1022 -0.4866  2.8894
  290MOL    C8246900   4.095   4.352   5.949 -0.2530  0.2467 -0.1966
  290MOL    C8346901   4.110   4.394   5.803  0.5697  0.1781 -0.1722
  290MOL    N8446902   3.990   4.463   5.753 -0.1056 -0.0803 -0.0420
  290MOL    H8546903   4.003   4.396   5.987 -1.1825  0.3530 -2.4690
  290MOL    H8646904   4.177   4.395   6.006  2.8814 -1.2044 -3.4104
  290MOL    H8746905   4.140   4.300   5.757 -0.3987  0.0716 -0.5960
  290MOL    H8846906   3.912   4.399   5.746  0.4158 -0.6702 -0.4996
  290MOL    H8946907   4.010   4.482   5.656 -1.1189  1.2176 -0.0126
  290MOL    C9046908   4.224   4.485   5.792 -0.1840  0.4423 -0.4705
  290MOL    C9146909   4.252   4.538   5.654  0.1337 -0.2801  0.2043
  290MOL    N9246910   4.339   4.650   5.652  0.1735  0.2246 -0.5227
  290MOL    H9346911   4.202   4.571   5.855 -1.3005  0.0574 -0.3327
  290MOL    H9446912   4.316   4.448   5.838 -1.1476 -0.9732  0.3288
  290MOL    H9546913   4.160   4.576   5.610 -0.8694  0.1171  2.5546
  290MOL    H9646914   4.321   4.715   5.727 -0.3682  1.1096 -1.4088
  290MOL    H9746915   4.436   4.623   5.662 -0.0365  0.2836  2.0934
  290MOL    C9846916   4.314   4.432   5.558  0.2761 -0.2616  0.5011
  290MOL    C9946917   4.205   4.334   5.507  0.2694  0.1104 -0.0484
  290MOL   N10046918   4.164   4.369   5.376 -0.6104 -0.2240  0.1521
  290MOL   H10146919   4.373   4.483   5.483  1.3460 -0.9440  0.8669
  290MOL   H10246920   4.385   4.370   5.613  0.4531 -1.1037 -0.6741
  290MOL   H10346921   4.109   4.334   5.560  0.0801 -0.3069 -0.3918
  290MOL   H10446922   4.109   4.453   5.365  1.6824  1.2494 -0.3481
  290MOL   H10546923   4.245   4.369   5.316 -1.2436  0.5590 -0.6992
  290MOL   C10646924   4.248   4.188   5.509 -0.5688 -0.9636 -0.0360
  290MOL   C10746925   4.135   4.084   5.483  0.4976  0.1919 -0.0116
  290MOL   N10846926   4.193   3.954   5.474 -0.4704 -0.0034  0.6509
  290MOL   H10946927   4.326   4.168   5.435  0.9693 -1.1796  1.6280
  290MOL   H11046928   4.291   4.169   5.607  1.4876  0.5705 -0.6059
  290MOL   H11146929   4.080   4.102   5.391 -0.8703 -2.0934  0.3293
  290MOL   H11246930   4.225   3.952   5.378 -0.8632 -0.0099  0.5196
  290MOL   H11346931   4.121   3.883   5.473 -1.2235  0.7321 -1.2966
  290MOL   C11446932   4.030   4.067   5.602 -0.1938  0.0694  0.0811
  290MOL   C11546933   3.897   4.017   5.557  0.6552  0.6566 -0.1100
  290MOL   N11646934   3.820   3.968   5.668  0.6938  0.5227  0.5664
  290MOL   H11746935   4.069   4.003   5.681  0.1955  0.6687  0.3852
  290MOL   H11846936   4.012   4.158   5.659 -1.1055 -0.4382  0.6081
  290MOL   H11946937   3.925   3.928   5.500  1.3035 -0.0638  1.3151
  290MOL   H12046938   3.763   4.045   5.701  0.7140  1.1376 -0.7815
  290MOL   H12146939   3.756   3.899   5.630  0.5459  1.4244 -0.8514
  290MOL   C12246940   3.825   4.116   5.478  0.5300 -0.0061  0.4277
  290MOL   C12346941   3.695   4.067   5.405 -0.6436  0.2035  0.6014
  290MOL   N12446942   3.629   4.189   5.365  0.0595  0.1792 -0.1088
  290MOL   H12546943   3.815   4.209   5.534 -0.7223 -1.8467  3.3888
  290MOL   H12646944   3.882   4.151   5.393  0.7350 -0.5625  0.3365
  290MOL   H12746945   3.623   4.017   5.470 -1.2346 -0.1910 -0.3547
  290MOL   H12846946   3.593   4.236   5.447 -1.1462  2.3543 -1.8359
  290MOL   H12946947   3.708   4.242   5.332  0.1772  0.0692 -0.0051
  290MOL   C13046948   3.712   3.973   5.274  0.8053  0.0063 -0.3339
  290MOL   C13146949   3.592   3.880   5.225 -0.5140 -0.2025  0.2302
  290MOL   N13246950   3.553   3.787   5.320  0.4630  0.1595  0.2772
  290MOL   H13346951   3.739   4.030   5.185  0.6302  1.5465  0.5817
  290MOL   H13446952   3.797   3.908   5.293 -0.6836 -2.3218 -1.4906
  290MOL   H13546953   3.626   3.821   5.141  0.0481 -1.0902  1.0726
  290MOL   H13646954   3.630   3.722   5.332 -0.6221 -1.4159 -1.0547
  290MOL   H13746955   3.479   3.738   5.273  2.9805 -1.7203 -1.8764
  290MOL   C13846956   3.468   3.965   5.190  0.3612 -0.0472 -0.0941
  290MOL   C13946957   3.482   4.064   5.079 -0.7886  0.6897  0.1101
  290MOL   N14046958   3.512   3.990   4.953 -0.3221  0.4088  0.6536
  290MOL   H14146959   3.385   3.904   5.153  1.0514 -0.2025 -1.4431
  290MOL   H14246960   3.416   4.002   5.278  0.5121  0.1494 -0.0863
  290MOL   H14346961   3.571   4.127   5.092 -1.2800  1.5476 -0.5868
  290MOL   H14446962   3.500   4.043   4.868 -1.0139 -2.4772 -1.0997
  290MOL   H14546963   3.611   3.966   4.953 -0.3533  0.2270 -1.2285
  290MOL   C14646964   3.356   4.155   5.058 -0.9373  0.8927  0.6068
  290MOL   C14746965   3.328   4.251   5.174  0.4569  0.2626 -0.2773
  290MOL   N14846966   3.431   4.337   5.220 -0.3601 -0.0155 -0.0088
  290MOL   H14946967   3.360   4.215   4.968 -0.1426 -0.9316 -0.5938
  290MOL   H15046968   3.264   4.097   5.048 -0.9016  1.2040 -1.7804
  290MOL   H15146969   3.294   4.185   5.253 -3.6565 -0.4570 -2.5344
  290MOL   H15246970   3.388   4.403   5.283 -0.8323 -0.5890  0.2727
  290MOL   H15346971   3.502   4.293   5.277  1.6822  3.2110  0.0955
  290MOL   C15446972   3.210   4.355   5.146 -0.3559 -0.0259 -0.2079
  290MOL   C15546973   3.066   4.285   5.159 -0.1485 -0.8463 -0.5120
  290MOL   N15646974   2.970   4.395   5.151  0.9820  0.2756  0.2997
  290MOL   H15746975   3.220   4.444   5.208  2.6210  1.1753 -2.2814
  290MOL   H15846976   3.229   4.403   5.050  0.2227 -0.7688 -0.4701
  290MOL   H15946977   3.071   4.232   5.255 -1.1304  2.8091  1.6609
  290MOL   H16046978   2.884   4.363   5.193  0.1566 -0.4545 -1.8840
  290MOL   H16146979   2.999   4.462   5.221 -0.5651  1.9313 -0.6182
  290MOL   H16246980   3.038   4.211   5.085  0.3542 -0.3846 -1.1701
  291MOL     C146981   4.734   5.916   3.407 -0.1687  0.2950 -0.0039
  291MOL     C246982   4.823   5.978   3.295  0.1931  0.6052  0.2069
  291MOL     N346983   4.832   5.883   3.176  0.5093 -0.0769  0.0309
  291MOL     H446984   4.770   5.816   3.428 -1.2889  0.2413  1.6693
  291MOL     H546985   4.630   5.909   3.376 -0.2975  0.3002  0.4343
  291MOL     H646986   4.922   5.989   3.340 -0.0567  0.1380  0.8782
  291MOL     H746987   4.883   5.924   3.099  0.3443  1.2950  0.6498
  291MOL     H846988   4.743   5.859   3.135  0.6515 -0.9562  0.2229
  291MOL     H946989   4.742   5.976   3.498 -1.1676 -0.2143  0.4193
  291MOL    C1046990   4.773   6.113   3.246  0.1646 -0.4549  0.1062
  291MOL    C1146991   4.789   6.230   3.345  0.5758 -0.1911  0.1862
  291MOL    N1246992   4.922   6.269   3.342  0.4520  0.8835  0.0141
  291MOL    H1346993   4.809   6.147   3.149 -0.2396  1.9158  0.7551
  291MOL    H1446994   4.667   6.090   3.247 -0.4884  2.3935  2.1067
  291MOL    H1546995   4.778   6.203   3.450  0.9363 -2.1164 -0.2479
  291MOL    H1646996   4.982   6.191   3.363  0.6785  0.6743 -1.3483
  291MOL    H1746997   4.969   6.339   3.398  0.9937 -0.1399  0.8564
  291MOL    C1846998   4.702   6.346   3.300 -0.5074  0.7472 -0.7710
  291MOL    C1946999   4.674   6.449   3.410  0.4820 -0.4754  0.5247
  291MOL    N2047000   4.658   6.580   3.348 -0.5300 -0.1627  0.8506
  291MOL    H2147001   4.741   6.388   3.206 -0.5400 -0.4858 -1.3398
  291MOL    H2247002   4.611   6.291   3.278 -1.0123  1.5283 -0.6542
  291MOL    H2347003   4.765   6.452   3.471  0.6710  0.2784  0.2141
  291MOL    H2447004   4.746   6.621   3.320 -1.7515  1.4871 -0.6529
  291MOL    H2547005   4.622   6.647   3.415 -1.1821 -0.0054  0.3485
  291MOL    C2647006   4.546   6.417   3.494 -0.6095 -0.5186 -0.1461
  291MOL    C2747007   4.547   6.292   3.584 -0.4809 -0.4256 -0.2710
  291MOL    N2847008   4.656   6.314   3.677  0.2838  0.2680  0.3776
  291MOL    H2947009   4.521   6.509   3.547  0.4531  0.7301 -1.7516
  291MOL    H3047010   4.470   6.405   3.416  0.4480 -0.4539 -1.2094
  291MOL    H3147011   4.562   6.202   3.524  1.9225 -0.8141  0.8582
  291MOL    H3247012   4.737   6.304   3.617  0.1564  2.9371 -0.3164
  291MOL    H3347013   4.660   6.236   3.742 -0.0256  0.5113  0.6867
  291MOL    C3447014   4.419   6.277   3.661  0.8708  0.2177 -0.0984
  291MOL    C3547015   4.295   6.232   3.577 -0.2954  0.3745 -0.5033
  291MOL    N3647016   4.311   6.090   3.556 -0.3860  0.8830  0.0801
  291MOL    H3747017   4.422   6.224   3.757 -0.2986 -2.1841 -1.3272
  291MOL    H3847018   4.395   6.377   3.695  2.6002  0.5753  0.0747
  291MOL    H3947019   4.281   6.288   3.484 -1.2515 -0.1972 -0.7098
  291MOL    H4047020   4.410   6.069   3.552 -0.0798  2.2145  0.4401
  291MOL    H4147021   4.275   6.060   3.467 -0.1000 -0.4674  0.4132
  291MOL    C4247022   4.166   6.249   3.649  0.4928  0.1799  0.2005
  291MOL    C4347023   4.032   6.184   3.594  0.6037 -0.3590  0.2068
  291MOL    N4447024   3.923   6.217   3.684  0.2280 -0.4144 -0.5180
  291MOL    H4547025   4.181   6.200   3.745  1.6427  0.6439  0.2663
  291MOL    H4647026   4.161   6.352   3.686  0.0202 -0.1465  1.0659
  291MOL    H4747027   4.040   6.075   3.600  2.2958 -0.2960 -0.5444
  291MOL    H4847028   3.906   6.314   3.660 -0.5118 -0.7634 -1.4341
  291MOL    H4947029   3.830   6.183   3.665 -0.6330 -0.1972  3.0183
  291MOL    C5047030   4.001   6.216   3.453 -0.2473  0.1045 -0.3492
  291MOL    C5147031   3.860   6.168   3.400  0.6214  0.3736  1.1002
  291MOL    N5247032   3.835   6.225   3.271 -0.4057 -0.4348 -0.2839
  291MOL    H5347033   4.005   6.324   3.444  1.5883  0.1285  0.5279
  291MOL    H5447034   4.083   6.190   3.386  0.4098 -0.3070  0.5993
  291MOL    H5547035   3.786   6.196   3.475 -1.2535  0.8211 -0.8554
  291MOL    H5647036   3.917   6.207   3.215  0.9728 -0.5627  1.7101
  291MOL    H5747037   3.754   6.200   3.216 -0.5576  0.7741 -0.6347
  291MOL    C5847038   3.841   6.013   3.384  0.3895 -0.0743 -0.7519
  291MOL    C5947039   3.695   5.969   3.387 -0.2751  0.1828  1.2578
  291MOL    N6047040   3.678   5.831   3.340  0.4717 -0.1721 -0.1735
  291MOL    H6147041   3.892   5.967   3.300 -2.1664  0.6147 -2.7569
  291MOL    H6247042   3.881   5.971   3.476  0.1831  0.7903 -0.2601
  291MOL    H6347043   3.645   6.024   3.308 -1.5865  0.9032  2.5495
  291MOL    H6447044   3.768   5.786   3.342  1.6945  2.2027  0.1405
  291MOL    H6547045   3.644   5.830   3.245  0.0509 -0.2707 -0.0236
  291MOL    C6647046   3.623   5.992   3.520 -0.0083 -0.3115 -0.2199
  291MOL    C6747047   3.467   5.964   3.524 -0.4694  0.1173  0.2843
  291MOL    N6847048   3.442   5.939   3.666  0.6711  0.5646  0.4101
  291MOL    H6947049   3.679   5.938   3.596 -0.6313  0.1687  0.5928
  291MOL    H7047050   3.639   6.092   3.561  0.7433 -0.0661 -1.1031
  291MOL    H7147051   3.452   5.872   3.468 -2.8153  0.9242 -0.4429
  291MOL    H7247052   3.467   5.844   3.692 -3.3697 -0.2354  1.7390
  291MOL    H7347053   3.344   5.945   3.691 -0.5707 -1.0726 -3.6632
  291MOL    C7447054   3.361   6.073   3.465 -0.3713  0.3795 -0.3453
  291MOL    C7547055   3.354   6.077   3.311 -0.8357  0.3952  0.2269
  291MOL    N7647056   3.217   6.063   3.267  0.2493  0.0925 -0.4197
  291MOL    H7747057   3.266   6.041   3.507  0.4625  0.0803  1.3254
  291MOL    H7847058   3.377   6.170   3.511 -1.2919  0.0932  0.5869
  291MOL    H7947059   3.411   5.993   3.273 -0.5255  0.2614  0.9801
  291MOL    H8047060   3.206   6.044   3.169  3.6902 -3.5182 -0.2241
  291MOL    H8147061   3.174   5.979   3.303  1.3415 -0.7382 -1.0332
  291MOL    C8247062   3.403   6.207   3.248  0.4863 -0.0263 -1.4161
  291MOL    C8347063   3.418   6.226   3.094 -0.0377  0.4955 -0.8035
  291MOL    N8447064   3.480   6.359   3.083  0.2311 -0.3864  0.8733
  291MOL    H8547065   3.355   6.293   3.294 -0.3756 -1.7741  1.0176
  291MOL    H8647066   3.503   6.228   3.287 -0.2464  0.3207  0.3412
  291MOL    H8747067   3.322   6.228   3.043 -0.2942  0.2438 -0.3245
  291MOL    H8847068   3.415   6.436   3.079  0.2270 -0.3016  2.2649
  291MOL    H8947069   3.533   6.363   2.997 -1.2881  1.7546 -0.0065
  291MOL    C9047070   3.507   6.115   3.030  0.6155 -0.6628  0.2144
  291MOL    C9147071   3.529   6.129   2.876  0.1109 -0.1367  0.0550
  291MOL    N9247072   3.626   6.025   2.842 -0.3030 -0.2118  0.8439
  291MOL    H9347073   3.602   6.121   3.082  1.8939 -2.4254 -1.8242
  291MOL    H9447074   3.473   6.014   3.052 -0.3738 -0.4408 -0.2407
  291MOL    H9547075   3.565   6.231   2.860 -2.1874  0.9936  1.6668
  291MOL    H9647076   3.644   6.027   2.743 -1.8755 -2.4061  0.4765
  291MOL    H9747077   3.711   6.046   2.893 -0.0873  3.2753 -0.8380
  291MOL    C9847078   3.403   6.100   2.787 -0.5775 -0.2878 -0.1686
  291MOL    C9947079   3.273   6.192   2.798  0.3593 -0.1381 -0.2071
  291MOL   N10047080   3.229   6.227   2.664 -0.0254 -0.2198  0.1419
  291MOL   H10147081   3.442   6.111   2.686 -0.9088 -2.4118 -0.5579
  291MOL   H10247082   3.371   5.996   2.782  1.6973 -1.0198 -0.2031
  291MOL   H10347083   3.292   6.284   2.852 -0.4800 -1.2685  2.0859
  291MOL   H10447084   3.232   6.327   2.650 -0.3249 -0.0929  0.9785
  291MOL   H10547085   3.290   6.174   2.603  0.7052 -1.9268  2.2908
  291MOL   C10647086   3.154   6.121   2.868 -0.6729 -0.4180 -0.0545
  291MOL   C10747087   3.025   6.203   2.886 -0.1043 -0.0072  0.7139
  291MOL   N10847088   2.926   6.098   2.922  0.8938  0.3529 -0.5821
  291MOL   H10947089   3.117   6.031   2.818 -2.1593 -0.4814  1.0973
  291MOL   H11047090   3.197   6.078   2.959  1.3448 -1.7420 -1.6046
  291MOL   H11147091   2.999   6.257   2.795  1.8491  0.2512  0.2874
  291MOL   H11247092   2.886   6.052   2.841 -2.2652  0.4687  0.8405
  291MOL   H11347093   2.968   6.023   2.975  1.3371  2.0652  1.5742
  291MOL   C11447094   3.034   6.309   3.008 -0.6916 -0.1532  0.3517
  291MOL   C11547095   2.946   6.427   2.999  0.4600  0.2148  0.7729
  291MOL   N11647096   2.809   6.374   3.028 -0.3425  0.6206 -0.2497
  291MOL   H11747097   3.029   6.258   3.104 -0.5641  0.2555  0.5756
  291MOL   H11847098   3.137   6.342   3.025 -0.6602 -0.7978  1.4600
  291MOL   H11947099   2.929   6.458   2.896 -1.2013  0.3757  1.0751
  291MOL   H12047100   2.813   6.275   3.013  1.6630  0.3641  1.7400
  291MOL   H12147101   2.799   6.369   3.129 -0.9277  1.0753 -0.2817
  291MOL   C12247102   2.998   6.537   3.089  0.2050 -0.6290 -0.2446
  291MOL   C12347103   3.089   6.643   3.026 -0.2188  0.2252  0.1341
  291MOL   N12447104   3.063   6.768   3.094 -0.4533 -0.5668 -0.8111
  291MOL   H12547105   2.915   6.605   3.108  1.0991  0.3491  0.2731
  291MOL   H12647106   3.033   6.506   3.188 -1.6264  0.7331  0.8746
  291MOL   H12747107   3.065   6.671   2.923  0.3870 -0.5781 -0.2293
  291MOL   H12847108   3.132   6.836   3.067  0.7192 -1.5658 -0.3866
  291MOL   H12947109   2.982   6.820   3.063  0.1813 -0.7883 -2.9001
  291MOL   C13047110   3.243   6.615   3.036  0.1528 -0.5901  0.1076
  291MOL   C13147111   3.318   6.650   2.905 -0.1568 -0.0565  0.2351
  291MOL   N13247112   3.465   6.646   2.932 -0.0045 -0.3876 -0.0264
  291MOL   H13347113   3.283   6.675   3.117  1.6195 -2.2057  0.6054
  291MOL   H13447114   3.254   6.510   3.065 -0.7549 -1.0195 -1.0868
  291MOL   H13547115   3.293   6.753   2.877  0.0065 -0.4780 -1.4929
  291MOL   H13647116   3.495   6.722   2.992 -1.3424  0.1953 -0.0888
  291MOL   H13747117   3.510   6.661   2.843  0.0596  1.1211  0.2512
  291MOL   C13847118   3.276   6.563   2.782 -1.0935  0.3262 -0.4702
  291MOL   C13947119   3.235   6.639   2.645  0.6599  0.5707  0.8104
  291MOL   N14047120   3.216   6.531   2.550 -0.8951  0.0562 -0.4573
  291MOL   H14147121   3.352   6.489   2.760 -1.4057 -0.5387  1.3259
  291MOL   H14247122   3.197   6.493   2.807 -0.0158 -0.4288  0.8393
  291MOL   H14347123   3.317   6.707   2.622  0.1951  1.2921  1.2763
  291MOL   H14447124   3.298   6.527   2.492  0.8088  0.1034  1.8996
  291MOL   H14547125   3.143   6.568   2.490 -0.0275  2.2517 -0.1798
  291MOL   C14647126   3.093   6.708   2.651 -0.4290 -0.3735  0.3360
  291MOL   C14747127   3.051   6.792   2.524  0.0685 -0.0571 -0.5672
  291MOL   N14847128   3.014   6.700   2.416 -0.3494 -0.4010 -0.3056
  291MOL   H14947129   3.013   6.637   2.674 -1.0069  0.1140 -0.1750
  291MOL   H15047130   3.083   6.772   2.738 -0.4958 -0.0803  0.1116
  291MOL   H15147131   3.132   6.856   2.487  0.1311 -0.7564 -1.6545
  291MOL   H15247132   2.969   6.759   2.347 -0.8682  1.4026  1.5189
  291MOL   H15347133   2.941   6.638   2.446  0.6526 -1.2441  0.4351
  291MOL   C15447134   2.932   6.888   2.552 -0.3672 -0.0566 -0.0001
  291MOL   C15547135   2.961   7.020   2.621 -0.6980  0.5871 -0.4459
  291MOL   N15647136   2.843   7.107   2.648  0.3242 -0.4891 -0.0888
  291MOL   H15747137   2.872   6.913   2.465 -2.7192  0.5371  1.7372
  291MOL   H15847138   2.850   6.839   2.603  0.1843  0.6899  1.6324
  291MOL   H15947139   3.043   7.076   2.575  0.5215 -0.1869  0.7224
  291MOL   H16047140   2.780   7.076   2.721 -2.2117  1.4992 -1.3487
  291MOL   H16147141   2.875   7.198   2.676  1.0756 -0.9197  0.4640
  291MOL   H16247142   3.009   6.993   2.716  1.3777  1.6451 -1.1563
  292MOL     C147143   5.001   3.435   5.983  0.5480 -0.6080  0.1990
  292MOL     C247144   5.001   3.555   5.884  0.4962 -0.3598  0.1306
  292MOL     N347145   5.082   3.662   5.938 -0.2381 -0.1171 -0.4362
  292MOL     H447146   5.098   3.384   5.986 -0.2104 -2.0380  0.8453
  292MOL     H547147   4.931   3.356   5.956  0.8585 -1.1627  1.0041
  292MOL     H647148   4.900   3.594   5.869  0.8265  0.0640 -1.0347
  292MOL     H747149   5.034   3.706   6.015  0.6233  0.3011 -0.1363
  292MOL     H847150   5.077   3.741   5.876 -1.0022 -0.8323 -1.3063
  292MOL     H947151   4.982   3.466   6.085 -0.3403 -0.0479 -0.1331
  292MOL    C1047152   5.056   3.528   5.737 -0.0659  0.2905  0.8118
  292MOL    C1147153   4.976   3.439   5.632 -0.7367  0.3139 -0.5268
  292MOL    N1247154   4.856   3.511   5.598  0.0043  0.3466 -0.4074
  292MOL    H1347155   5.097   3.620   5.695 -1.9753  1.5151  1.5839
  292MOL    H1447156   5.146   3.470   5.759 -1.6997 -1.8969  1.8577
  292MOL    H1547157   4.943   3.344   5.675  1.2725 -0.5508 -0.8600
  292MOL    H1647158   4.802   3.449   5.539  0.0177 -1.8428  1.8278
  292MOL    H1747159   4.802   3.522   5.683  0.8534 -2.2802  0.5019
  292MOL    C1847160   5.067   3.426   5.500  0.3813  0.0409 -0.8922
  292MOL    C1947161   5.083   3.280   5.452  0.2447 -0.0402 -0.1097
  292MOL    N2047162   5.090   3.272   5.307 -0.5937  0.0079  0.3417
  292MOL    H2147163   5.025   3.488   5.420  1.1870 -1.8876 -2.8841
  292MOL    H2247164   5.164   3.473   5.513  0.2101 -0.3086  1.8799
  292MOL    H2347165   4.994   3.228   5.488  0.3492  1.2280  2.0006
  292MOL    H2447166   5.014   3.323   5.264  0.2935  1.3067  0.2678
  292MOL    H2547167   5.164   3.329   5.269 -2.2727  1.1446 -1.3429
  292MOL    C2647168   5.201   3.200   5.515  0.4407  0.9226 -0.3099
  292MOL    C2747169   5.148   3.092   5.618  0.4163  0.2419 -0.2471
  292MOL    N2847170   5.212   2.969   5.578 -0.0126 -0.0888  0.2300
  292MOL    H2947171   5.261   3.148   5.440  0.7746 -2.3206  2.0975
  292MOL    H3047172   5.266   3.271   5.566  1.0420 -0.7351  1.2906
  292MOL    H3147173   5.043   3.070   5.599  0.9061 -1.1677 -1.4412
  292MOL    H3247174   5.299   2.958   5.629  1.0572 -1.5521 -1.8122
  292MOL    H3347175   5.162   2.887   5.608 -0.4291  0.4519  1.0048
  292MOL    C3447176   5.173   3.127   5.770  0.0796  0.8678 -0.7838
  292MOL    C3547177   5.129   3.024   5.873 -1.0799 -0.9224  0.1913
  292MOL    N3647178   5.222   3.023   5.981 -0.2858  0.1959  0.0530
  292MOL    H3747179   5.277   3.156   5.779  0.6741 -1.2350 -0.6042
  292MOL    H3847180   5.130   3.225   5.790  0.6914  0.7760  1.0949
  292MOL    H3947181   5.124   2.923   5.832 -2.2148 -0.7940  0.0154
  292MOL    H4047182   5.314   3.012   5.941 -0.1903  1.1886 -0.0259
  292MOL    H4147183   5.196   2.954   6.050  0.1544  0.5193  0.5406
  292MOL    C4247184   4.991   3.052   5.938 -0.1014 -0.1073 -0.0629
  292MOL    C4347185   4.872   3.072   5.843  0.5981 -0.3026  0.0108
  292MOL    N4447186   4.847   2.950   5.763 -0.1067 -0.8851  0.7504
  292MOL    H4547187   4.967   2.967   6.003 -0.2460  0.7665  1.0474
  292MOL    H4647188   5.002   3.141   5.999 -1.2068  0.5308 -0.7815
  292MOL    H4747189   4.889   3.155   5.775  0.9723 -0.5702 -0.2254
  292MOL    H4847190   4.829   2.868   5.819 -3.1132 -1.3339 -0.7304
  292MOL    H4947191   4.925   2.933   5.702 -0.5762 -1.0715  0.1922
  292MOL    C5047192   4.741   3.097   5.933 -0.3003 -0.3758 -0.1816
  292MOL    C5147193   4.604   3.122   5.856 -0.0625 -0.6286 -0.2257
  292MOL    N5247194   4.486   3.102   5.939  0.3312  0.1253  0.1787
  292MOL    H5347195   4.735   3.008   5.996  0.5855 -1.1878 -1.2159
  292MOL    H5447196   4.765   3.177   6.003 -1.3926 -0.0779 -0.1422
  292MOL    H5547197   4.592   3.052   5.773  2.6440 -1.0681 -0.2951
  292MOL    H5647198   4.478   3.002   5.954  2.1578 -0.1801 -0.7914
  292MOL    H5747199   4.407   3.136   5.886  2.3822  2.1383 -1.6673
  292MOL    C5847200   4.590   3.266   5.784 -0.3479  0.1969  0.4641
  292MOL    C5947201   4.620   3.390   5.875  0.1287 -0.4593  0.5310
  292MOL    N6047202   4.629   3.506   5.791 -0.7840 -0.0826  0.3101
  292MOL    H6147203   4.668   3.268   5.708 -2.0157 -0.0382 -1.2758
  292MOL    H6247204   4.489   3.276   5.745  0.7582 -1.7733 -3.0579
  292MOL    H6347205   4.721   3.384   5.914 -0.4839 -2.2657  1.9223
  292MOL    H6447206   4.535   3.545   5.791 -1.3493 -1.4248 -0.0011
  292MOL    H6547207   4.680   3.579   5.839 -0.4885 -0.6728  0.8911
  292MOL    C6647208   4.523   3.418   5.993 -0.2191  0.3122  0.1524
  292MOL    C6747209   4.555   3.528   6.091 -0.6827  0.0974 -0.4337
  292MOL    N6847210   4.447   3.518   6.192 -0.2405 -0.0440  0.1640
  292MOL    H6947211   4.423   3.422   5.949 -0.4174 -0.2171  0.5498
  292MOL    H7047212   4.530   3.326   6.050  2.5270  0.0294 -0.5794
  292MOL    H7147213   4.534   3.620   6.036  0.8259 -0.7673 -2.5017
  292MOL    H7247214   4.367   3.554   6.142 -1.2830 -0.4782  1.5102
  292MOL    H7347215   4.432   3.419   6.205  0.9142 -0.3488 -0.7029
  292MOL    C7447216   4.700   3.531   6.150  0.0286 -0.9833 -0.6035
  292MOL    C7547217   4.747   3.667   6.205 -0.1970 -0.1884  0.2224
  292MOL    N7647218   4.877   3.640   6.268  0.8856 -0.1705 -0.1245
  292MOL    H7747219   4.702   3.460   6.232 -0.8097 -0.7207 -0.3489
  292MOL    H7847220   4.774   3.497   6.078  2.5186 -1.5050  2.1320
  292MOL    H7947221   4.676   3.716   6.271 -0.8321  0.4859 -0.9514
  292MOL    H8047222   4.950   3.710   6.261  1.1255 -0.5212 -1.4258
  292MOL    H8147223   4.869   3.629   6.368 -1.0601 -0.6444 -0.3076
  292MOL    C8247224   4.768   3.772   6.089  0.1770  0.2742  0.4754
  292MOL    C8347225   4.776   3.918   6.152 -0.1340 -0.5149 -0.2620
  292MOL    N8447226   4.859   3.992   6.062  0.0929 -0.6296  0.0401
  292MOL    H8547227   4.858   3.756   6.031  0.8929  0.6149  1.4646
  292MOL    H8647228   4.690   3.771   6.013 -1.0558 -0.0542  1.7079
  292MOL    H8747229   4.813   3.907   6.254 -1.1858 -1.2493  0.0496
  292MOL    H8847230   4.955   3.965   6.076 -0.0236 -1.6672 -1.0718
  292MOL    H8947231   4.836   3.952   5.972 -0.6700  1.6336 -0.8211
  292MOL    C9047232   4.632   3.975   6.156 -0.3407 -0.4743 -0.7255
  292MOL    C9147233   4.599   4.047   6.290 -0.4955 -0.8686 -0.5256
  292MOL    N9247234   4.498   4.146   6.247 -0.1691 -0.1240 -0.2228
  292MOL    H9347235   4.624   4.045   6.073  0.0776  0.3769 -0.0626
  292MOL    H9447236   4.554   3.901   6.140 -0.5129 -0.2505 -0.9139
  292MOL    H9547237   4.685   4.102   6.328 -1.5671 -0.1416  0.9011
  292MOL    H9647238   4.402   4.113   6.242  0.5934 -2.3676 -1.0393
  292MOL    H9747239   4.490   4.227   6.306 -0.0506 -1.4544  1.6587
  292MOL    C9847240   4.547   3.957   6.402 -0.2929  0.7295 -0.5076
  292MOL    C9947241   4.536   4.034   6.533 -0.0369 -0.0278  0.3981
  292MOL   N10047242   4.457   3.959   6.631  0.1566  0.1810 -0.7029
  292MOL   H10147243   4.450   3.918   6.372  0.9066 -2.9771  0.2660
  292MOL   H10247244   4.625   3.881   6.406 -1.4172 -0.4490 -0.9356
  292MOL   H10347245   4.489   4.126   6.499 -1.0432  0.3857  2.8040
  292MOL   H10447246   4.457   3.861   6.608 -2.0087  0.1544 -0.6835
  292MOL   H10547247   4.361   3.989   6.635  0.7481  1.9238  1.2549
  292MOL   C10647248   4.678   4.050   6.590  0.8654  0.3727 -0.0635
  292MOL   C10747249   4.673   4.144   6.718  0.5904  0.0820  0.1516
  292MOL   N10847250   4.802   4.142   6.783  0.0121  0.0496  0.6036
  292MOL   H10947251   4.719   3.956   6.627  0.3119  0.4830  0.8616
  292MOL   H11047252   4.747   4.083   6.513 -0.5465 -0.9358 -1.9239
  292MOL   H11147253   4.601   4.090   6.779  0.1125 -0.0472 -0.5084
  292MOL   H11247254   4.831   4.045   6.781 -1.5044 -0.3951 -0.9029
  292MOL   H11347255   4.783   4.159   6.881  0.7817 -1.4151  1.0164
  292MOL   C11447256   4.624   4.292   6.701  0.0916 -0.0984  0.6314
  292MOL   C11547257   4.644   4.384   6.825 -1.0078  0.0130  0.2095
  292MOL   N11647258   4.613   4.516   6.775 -0.0136  0.2769  0.4146
  292MOL   H11747259   4.672   4.340   6.616 -1.3139 -0.5981 -0.4639
  292MOL   H11847260   4.521   4.301   6.667  0.8397 -0.6134 -1.8633
  292MOL   H11947261   4.747   4.381   6.861 -1.4604  1.5509  1.6886
  292MOL   H12047262   4.703   4.556   6.752 -0.1569 -0.9726 -2.4448
  292MOL   H12147263   4.589   4.573   6.855 -0.1892 -0.3918  0.8353
  292MOL   C12247264   4.553   4.366   6.945  0.3581  0.2987 -0.5275
  292MOL   C12347265   4.575   4.240   7.036  0.7167 -0.2907 -0.5604
  292MOL   N12447266   4.686   4.247   7.134  0.3761  0.2723 -0.1167
  292MOL   H12547267   4.540   4.451   7.012 -1.3123 -1.0658  0.9238
  292MOL   H12647268   4.455   4.360   6.898  0.5056  0.8127 -0.9148
  292MOL   H12747269   4.613   4.166   6.966  1.8500 -0.7182  0.4948
  292MOL   H12847270   4.701   4.152   7.166  0.3768  0.3308  0.0558
  292MOL   H12947271   4.763   4.296   7.092  2.4377 -1.4506  1.5169
  292MOL   C13047272   4.448   4.186   7.102 -0.1522 -0.2589  0.5365
  292MOL   C13147273   4.339   4.136   7.009  0.6818  0.1960  0.1328
  292MOL   N13247274   4.387   4.016   6.946  0.7931 -0.1285 -0.3408
  292MOL   H13347275   4.475   4.117   7.182  1.4725  1.6534  1.6689
  292MOL   H13447276   4.416   4.267   7.167 -1.1875 -0.6372  0.5075
  292MOL   H13547277   4.309   4.208   6.933  1.6567 -0.1209 -0.5524
  292MOL   H13647278   4.488   4.008   6.945  0.7372 -1.1284  0.2717
  292MOL   H13747279   4.368   3.998   6.849  0.5377  0.3104 -0.3711
  292MOL   C13847280   4.211   4.108   7.094 -0.6070  0.1730  0.0534
  292MOL   C13947281   4.143   4.242   7.121  0.1109  0.4511  0.6841
  292MOL   N14047282   4.001   4.221   7.093  0.3659  0.5000 -0.2853
  292MOL   H14147283   4.151   4.042   7.032  1.4776 -0.7798 -1.0319
  292MOL   H14247284   4.227   4.053   7.186 -0.9798 -3.7185 -2.0770
  292MOL   H14347285   4.177   4.318   7.051  1.3353 -0.2625  0.4781
  292MOL   H14447286   3.990   4.163   7.011 -0.5726  1.3691 -0.7842
  292MOL   H14547287   3.951   4.308   7.083 -0.5500 -0.1490 -1.4960
  292MOL   C14647288   4.146   4.293   7.274 -1.0775 -0.4125  0.3862
  292MOL   C14747289   4.094   4.433   0.026  0.5201  0.5687 -0.5508
  292MOL   N14847290   4.054   4.431   0.168  0.7436 -0.4681  0.2908
  292MOL   H14947291   4.091   4.220   0.058 -1.2837 -0.4171  0.1908
  292MOL   H15047292   4.245   4.294   0.044 -0.2174  2.7355 -1.3771
  292MOL   H15147293   4.002   4.457   7.246  1.1859  0.9810 -1.4904
  292MOL   H15247294   4.018   4.524   0.184  1.3586  0.1683 -1.8505
  292MOL   H15347295   3.974   4.372   0.182  2.0468 -2.6466 -0.9966
  292MOL   C15447296   4.192   4.542   0.002 -0.5811 -0.2613 -0.1134
  292MOL   C15547297   4.243   4.560   7.138 -1.1940  0.9770  0.0770
  292MOL   N15647298   4.322   4.682   7.130  0.2707  0.4322  0.7324
  292MOL   H15747299   4.148   4.638   0.030  0.0729 -0.4887  1.7537
  292MOL   H15847300   4.282   4.529   0.062 -0.4837  1.2574  0.1071
  292MOL   H15947301   4.162   4.573   7.066 -0.7650  1.4398 -0.3266
  292MOL   H16047302   4.387   4.676   7.207 -1.1164 -1.6800  1.7868
  292MOL   H16147303   4.265   4.762   7.153 -0.7340 -0.1817  0.4167
  292MOL   H16247304   4.293   4.471   7.103 -2.3390  0.4258 -0.1826
  293MOL     C147305   3.894   4.397   2.839 -0.5148  0.0621  0.3902
  293MOL     C247306   3.847   4.388   2.979  0.2455 -0.4426 -0.1105
  293MOL     N347307   3.764   4.506   3.008 -0.7270  0.0120  0.1669
  293MOL     H447308   3.955   4.485   2.819 -1.4288  0.4108 -0.9247
  293MOL     H547309   3.818   4.404   2.761  1.4815  1.0321 -1.5460
  293MOL     H647310   3.935   4.402   3.043 -1.2633  0.7065  1.7829
  293MOL     H747311   3.800   4.544   3.094  0.9261  0.3678 -0.6649
  293MOL     H847312   3.671   4.474   3.030 -0.5429 -1.0701 -0.5941
  293MOL     H947313   3.967   4.324   2.802 -0.8095 -0.3632  0.6499
  293MOL    C1047314   3.779   4.256   3.018  0.0871 -0.3071 -0.2505
  293MOL    C1147315   3.875   4.139   3.033 -0.3531 -0.2799 -0.2149
  293MOL    N1247316   3.967   4.175   3.137  0.6018  0.7512 -0.4897
  293MOL    H1347317   3.734   4.271   3.117  1.8390  2.4461  0.1744
  293MOL    H1447318   3.696   4.228   2.953  0.9148 -1.9569 -0.6143
  293MOL    H1547319   3.935   4.119   2.943 -0.8979  0.5291 -0.7651
  293MOL    H1647320   3.913   4.198   3.219  2.0871 -2.6142  1.5572
  293MOL    H1747321   4.025   4.096   3.165 -2.1631 -0.6478  1.5128
  293MOL    C1847322   3.798   4.011   3.074 -0.4009 -0.2786  0.1316
  293MOL    C1947323   3.886   3.881   3.061 -0.2397 -0.0135  0.1596
  293MOL    N2047324   3.836   3.781   3.152 -0.2283 -0.2667 -0.3042
  293MOL    H2147325   3.761   4.019   3.176  1.4726 -0.5883  0.8465
  293MOL    H2247326   3.706   4.006   3.015  1.6725 -1.0995 -3.1789
  293MOL    H2347327   3.978   3.908   3.113 -0.0657  0.3219 -0.3139
  293MOL    H2447328   3.911   3.713   3.154  0.7262  0.8410  2.5656
  293MOL    H2547329   3.850   3.833   3.237  0.6453  1.1422 -1.2923
  293MOL    C2647330   3.884   3.816   2.918 -0.4228 -0.3519 -0.5231
  293MOL    C2747331   3.967   3.685   2.898 -1.2709 -0.0835  0.6500
  293MOL    N2847332   3.949   3.640   2.764 -0.1402 -0.3328  0.7930
  293MOL    H2947333   3.781   3.809   2.885 -0.6904  0.1836  0.2087
  293MOL    H3047334   3.932   3.891   2.855 -0.6699 -0.2798 -0.6242
  293MOL    H3147335   3.949   3.608   2.973 -0.2018 -1.3550 -0.3768
  293MOL    H3247336   4.022   3.569   2.756  1.1164  1.0802 -0.7377
  293MOL    H3347337   3.968   3.707   2.690 -1.6736 -1.1395 -0.3597
  293MOL    C3447338   4.124   3.711   2.928 -0.1943  0.0217  0.4195
  293MOL    C3547339   4.220   3.598   2.897 -0.1850  0.1579  1.0517
  293MOL    N3647340   4.351   3.639   2.943 -0.0333 -0.4594 -0.7031
  293MOL    H3747341   4.144   3.797   2.865 -0.4884  0.6034  1.1109
  293MOL    H3847342   4.131   3.740   3.033 -0.0076  1.9614 -0.1001
  293MOL    H3947343   4.221   3.582   2.789  1.3567 -3.0807  1.4678
  293MOL    H4047344   4.379   3.709   2.876  0.0072  0.3279  0.1327
  293MOL    H4147345   4.410   3.561   2.917 -2.5332 -2.3477 -0.9109
  293MOL    C4247346   4.184   3.456   2.961 -0.7912  0.8511  0.1059
  293MOL    C4347347   4.076   3.370   2.898 -0.2833  0.8769  1.0587
  293MOL    N4447348   4.126   3.327   2.765 -1.1056  0.7470  0.3892
  293MOL    H4547349   4.273   3.393   2.961 -0.7971  0.8407  0.3052
  293MOL    H4647350   4.170   3.471   3.068 -1.7411 -0.3489  0.1644
  293MOL    H4747351   3.981   3.419   2.879 -0.7134 -0.9394 -1.8334
  293MOL    H4847352   4.052   3.281   2.715 -0.9524  0.6556  0.2460
  293MOL    H4947353   4.129   3.414   2.713 -1.3697  1.0718  0.9048
  293MOL    C5047354   4.044   3.240   2.976  0.0919  0.5126 -0.2133
  293MOL    C5147355   3.932   3.249   3.078  0.1938  0.2176  0.0755
  293MOL    N5247356   3.807   3.293   3.008 -0.6118  0.0797 -0.0846
  293MOL    H5347357   4.007   3.174   2.897  0.2808 -0.8218  0.8014
  293MOL    H5447358   4.137   3.190   3.002 -0.2976  0.1965  0.5783
  293MOL    H5547359   3.962   3.311   3.162  1.3189  1.4523 -1.2229
  293MOL    H5647360   3.823   3.393   3.013  0.3339 -0.1759  2.4850
  293MOL    H5747361   3.723   3.285   3.064  0.8422  0.1377  2.1702
  293MOL    C5847362   3.890   3.117   3.154 -0.4637 -0.6542  0.2468
  293MOL    C5947363   4.004   3.072   3.259  0.4383  0.3059 -0.0984
  293MOL    N6047364   3.957   3.114   3.388 -0.0163  0.0689  0.2852
  293MOL    H6147365   3.791   3.119   3.199 -1.2674 -1.3273 -1.4438
  293MOL    H6247366   3.883   3.034   3.083  1.0445  0.8599 -1.7251
  293MOL    H6347367   4.093   3.127   3.228  1.0088 -0.3512  0.3771
  293MOL    H6447368   3.947   3.214   3.395 -1.0365  0.0854 -1.0972
  293MOL    H6547369   3.859   3.090   3.394 -0.4159  0.8612 -2.3739
  293MOL    C6647370   4.013   2.914   3.259 -0.8316  0.2976  0.0725
  293MOL    C6747371   4.137   2.872   3.171 -0.4270  0.1222  0.0774
  293MOL    N6847372   4.171   2.744   3.230 -0.3155  0.5891  0.3718
  293MOL    H6947373   4.035   2.873   3.358 -1.4070 -1.0246 -0.3294
  293MOL    H7047374   3.919   2.874   3.219 -0.6023  0.7262 -0.8979
  293MOL    H7147375   4.225   2.934   3.191  0.0523 -0.0735 -1.3409
  293MOL    H7247376   4.216   2.680   3.166  1.8221  1.1288  1.2896
  293MOL    H7347377   4.237   2.745   3.306 -1.0051  1.8645  0.9681
  293MOL    C7447378   4.112   2.873   3.014 -0.2776  0.0871 -0.4855
  293MOL    C7547379   4.013   2.770   2.958 -0.0866  0.2248 -0.2023
  293MOL    N7647380   3.961   2.825   2.836 -0.2800  0.6581 -0.1737
  293MOL    H7747381   4.108   2.978   2.988  0.6672  0.7108  1.7969
  293MOL    H7847382   4.200   2.848   2.954 -1.0645  0.8609 -1.9794
  293MOL    H7947383   3.939   2.747   3.035 -0.7780 -0.0266 -0.9312
  293MOL    H8047384   3.921   2.756   2.775  0.4929  0.8804 -0.9477
  293MOL    H8147385   3.894   2.896   2.862 -1.1042 -0.3688  0.5628
  293MOL    C8247386   4.084   2.641   2.919  0.3833 -0.4791 -0.1546
  293MOL    C8347387   3.982   2.520   2.889  0.2955 -0.4715 -0.6587
  293MOL    N8447388   4.069   2.412   2.839 -0.2291 -0.7222 -0.1286
  293MOL    H8547389   4.143   2.646   2.828  1.2363  1.7526  0.4909
  293MOL    H8647390   4.156   2.608   2.994  3.1053  1.7733 -1.6611
  293MOL    H8747391   3.911   2.539   2.808  1.5779  0.2297 -1.6376
  293MOL    H8847392   4.133   2.359   2.897 -2.1410 -2.2061  0.6765
  293MOL    H8947393   4.024   2.349   2.774 -0.4145  0.5901 -1.3056
  293MOL    C9047394   3.904   2.464   3.016 -0.0469  0.4729 -0.5651
  293MOL    C9147395   3.761   2.528   3.042  0.1993 -0.2997  0.2789
  293MOL    N9247396   3.659   2.459   2.965  0.1095 -0.9786 -0.4586
  293MOL    H9347397   3.898   2.356   3.029 -1.9927  0.5354 -0.8029
  293MOL    H9447398   3.974   2.499   3.092 -0.0175  0.6508 -0.6722
  293MOL    H9547399   3.757   2.633   3.012  0.0991 -0.4990 -0.4120
  293MOL    H9647400   3.595   2.535   2.950 -0.0651 -0.6955  1.5727
  293MOL    H9747401   3.685   2.439   2.870  1.0853 -0.9974 -0.1976
  293MOL    C9847402   3.727   2.510   3.184  0.3863 -0.0792 -0.2098
  293MOL    C9947403   3.780   2.626   3.282  0.2172 -0.2431 -0.1688
  293MOL   N10047404   3.679   2.731   3.288 -0.0452 -0.0554 -0.2624
  293MOL   H10147405   3.618   2.511   3.192  0.3682  0.6800 -0.4858
  293MOL   H10247406   3.760   2.413   3.222  0.8625 -0.3398 -1.2763
  293MOL   H10347407   3.879   2.662   3.251  0.6102 -0.6490  0.5891
  293MOL   H10447408   3.602   2.700   3.345  0.4271 -0.4594  0.1561
  293MOL   H10547409   3.716   2.812   3.335  0.4466 -0.3054 -0.2169
  293MOL   C10647410   3.809   2.571   3.422 -0.6089  1.0034  0.4072
  293MOL   C10747411   3.926   2.474   3.432  0.1220  0.0798 -0.2473
  293MOL   N10847412   4.054   2.545   3.437  0.3841 -0.0790 -0.2997
  293MOL   H10947413   3.819   2.657   3.488  2.8304 -0.9636  2.5881
  293MOL   H11047414   3.719   2.517   3.451  0.7050 -0.7444  1.3442
  293MOL   H11147415   3.932   2.424   3.336 -0.2703  0.0639 -0.2648
  293MOL   H11247416   4.057   2.609   3.360  1.3067  0.7848  0.4397
  293MOL   H11347417   4.051   2.599   3.523  1.6063 -1.7007  0.7905
  293MOL   C11447418   3.919   2.369   3.543  0.2659 -0.5132 -0.0945
  293MOL   C11547419   3.932   2.219   3.497 -0.0012  0.0035 -0.9143
  293MOL   N11647420   4.038   2.147   3.566 -0.0005 -0.0226 -0.5923
  293MOL   H11747421   3.997   2.393   3.616 -0.7304 -1.9680  1.4583
  293MOL   H11847422   3.828   2.388   3.600  1.0173  0.3599  0.8513
  293MOL   H11947423   3.951   2.206   3.390  0.7172 -1.4439 -0.6200
  293MOL   H12047424   4.029   2.165   3.664 -0.7845  0.5478 -0.7684
  293MOL   H12147425   4.124   2.197   3.547 -0.2891  0.1659 -1.4553
  293MOL   C12247426   3.801   2.142   3.524  0.5475  0.8379 -0.9559
  293MOL   C12347427   3.679   2.195   3.455  0.2949 -0.2011  0.1953
  293MOL   N12447428   3.696   2.147   3.316 -0.1571  0.8601 -0.0435
  293MOL   H12547429   3.823   2.038   3.499 -1.0061  0.2516  0.0757
  293MOL   H12647430   3.781   2.137   3.631 -0.2478 -1.6289 -1.1880
  293MOL   H12747431   3.682   2.303   3.447  0.9143 -0.0232  2.3764
  293MOL   H12847432   3.618   2.174   3.257  0.5929  1.2937 -0.8531
  293MOL   H12947433   3.700   2.047   3.304 -0.3553  0.9928 -1.2385
  293MOL   C13047434   3.546   2.140   3.503 -0.2566 -0.1389  0.3529
  293MOL   C13147435   3.489   2.185   3.636 -0.4049 -0.5543 -0.5689
  293MOL   N13247436   3.556   2.122   3.744  0.2225 -0.2841 -0.0524
  293MOL   H13347437   3.479   2.168   3.422 -0.1100  0.9286  0.5930
  293MOL   H13447438   3.547   2.031   3.497 -3.3397 -0.1684 -0.0636
  293MOL   H13547439   3.393   2.135   3.624  0.0554 -1.2934 -1.1770
  293MOL   H13647440   3.600   2.036   3.717 -1.0046 -1.0583  0.3600
  293MOL   H13747441   3.490   2.095   3.815  0.3361 -1.9990 -0.5804
  293MOL   C13847442   3.470   2.339   3.674 -0.0942  0.0022 -0.3080
  293MOL   C13947443   3.360   2.405   3.594  0.2298 -0.6971 -0.4031
  293MOL   N14047444   3.286   2.514   3.660 -0.3042 -0.6236 -0.0118
  293MOL   H14147445   3.436   2.338   3.778  3.4979 -1.3732  0.9310
  293MOL   H14247446   3.564   2.394   3.679 -0.8617  1.4104 -1.2067
  293MOL   H14347447   3.278   2.338   3.567 -0.3191  0.6975 -2.2905
  293MOL   H14447448   3.210   2.522   3.594 -1.3511 -1.1133  1.1003
  293MOL   H14547449   3.243   2.483   3.746 -0.6586 -0.4274 -0.1184
  293MOL   C14647450   3.422   2.467   3.466  0.0778 -0.4840  0.1369
  293MOL   C14747451   3.329   2.493   3.347  0.0742  0.0262 -0.7058
  293MOL   N14847452   3.381   2.602   3.268 -0.5048 -0.4536  0.0550
  293MOL   H14947453   3.478   2.558   3.488 -0.6954  0.1856 -0.6286
  293MOL   H15047454   3.504   2.402   3.436  0.3618  0.3949 -1.0264
  293MOL   H15147455   3.229   2.518   3.383  0.3823 -1.1916  1.0426
  293MOL   H15247456   3.351   2.691   3.305  1.1081  0.7340 -1.3629
  293MOL   H15347457   3.482   2.606   3.277 -0.6570 -0.0862  1.6902
  293MOL   C15447458   3.315   2.381   3.246 -0.1830  0.2346 -0.2965
  293MOL   C15547459   3.232   2.262   3.288 -0.0817  0.2391 -0.1292
  293MOL   N15647460   3.237   2.156   3.197  0.0041 -0.2146 -0.1856
  293MOL   H15747461   3.274   2.413   3.150  2.2756  1.9960 -0.8019
  293MOL   H15847462   3.414   2.341   3.223  0.3166  1.6231 -0.6190
  293MOL   H15947463   3.130   2.300   3.283 -0.0784 -0.0555 -3.1513
  293MOL   H16047464   3.160   2.138   3.135  0.6211  2.0109 -1.6351
  293MOL   H16147465   3.318   2.163   3.137  0.4945  1.7866  0.6527
  293MOL   H16247466   3.256   2.226   3.389 -1.8817  0.4466  0.3952
  294MOL     C147467   1.884   2.181   2.706  0.0934 -0.0574  0.4617
  294MOL     C247468   1.919   2.335   2.680 -0.1349 -0.6397 -0.5402
  294MOL     N347469   1.843   2.388   2.577  0.1234  0.0067  0.1982
  294MOL     H447470   1.784   2.152   2.737  0.2332 -0.6851  0.3321
  294MOL     H547471   1.937   2.147   2.794  0.8313  1.2125  0.5238
  294MOL     H647472   2.026   2.338   2.664  0.0949  1.2764  1.1566
  294MOL     H747473   1.859   2.326   2.499 -0.5111 -1.3592  1.1339
  294MOL     H847474   1.744   2.378   2.591  0.2272  0.8341  1.6639
  294MOL     H947475   1.922   2.122   2.622  2.8023 -1.1937  2.4413
  294MOL    C1047476   1.882   2.404   2.815  0.2591  0.3529  0.1621
  294MOL    C1147477   2.010   2.421   2.895 -0.5111  0.0766  0.3757
  294MOL    N1247478   2.094   2.524   2.831 -0.0813  0.2426  1.0712
  294MOL    H1347479   1.834   2.502   2.803 -1.5341 -0.5072  0.1304
  294MOL    H1447480   1.805   2.350   2.870 -2.1249  2.5384 -0.9000
  294MOL    H1547481   2.064   2.326   2.895 -2.1326 -0.9225  2.8007
  294MOL    H1647482   2.098   2.512   2.730 -1.4859  0.6664  0.9523
  294MOL    H1747483   2.188   2.501   2.860 -0.3382 -0.9080  1.0317
  294MOL    C1847484   1.987   2.468   3.043 -0.9600 -0.2088 -0.4288
  294MOL    C1947485   1.941   2.359   3.141 -0.4876 -0.2064 -0.0600
  294MOL    N2047486   2.057   2.299   3.197 -0.6090 -0.3011 -0.1201
  294MOL    H2147487   2.080   2.509   3.081 -0.4674 -1.5265 -0.1812
  294MOL    H2247488   1.919   2.553   3.035 -1.3883 -0.6714 -1.9699
  294MOL    H2347489   1.882   2.286   3.087  0.0758  0.3442 -1.4379
  294MOL    H2447490   2.052   2.281   3.296 -1.8942  0.3826 -0.0635
  294MOL    H2547491   2.080   2.210   3.154 -1.1795 -1.0103  1.0098
  294MOL    C2647492   1.870   2.422   3.262  0.2086 -0.1335  0.1791
  294MOL    C2747493   1.735   2.478   3.223  0.8661  0.7436  0.4333
  294MOL    N2847494   1.631   2.374   3.221  0.1319 -0.3862 -0.4078
  294MOL    H2947495   1.860   2.353   3.345  0.4663 -1.6772 -1.0629
  294MOL    H3047496   1.923   2.505   3.309 -0.8994 -0.4193  1.9744
  294MOL    H3147497   1.729   2.515   3.121  0.7873  0.8148  0.4639
  294MOL    H3247498   1.602   2.360   3.317 -0.9970 -3.0891 -1.0991
  294MOL    H3347499   1.664   2.287   3.182  1.9282  0.2826 -0.4552
  294MOL    C3447500   1.685   2.594   3.319 -0.3215 -0.1514  0.3323
  294MOL    C3547501   1.775   2.721   3.310  0.1735 -0.2640 -0.0529
  294MOL    N3647502   1.693   2.842   3.309  0.2255  0.4281 -0.4583
  294MOL    H3747503   1.585   2.628   3.292 -0.5244 -0.3021  0.9014
  294MOL    H3847504   1.685   2.562   3.423 -1.2285  0.2578  0.4595
  294MOL    H3947505   1.815   2.730   3.209 -1.3792  0.4639 -0.5994
  294MOL    H4047506   1.628   2.835   3.232  0.2573 -0.0332 -0.4409
  294MOL    H4147507   1.756   2.915   3.279  0.5385  0.5810  0.5346
  294MOL    C4247508   1.887   2.733   3.425  0.7296 -0.8044  0.3398
  294MOL    C4347509   2.030   2.750   3.372  0.4076 -0.0415 -0.1876
  294MOL    N4447510   2.062   2.893   3.358 -0.2505 -0.2562 -0.1213
  294MOL    H4547511   1.865   2.810   3.498 -0.8457 -0.0068 -0.9404
  294MOL    H4647512   1.879   2.643   3.486 -0.9116 -0.2416  0.9717
  294MOL    H4747513   2.040   2.705   3.274  2.7154  2.1577 -1.0287
  294MOL    H4847514   1.983   2.926   3.304 -0.9514 -0.8837  0.4901
  294MOL    H4947515   2.043   2.936   3.448  0.8940  0.2902 -0.1377
  294MOL    C5047516   2.138   2.692   3.464 -0.5894  0.6659 -0.2241
  294MOL    C5147517   2.147   2.539   3.484 -0.1265 -0.0112  0.5315
  294MOL    N5247518   2.226   2.483   3.374  0.4549  0.4061 -0.6497
  294MOL    H5347519   2.237   2.724   3.430  1.0464 -2.5895  1.2128
  294MOL    H5447520   2.133   2.739   3.562  2.1054  1.1658 -0.2950
  294MOL    H5547521   2.055   2.481   3.481 -0.7780  0.7735  3.4476
  294MOL    H5647522   2.168   2.471   3.292  1.2069  1.3282 -1.3255
  294MOL    H5747523   2.266   2.394   3.399 -0.4359  0.4603  1.0775
  294MOL    C5847524   2.212   2.504   3.612 -0.3442 -0.1987 -0.1568
  294MOL    C5947525   2.117   2.511   3.732  0.0351  0.0383  1.0045
  294MOL    N6047526   2.047   2.381   3.738  0.3100 -0.2462  0.0058
  294MOL    H6147527   2.265   2.409   3.604  1.2112  0.6857 -0.4568
  294MOL    H6247528   2.291   2.573   3.639 -1.6262  1.8921 -1.6370
  294MOL    H6347529   2.045   2.590   3.710 -0.9248 -0.8820  0.7924
  294MOL    H6447530   2.106   2.303   3.762  1.6777  0.6437 -0.3696
  294MOL    H6547531   2.004   2.359   3.650 -1.4589  0.2397  0.7084
  294MOL    C6647532   2.170   2.529   3.873  0.7998 -0.0593  0.2198
  294MOL    C6747533   2.249   2.662   3.901  0.7471 -0.6991 -0.1980
  294MOL    N6847534   2.155   2.767   3.879 -0.0253  0.0203  1.2436
  294MOL    H6947535   2.090   2.526   3.947  0.2529  1.0266 -0.3078
  294MOL    H7047536   2.239   2.446   3.888  0.0460 -0.4101  1.8194
  294MOL    H7147537   2.332   2.675   3.832 -0.6394  1.4422 -1.4948
  294MOL    H7247538   2.195   2.859   3.863 -0.3920 -0.5208 -3.4827
  294MOL    H7347539   2.089   2.790   3.952  0.2466  2.1500  0.8768
  294MOL    C7447540   2.300   2.671   4.046 -0.1622  0.3316 -0.2288
  294MOL    C7547541   2.408   2.559   4.074  0.0840  0.1403 -0.1917
  294MOL    N7647542   2.516   2.606   4.154 -0.6358  0.2359 -0.8386
  294MOL    H7747543   2.347   2.769   4.056 -2.7628  1.6166 -0.0331
  294MOL    H7847544   2.215   2.674   4.114 -0.0529 -3.2334  0.1337
  294MOL    H7947545   2.457   2.525   3.983  0.3110  2.4853 -0.9780
  294MOL    H8047546   2.560   2.680   4.101  1.0740  0.2355  0.5382
  294MOL    H8147547   2.589   2.537   4.160  0.1915  0.8976 -2.8682
  294MOL    C8247548   2.340   2.442   4.154 -0.3759  0.3118  0.2620
  294MOL    C8347549   2.416   2.305   4.167  0.2055 -0.5953 -0.3483
  294MOL    N8447550   2.342   2.218   4.264  0.1110 -0.1109  0.0791
  294MOL    H8547551   2.308   2.482   4.250  0.1653  1.9798 -0.2214
  294MOL    H8647552   2.247   2.422   4.102  0.4580  0.1821 -1.2141
  294MOL    H8747553   2.508   2.332   4.219  0.2045  0.5840 -0.9493
  294MOL    H8847554   2.327   2.268   4.350 -2.5687 -1.4352  0.4224
  294MOL    H8947555   2.403   2.147   4.303 -0.3103 -1.2904 -1.3822
  294MOL    C9047556   2.447   2.228   4.039  0.2044  0.2664 -0.0273
  294MOL    C9147557   2.556   2.117   4.044  0.2459  0.8990  0.1477
  294MOL    N9247558   2.535   2.024   3.934  0.4461  1.0048  0.2061
  294MOL    H9347559   2.356   2.178   4.004  0.9735 -0.6893 -0.6693
  294MOL    H9447560   2.480   2.299   3.963 -0.5358  0.7163  0.0610
  294MOL    H9547561   2.534   2.066   4.137 -0.8240 -0.3884 -0.7952
  294MOL    H9647562   2.626   1.980   3.936  1.2191  2.5074 -0.4929
  294MOL    H9747563   2.552   2.085   3.855  4.7573  0.4875  0.6053
  294MOL    C9847564   2.698   2.162   4.029  0.8219 -0.3150 -0.0219
  294MOL    C9947565   2.762   2.201   4.169 -0.1196  0.4366 -0.1585
  294MOL   N10047566   2.786   2.068   4.221 -0.1940 -0.0428 -1.2658
  294MOL   H10147567   2.762   2.097   3.971 -0.8018 -2.0703  0.1071
  294MOL   H10247568   2.696   2.255   3.972 -1.9484  0.2688  0.9232
  294MOL   H10347569   2.678   2.247   4.221 -0.3449 -0.5402  0.3548
  294MOL   H10447570   2.823   2.063   4.315  0.1860  0.1891 -1.4001
  294MOL   H10547571   2.842   2.000   4.172  0.4402  0.2640 -0.9794
  294MOL   C10647572   2.890   2.288   4.173  0.8304 -0.1845  0.2110
  294MOL   C10747573   2.885   2.424   4.100  0.7338  0.4808  0.3728
  294MOL   N10847574   2.808   2.517   4.181  0.0559  0.2259  0.1152
  294MOL   H10947575   2.915   2.310   4.276  0.6199 -0.1658  0.2587
  294MOL   H11047576   2.974   2.222   4.154  2.4613  1.2550  2.3004
  294MOL   H11147577   2.827   2.416   4.008 -0.0019 -0.5661  0.9116
  294MOL   H11247578   2.841   2.533   4.275 -0.4329 -2.7717  0.8532
  294MOL   H11347579   2.818   2.610   4.143  0.1034  0.3894  0.5269
  294MOL   C11447580   3.021   2.489   4.070 -0.0331  0.6765 -0.1789
  294MOL   C11547581   3.085   2.476   3.932 -0.0778 -0.5890 -0.6011
  294MOL   N11647582   3.223   2.526   3.937 -0.5604 -0.0290  0.4443
  294MOL   H11747583   2.998   2.595   4.075  0.3928  0.7394  0.4857
  294MOL   H11847584   3.097   2.463   4.143 -0.7662 -1.2871 -0.0595
  294MOL   H11947585   3.028   2.537   3.862 -0.7400 -1.3173 -0.7021
  294MOL   H12047586   3.230   2.625   3.954  0.0126  0.1571 -0.8011
  294MOL   H12147587   3.281   2.490   4.011 -1.8540  0.7540  1.8686
  294MOL   C12247588   3.105   2.333   3.886 -0.6578  0.2199 -0.2400
  294MOL   C12347589   2.980   2.263   3.818 -0.2752 -0.4705  0.5959
  294MOL   N12447590   2.898   2.361   3.739 -0.0915  0.6354 -0.5986
  294MOL   H12547591   3.194   2.325   3.823 -1.3349  0.6213 -1.2552
  294MOL   H12647592   3.127   2.270   3.972 -3.5159 -1.0043 -0.3715
  294MOL   H12747593   2.917   2.222   3.897  0.6840 -1.1566  1.0076
  294MOL   H12847594   2.812   2.322   3.702  0.2106 -0.1300 -0.4844
  294MOL   H12947595   2.853   2.432   3.795  0.1875  0.7842 -0.5637
  294MOL   C13047596   3.006   2.136   3.733  0.1063 -0.5029  0.0839
  294MOL   C13147597   3.044   2.005   3.806  0.2886 -0.2046  0.1398
  294MOL   N13247598   3.019   1.904   3.708 -0.5489 -0.0660  0.0029
  294MOL   H13347599   2.908   2.135   3.685  1.0824  1.3475 -2.0497
  294MOL   H13447600   3.083   2.143   3.657  0.2991 -2.6467  0.0626
  294MOL   H13547601   2.986   1.981   3.895  2.2547 -0.5486  1.3553
  294MOL   H13647602   3.055   1.930   3.618  0.1982  0.6620  0.4997
  294MOL   H13747603   3.082   1.827   3.724  0.9975  1.5421  1.9859
  294MOL   C13847604   3.191   2.010   3.835  0.4199 -0.2593  0.0586
  294MOL   C13947605   3.239   1.929   3.955 -0.6747  0.1694 -0.2163
  294MOL   N14047606   3.383   1.934   3.962 -0.5736  0.3655  0.3689
  294MOL   H14147607   3.250   1.996   3.745 -1.8545  1.1225 -1.6913
  294MOL   H14247608   3.217   2.107   3.876  2.1511 -0.2989 -0.8900
  294MOL   H14347609   3.207   1.826   3.939  1.4864 -0.6062  0.2925
  294MOL   H14447610   3.423   1.888   3.882 -0.0468  0.8226  0.3693
  294MOL   H14547611   3.417   1.884   4.043 -0.6300  0.5108  0.4808
  294MOL   C14647612   3.180   1.958   4.101 -0.0407 -0.8252 -0.5953
  294MOL   C14747613   3.186   1.847   4.201 -0.4499 -0.3491 -0.1255
  294MOL   N14847614   3.209   1.905   4.328  0.0532 -0.0070 -0.1625
  294MOL   H14947615   3.224   2.051   4.136  1.6432 -1.2463 -1.5159
  294MOL   H15047616   3.073   1.980   4.100  0.4138  1.8408  2.3108
  294MOL   H15147617   3.262   1.776   4.170 -3.2372 -2.6593 -1.9530
  294MOL   H15247618   3.186   2.003   4.319  0.4300  0.0057 -1.0330
  294MOL   H15347619   3.150   1.876   4.405 -1.1692 -0.8311 -1.3792
  294MOL   C15447620   3.062   1.764   4.209  0.5738  0.1902  0.5852
  294MOL   C15547621   3.010   1.703   4.074  0.7837 -0.0803 -0.2859
  294MOL   N15647622   2.893   1.612   4.082  0.2612 -0.2341  0.2093
  294MOL   H15747623   3.088   1.681   4.275  1.2633 -1.1230 -1.2923
  294MOL   H15847624   2.987   1.829   4.254  1.7559  2.6469 -0.9247
  294MOL   H15947625   3.084   1.630   4.043 -0.0865 -1.8258  1.6420
  294MOL   H16047626   2.817   1.652   4.136 -2.6521 -0.3644 -3.5714
  294MOL   H16147627   2.912   1.522   4.123 -1.6206 -0.2938  1.0169
  294MOL   H16247628   2.996   1.781   3.999  0.3836  0.2799  0.1592
  295MOL     C147629   5.330   6.468   1.805 -1.0076 -0.1686  0.1389
  295MOL     C247630   5.276   6.345   1.882  0.6209  0.4672 -0.2200
  295MOL     N347631   5.347   6.340   2.011  0.5433 -0.0629 -0.5275
  295MOL     H447632   5.438   6.480   1.811 -1.2182  1.7701  0.3914
  295MOL     H547633   5.284   6.560   1.842 -0.8876 -1.0762  2.6674
  295MOL     H647634   5.304   6.259   1.820 -0.9666  2.2307 -3.5135
  295MOL     H747635   5.446   6.326   2.000  0.1883 -0.8803 -2.9302
  295MOL     H847636   5.312   6.252   2.047 -1.6503  1.9131  2.4352
  295MOL     H947637   5.307   6.461   1.699  1.5412  0.5338 -0.4864
  295MOL    C1047638   5.123   6.341   1.902  0.8676 -0.7620  0.2176
  295MOL    C1147639   5.051   6.309   1.769  0.6168  0.1257  0.2110
  295MOL    N1247640   5.047   6.169   1.741  0.3477  0.0110 -0.1485
  295MOL    H1347641   5.116   6.261   1.975  1.3957 -1.5026 -0.5348
  295MOL    H1447642   5.097   6.433   1.954  0.1734 -0.3642 -0.8172
  295MOL    H1547643   5.103   6.353   1.684 -0.6170 -0.3143 -0.7931
  295MOL    H1647644   4.992   6.154   1.658 -1.2495 -1.1357  1.0936
  295MOL    H1747645   4.986   6.114   1.799 -0.7069  1.2862 -0.0322
  295MOL    C1847646   4.913   6.367   1.755  0.0331  0.5200 -0.6467
  295MOL    C1947647   4.909   6.518   1.723  0.2775 -0.4698 -0.2647
  295MOL    N2047648   4.803   6.539   1.625  0.0447  0.6404 -0.1788
  295MOL    H2147649   4.855   6.309   1.683  1.5334 -0.4244 -1.1057
  295MOL    H2247650   4.858   6.352   1.848 -0.6152 -1.1741 -1.2886
  295MOL    H2347651   5.009   6.550   1.693  0.4806 -0.8164  0.0339
  295MOL    H2447652   4.820   6.463   1.561 -1.1019  0.3446 -0.1417
  295MOL    H2547653   4.814   6.623   1.570  0.1949  0.9318  0.2880
  295MOL    C2647654   4.862   6.597   1.852  0.3536 -0.3578 -0.4509
  295MOL    C2747655   4.892   6.748   1.850 -0.1308  0.2927  0.0796
  295MOL    N2847656   4.804   6.814   1.950 -0.0392  0.1110 -0.2618
  295MOL    H2947657   4.754   6.595   1.864  0.4617 -3.2154  0.3412
  295MOL    H3047658   4.895   6.556   1.948  0.3823  1.3872  0.2950
  295MOL    H3147659   4.881   6.777   1.745  1.9420 -3.4688 -1.2764
  295MOL    H3247660   4.746   6.746   1.997  1.4937 -1.3475 -0.4333
  295MOL    H3347661   4.858   6.860   2.022  0.3304  3.0271 -2.3177
  295MOL    C3447662   5.038   6.777   1.902 -0.5305  0.0422  0.2607
  295MOL    C3547663   5.110   6.881   1.821  0.1394  0.7715 -0.1711
  295MOL    N3647664   5.219   6.936   1.894  0.2064  1.0514  0.6596
  295MOL    H3747665   5.035   6.799   2.008  2.1108  1.9933 -0.0451
  295MOL    H3847666   5.097   6.686   1.895 -0.1743  0.3607 -1.0900
  295MOL    H3947667   5.043   6.960   1.785  0.0288  0.0882 -1.5083
  295MOL    H4047668   5.256   7.023   1.857  0.7798  0.4957 -0.1035
  295MOL    H4147669   5.200   6.942   1.993  0.3719  2.2101  0.6257
  295MOL    C4247670   5.164   6.818   1.686 -0.3160  0.3093 -0.1246
  295MOL    C4347671   5.230   6.922   1.591  0.1884 -0.0456  0.7377
  295MOL    N4447672   5.371   6.896   1.566  0.8507 -0.0313 -0.1332
  295MOL    H4547673   5.224   6.732   1.716  0.6608  0.7341 -0.8572
  295MOL    H4647674   5.074   6.773   1.644 -0.8130 -0.6749  1.9266
  295MOL    H4747675   5.219   7.025   1.625 -1.7612  0.0680 -0.2084
  295MOL    H4847676   5.409   6.982   1.529 -1.2076 -0.0840 -2.4867
  295MOL    H4947677   5.414   6.868   1.653 -1.6689  2.4541  2.0583
  295MOL    C5047678   5.163   6.921   1.452  0.1270  0.0073 -0.4825
  295MOL    C5147679   5.022   6.995   1.456 -0.3175 -0.3827  0.0410
  295MOL    N5247680   5.047   7.136   1.456  0.2948  0.3293  0.1310
  295MOL    H5347681   5.229   6.967   1.379  0.1881  0.0053 -0.4278
  295MOL    H5447682   5.141   6.822   1.412  2.5941 -0.8777  0.2528
  295MOL    H5547683   4.969   6.975   1.549 -0.4326 -3.5224 -0.6460
  295MOL    H5647684   4.966   7.194   1.439 -0.9395 -1.1777  0.7865
  295MOL    H5747685   5.107   7.160   1.378  0.3783  1.8936  0.6523
  295MOL    C5847686   4.934   6.968   1.333  0.1275 -0.1929  0.4978
  295MOL    C5947687   4.875   6.823   1.330  0.4908 -0.3551 -0.4657
  295MOL    N6047688   4.797   6.786   1.453  0.3633 -0.0291  0.2370
  295MOL    H6147689   4.854   7.042   1.331 -0.4604 -0.8371  0.3699
  295MOL    H6247690   5.004   6.984   1.250  0.3065  2.1251  1.0540
  295MOL    H6347691   4.962   6.757   1.324  0.1370 -0.9533  0.8179
  295MOL    H6447692   4.807   6.856   1.525  3.0467 -0.3785  0.2551
  295MOL    H6547693   4.699   6.779   1.431  0.3502 -1.1600  0.6048
  295MOL    C6647694   4.781   6.805   1.209 -0.4413 -0.3481  0.6657
  295MOL    C6747695   4.819   6.690   1.120  0.2790 -0.1733 -0.1384
  295MOL    N6847696   4.708   6.667   1.033  0.4545  0.1956 -0.4225
  295MOL    H6947697   4.677   6.798   1.241 -0.7132 -0.0031 -0.1471
  295MOL    H7047698   4.779   6.901   1.157  0.9559 -0.4381  0.4158
  295MOL    H7147699   4.828   6.598   1.177  1.2049  0.2292  0.3733
  295MOL    H7247700   4.641   6.594   1.053 -1.1913  1.9863  0.7559
  295MOL    H7347701   4.754   6.622   0.956  2.0050  1.2838 -0.1519
  295MOL    C7447702   4.943   6.721   1.035 -0.6870  0.2730 -0.6342
  295MOL    C7547703   5.033   6.591   1.021  0.7442 -0.0580 -0.5720
  295MOL    N7647704   5.123   6.617   0.910  0.0308 -0.3306 -0.5967
  295MOL    H7747705   4.918   6.754   0.934 -0.4579  2.1824 -0.0985
  295MOL    H7847706   5.003   6.800   1.081  1.7268 -2.5332  1.2596
  295MOL    H7947707   4.975   6.503   0.997 -1.1511  1.0892 -0.3404
  295MOL    H8047708   5.195   6.547   0.919  0.8969  0.8800  2.4913
  295MOL    H8147709   5.168   6.704   0.937 -0.0087 -1.1460  2.2438
  295MOL    C8247710   5.117   6.557   1.146 -0.0844  0.7183  0.1313
  295MOL    C8347711   5.121   6.396   1.170  0.1049 -0.6938  0.2647
  295MOL    N8447712   5.250   6.354   1.116  0.0362 -0.2010  0.0219
  295MOL    H8547713   5.219   6.594   1.133  0.8841 -1.5672  0.8877
  295MOL    H8647714   5.062   6.600   1.230 -3.2768 -1.5493 -0.7055
  295MOL    H8747715   5.034   6.348   1.126  1.2351 -0.4490 -2.3415
  295MOL    H8847716   5.249   6.253   1.110 -0.6550 -0.3289  1.8852
  295MOL    H8947717   5.247   6.379   1.018 -2.8953 -0.2667  0.0550
  295MOL    C9047718   5.137   6.358   1.316 -0.1582 -0.2746 -0.4742
  295MOL    C9147719   5.131   6.207   1.360  0.3987  0.1319  0.8927
  295MOL    N9247720   5.219   6.205   1.471  0.3381  0.3390  0.1100
  295MOL    H9347721   5.225   6.414   1.346 -0.4160  0.0650 -0.3479
  295MOL    H9447722   5.056   6.416   1.361  0.1673 -0.5343  0.4560
  295MOL    H9547723   5.165   6.147   1.276  0.0832  0.3892  0.5787
  295MOL    H9647724   5.196   6.276   1.539 -0.0701  1.9936 -1.7190
  295MOL    H9747725   5.201   6.121   1.525 -0.5807  0.4250 -0.0652
  295MOL    C9847726   4.986   6.156   1.396 -0.3007  0.5930  0.0329
  295MOL    C9947727   4.972   6.013   1.447 -0.4077  0.5945  0.0583
  295MOL   N10047728   4.866   6.000   1.546 -0.1302 -0.0597  0.0537
  295MOL   H10147729   4.954   6.228   1.471  0.2500 -0.2834  1.1278
  295MOL   H10247730   4.925   6.188   1.312 -0.3243 -0.3009 -0.2977
  295MOL   H10347731   5.064   5.982   1.496 -0.3075 -1.6743 -1.4649
  295MOL   H10447732   4.780   5.980   1.497 -1.2502  0.8776  1.6187
  295MOL   H10547733   4.888   5.919   1.602  0.6052 -0.2007 -0.4223
  295MOL   C10647734   4.947   5.900   1.342 -0.2562 -0.3683  0.3187
  295MOL   C10747735   5.065   5.877   1.233  0.7324 -0.6359 -0.3444
  295MOL   N10847736   5.184   5.840   1.309 -0.0430 -0.4739  0.4814
  295MOL   H10947737   4.923   5.803   1.386 -0.9038 -1.0309 -1.4393
  295MOL   H11047738   4.852   5.922   1.292 -0.1414  0.0162  0.2669
  295MOL   H11147739   5.083   5.966   1.173  0.7845 -0.4415 -0.0447
  295MOL   H11247740   5.225   5.917   1.359  0.4820  0.6658 -1.6213
  295MOL   H11347741   5.261   5.834   1.243  1.5064 -2.0814  2.3841
  295MOL   C11447742   5.036   5.763   1.138 -0.0637  0.4307  0.0871
  295MOL   C11547743   4.941   5.789   1.026  0.1016 -0.8407  0.2263
  295MOL   N11647744   5.012   5.837   0.908  0.0457 -0.1551 -0.1444
  295MOL   H11747745   5.129   5.724   1.096  0.1697 -0.1935  1.1816
  295MOL   H11847746   5.002   5.680   1.200 -1.0743 -0.0036 -1.0300
  295MOL   H11947747   4.881   5.878   1.046  1.4968 -0.0100  0.8298
  295MOL   H12047748   4.945   5.840   0.832 -0.2103 -3.8243 -0.1384
  295MOL   H12147749   5.034   5.935   0.920 -2.3326  0.5052 -0.9932
  295MOL   C12247750   4.843   5.672   0.990  0.1721  0.1832  0.7439
  295MOL   C12347751   4.731   5.652   1.092  0.1383  0.0711  1.0286
  295MOL   N12447752   4.619   5.732   1.049 -0.2295 -0.0413 -0.3542
  295MOL   H12547753   4.811   5.673   0.885  1.1940  2.5887  0.4412
  295MOL   H12647754   4.908   5.584   0.992  1.7018  1.2244 -1.2153
  295MOL   H12747755   4.781   5.686   1.183 -0.3565  0.6683  1.0762
  295MOL   H12847756   4.550   5.734   1.123 -0.8925  1.4625 -0.9857
  295MOL   H12947757   4.646   5.826   1.022 -0.3017  0.2262  0.4940
  295MOL   C13047758   4.687   5.506   1.094 -0.3720 -0.3141  0.2933
  295MOL   C13147759   4.602   5.472   1.222  0.0422 -0.7801  0.4937
  295MOL   N13247760   4.570   5.334   1.217 -0.1082  0.3528  0.2692
  295MOL   H13347761   4.634   5.484   1.001  0.1950 -0.1331 -0.0776
  295MOL   H13447762   4.769   5.434   1.084  0.2504  0.3026  0.9597
  295MOL   H13547763   4.509   5.527   1.219  0.7024  0.2458 -1.4076
  295MOL   H13647764   4.650   5.274   1.206 -1.5245 -1.3914 -0.8496
  295MOL   H13747765   4.524   5.321   1.129  0.3018 -1.0077  0.2429
  295MOL   C13847766   4.683   5.500   1.350  0.1227 -0.1585 -0.5744
  295MOL   C13947767   4.607   5.484   1.478  0.3311 -0.6957 -0.5083
  295MOL   N14047768   4.713   5.505   1.581 -0.0186 -0.3688 -0.5943
  295MOL   H14147769   4.775   5.441   1.350  0.5445  0.4845 -1.4368
  295MOL   H14247770   4.707   5.606   1.349 -2.2035  0.4258  1.7019
  295MOL   H14347771   4.566   5.384   1.489 -1.4910 -0.1862 -2.3161
  295MOL   H14447772   4.741   5.601   1.571 -0.7817 -0.0530  0.2471
  295MOL   H14547773   4.796   5.453   1.557 -0.0811 -0.4549 -0.6265
  295MOL   C14647774   4.493   5.588   1.497  0.0267  0.3886 -0.1611
  295MOL   C14747775   4.395   5.553   1.601  0.1145 -0.0510 -0.2386
  295MOL   N14847776   4.327   5.670   1.650  0.3893  0.3053  0.3938
  295MOL   H14947777   4.541   5.683   1.519 -0.0354 -0.3268  3.4109
  295MOL   H15047778   4.438   5.594   1.403 -1.8857 -2.4134  0.7191
  295MOL   H15147779   4.444   5.516   1.691  0.4419 -2.6353 -1.4532
  295MOL   H15247780   4.240   5.681   1.599  1.0689 -1.2532 -1.1234
  295MOL   H15347781   4.296   5.649   1.744  1.8393 -0.4983  0.7002
  295MOL   C15447782   4.294   5.454   1.547  0.1506  0.2941 -0.0259
  295MOL   C15547783   4.211   5.386   1.658 -0.2933  0.4703 -0.5315
  295MOL   N15647784   4.109   5.303   1.607  0.0341  0.4503 -0.1027
  295MOL   H15747785   4.230   5.513   1.482  0.4657  2.3150  1.4736
  295MOL   H15847786   4.348   5.384   1.483 -0.8936  1.0726 -1.7786
  295MOL   H15947787   4.167   5.464   1.721  0.0909  0.7000 -0.5426
  295MOL   H16047788   4.074   5.246   1.681 -0.9845  0.2239 -0.7544
  295MOL   H16147789   4.161   5.242   1.545 -1.5749 -0.8565 -0.1998
  295MOL   H16247790   4.268   5.329   1.730 -0.3795  0.6318 -0.3352
  296MOL     C147791   3.894   4.104   4.885  0.9270 -0.2727 -0.3527
  296MOL     C247792   3.970   3.977   4.928 -0.0890 -0.2984  0.3997
  296MOL     N347793   4.064   3.942   4.818 -0.1705 -0.0709  0.2614
  296MOL     H447794   3.948   4.188   4.842 -0.7710 -0.1925 -2.4072
  296MOL     H547795   3.854   4.140   4.980  2.4598  0.6987 -0.0509
  296MOL     H647796   3.893   3.904   4.952 -2.1981  2.0655  1.0213
  296MOL     H747797   4.060   3.842   4.804  1.8551 -0.1970  0.5016
  296MOL     H847798   4.161   3.952   4.843 -0.3464  1.4368  0.3498
  296MOL     H947799   3.810   4.083   4.819  0.1668  1.5452  0.0011
  296MOL    C1047800   4.061   4.000   5.051  1.0803 -0.1236  0.3690
  296MOL    C1147801   4.124   3.873   5.117 -0.0553 -0.0056  0.4491
  296MOL    N1247802   4.247   3.913   5.183  0.9845 -0.3649 -0.2537
  296MOL    H1347803   4.127   4.085   5.037 -0.0329  0.6480 -0.2540
  296MOL    H1447804   4.000   4.048   5.128  0.5666  0.4997 -0.4242
  296MOL    H1547805   4.147   3.801   5.038  0.5459 -0.2056  0.8007
  296MOL    H1647806   4.279   3.983   5.119 -0.0529  0.9914  0.6802
  296MOL    H1747807   4.318   3.841   5.183  1.1147 -0.2824  1.7813
  296MOL    C1847808   4.031   3.813   5.221  0.3251  0.0044 -0.2575
  296MOL    C1947809   4.088   3.697   5.305  0.4676  0.0863  0.6391
  296MOL    N2047810   3.993   3.674   5.416  0.1385  0.6204  0.2323
  296MOL    H2147811   4.033   3.897   5.291  1.8611 -0.1736 -0.0520
  296MOL    H2247812   3.932   3.798   5.180  1.2524 -1.6871 -1.9265
  296MOL    H2347813   4.184   3.737   5.337  0.3050  2.1517 -1.3046
  296MOL    H2447814   4.037   3.645   5.502 -0.2860 -0.1414  0.1967
  296MOL    H2547815   3.940   3.591   5.398 -0.2960  0.6603  1.3174
  296MOL    C2647816   4.103   3.564   5.225 -0.3755 -0.0735  0.3220
  296MOL    C2747817   4.154   3.444   5.301  0.3070  0.4163  0.1527
  296MOL    N2847818   4.140   3.326   5.218 -0.2844  0.5645  0.6486
  296MOL    H2947819   4.005   3.531   5.191 -0.6929  0.1831  0.9730
  296MOL    H3047820   4.155   3.579   5.130  0.5679  0.9989  1.0008
  296MOL    H3147821   4.098   3.429   5.393  1.6411 -0.8523  0.7628
  296MOL    H3247822   4.149   3.255   5.289 -1.4125 -1.4400 -1.1493
  296MOL    H3347823   4.043   3.323   5.190 -0.3517  0.1905  0.9277
  296MOL    C3447824   4.308   3.453   5.345 -0.2531  0.6449  0.1505
  296MOL    C3547825   4.322   3.533   5.478 -0.0672  0.0362  0.0744
  296MOL    N3647826   4.316   3.445   5.595 -0.4216  0.0845  0.2497
  296MOL    H3747827   4.354   3.355   5.356 -0.4392  0.5422  0.0115
  296MOL    H3847828   4.367   3.497   5.265  0.7078  0.8772  0.9727
  296MOL    H3947829   4.242   3.607   5.482  0.0142  0.2066 -1.3688
  296MOL    H4047830   4.235   3.467   5.650  0.6633  0.9095  1.5529
  296MOL    H4147831   4.400   3.464   5.648 -1.6874  2.8039  1.3917
  296MOL    C4247832   4.460   3.596   5.468  0.4209 -0.4476  0.2891
  296MOL    C4347833   4.471   3.722   5.379 -0.6652  0.0194 -0.4403
  296MOL    N4447834   4.460   3.833   5.473  0.2007  0.4050 -0.1136
  296MOL    H4547835   4.492   3.613   5.571  1.5354 -3.3419  0.4558
  296MOL    H4647836   4.532   3.523   5.431  2.6306  2.0645 -0.6051
  296MOL    H4747837   4.388   3.732   5.309  0.0558  0.1810 -1.2658
  296MOL    H4847838   4.473   3.918   5.420 -3.1909  0.3124 -1.1660
  296MOL    H4947839   4.364   3.849   5.499 -0.0485  1.6029 -1.7004
  296MOL    C5047840   4.601   3.733   5.307  0.7047  0.3570 -0.8098
  296MOL    C5147841   4.619   3.633   5.189 -0.1236  0.1540  0.0953
  296MOL    N5247842   4.522   3.669   5.086  0.0020  0.3912  0.5187
  296MOL    H5347843   4.621   3.834   5.270  1.4739  0.4343 -0.1888
  296MOL    H5447844   4.678   3.714   5.381  2.5821 -0.7802 -2.9802
  296MOL    H5547845   4.609   3.533   5.232  1.1423  0.6000  1.4584
  296MOL    H5647846   4.518   3.599   5.014 -3.3086  3.5550 -2.5753
  296MOL    H5747847   4.427   3.655   5.116 -0.8466  2.1968 -1.2026
  296MOL    C5847848   4.764   3.627   5.127 -0.1676 -0.3932  0.4714
  296MOL    C5947849   4.875   3.563   5.207 -0.0595 -0.8656 -0.2059
  296MOL    N6047850   4.853   3.420   5.215  0.1641  0.1447  0.0723
  296MOL    H6147851   4.766   3.572   5.033  0.7377  0.4582 -0.0290
  296MOL    H6247852   4.785   3.731   5.099  1.1610 -0.5618  0.8013
  296MOL    H6347853   4.875   3.607   5.307 -3.3703 -0.6757 -0.2274
  296MOL    H6447854   4.779   3.398   5.281 -2.0854  0.6878 -2.1994
  296MOL    H6547855   4.818   3.397   5.123  0.2049 -1.6843  0.4949
  296MOL    C6647856   5.013   3.598   5.151  0.4364  0.2357 -0.1718
  296MOL    C6747857   5.088   3.710   5.229  0.1777 -0.1176 -0.5547
  296MOL    N6847858   5.219   3.717   5.169 -0.1813  0.0781 -0.4314
  296MOL    H6947859   5.082   3.514   5.151 -0.8223 -0.8259  2.0549
  296MOL    H7047860   5.003   3.626   5.046 -0.6369  1.8551  0.3317
  296MOL    H7147861   5.103   3.688   5.335  1.2183  2.6965 -0.0874
  296MOL    H7247862   5.237   3.815   5.151 -1.5511  0.2434 -0.9145
  296MOL    H7347863   5.289   3.694   5.238 -1.1720  1.2457  1.0037
  296MOL    C7447864   5.019   3.844   5.224  0.1118 -0.3665 -0.0554
  296MOL    C7547865   5.077   3.969   5.292  0.7547 -0.3429  0.4594
  296MOL    N7647866   5.064   4.086   5.207  0.1216 -0.1188  0.0203
  296MOL    H7747867   5.015   3.852   5.115  2.2448 -0.1625 -0.1368
  296MOL    H7847868   4.915   3.830   5.254 -0.0461  1.1461  0.1341
  296MOL    H7947869   5.181   3.940   5.302  1.0031 -0.3549 -1.8243
  296MOL    H8047870   4.968   4.110   5.183  0.2900  0.8055  0.2474
  296MOL    H8147871   5.097   4.059   5.115  0.5069 -1.0573  0.4288
  296MOL    C8247872   5.019   3.990   5.431 -0.5014  0.5146 -0.0988
  296MOL    C8347873   5.025   3.886   5.533 -1.3446  0.2256 -0.6049
  296MOL    N8447874   5.160   3.866   5.583 -0.1322  0.2348  0.0519
  296MOL    H8547875   5.062   4.083   5.468  0.5003  1.2004 -2.8738
  296MOL    H8647876   4.916   4.017   5.409 -0.7233 -0.5175 -0.3100
  296MOL    H8747877   4.998   3.789   5.492  0.9215 -0.5982 -0.2577
  296MOL    H8847878   5.168   3.791   5.650  0.0813  0.2445  0.0351
  296MOL    H8947879   5.218   3.841   5.505 -1.0973 -1.4463 -0.1652
  296MOL    C9047880   4.934   3.924   5.650  0.2660 -0.1149  0.6323
  296MOL    C9147881   4.780   3.910   5.631  0.4467  0.5358  0.6738
  296MOL    N9247882   4.746   3.788   5.688 -0.0076 -0.7162  0.1515
  296MOL    H9347883   4.976   3.886   5.744 -0.5407 -2.5137  0.0613
  296MOL    H9447884   4.952   4.030   5.667  0.9470 -0.4755  2.2818
  296MOL    H9547885   4.758   3.900   5.524  3.3711  0.0385  0.0940
  296MOL    H9647886   4.667   3.744   5.642 -2.1640  2.8620  0.2127
  296MOL    H9747887   4.819   3.722   5.667  1.0885  0.5916 -0.2341
  296MOL    C9847888   4.695   4.017   5.710  0.4128 -0.4835 -0.3416
  296MOL    C9947889   4.706   4.152   5.641 -0.1885  0.6384  1.4626
  296MOL   N10047890   4.595   4.152   5.545 -0.5713  0.6792  0.0315
  296MOL   H10147891   4.591   3.985   5.725 -0.5272  2.8425  0.6090
  296MOL   H10247892   4.734   4.016   5.812  2.6605 -4.0172 -1.1554
  296MOL   H10347893   4.795   4.155   5.579 -1.2395  3.0128  0.0260
  296MOL   H10447894   4.593   4.053   5.523 -1.9234  0.7702 -0.2691
  296MOL   H10547895   4.501   4.180   5.568 -0.6376  1.4188 -1.1049
  296MOL   C10647896   4.715   4.277   5.720  0.7184  0.1182 -0.0720
  296MOL   C10747897   4.840   4.282   5.806 -0.3874 -0.3734  0.1224
  296MOL   N10847898   4.963   4.300   5.737 -0.1878  0.2026 -0.2581
  296MOL   H10947899   4.716   4.366   5.658 -1.3184  0.5371  0.4584
  296MOL   H11047900   4.633   4.275   5.792  1.8889 -2.6148  1.2592
  296MOL   H11147901   4.840   4.187   5.859  0.2950 -0.5261 -0.1407
  296MOL   H11247902   5.021   4.247   5.800  0.3610  0.3340 -0.6517
  296MOL   H11347903   4.954   4.249   5.650 -0.9890  1.2982 -0.8370
  296MOL   C11447904   4.834   4.394   5.905  0.4530  0.7071  0.0796
  296MOL   C11547905   4.752   4.370   6.038 -0.4729  0.2968 -0.2221
  296MOL   N11647906   4.831   4.290   6.129 -0.1662  0.1298  0.3059
  296MOL   H11747907   4.933   4.424   5.938  0.0294 -0.0507  2.1193
  296MOL   H11847908   4.790   4.486   5.865  0.4079  0.5569 -0.2114
  296MOL   H11947909   4.663   4.310   6.019 -0.1136 -0.5600  0.7391
  296MOL   H12047910   4.771   4.285   6.209 -0.7077  0.1437 -0.0956
  296MOL   H12147911   4.846   4.197   6.091 -1.0623  0.0187  0.2078
  296MOL   C12247912   4.707   4.500   6.104 -0.8418  0.1730 -0.4455
  296MOL   C12347913   4.591   4.561   6.023 -1.0010 -0.6839 -0.6797
  296MOL   N12447914   4.472   4.470   6.033  0.0007  0.3703 -0.1917
  296MOL   H12547915   4.685   4.475   6.208 -1.1906  1.5486 -0.1709
  296MOL   H12647916   4.790   4.571   6.115  0.2958 -1.3919  1.3378
  296MOL   H12747917   4.618   4.602   5.925  1.1083 -0.2055  0.0839
  296MOL   H12847918   4.486   4.395   5.967 -3.0569  0.1934 -0.6868
  296MOL   H12947919   4.395   4.523   5.995 -0.4665 -0.3585 -0.2479
  296MOL   C13047920   4.543   4.691   6.104 -0.2517  0.2110  0.1870
  296MOL   C13147921   4.610   4.816   6.050  0.5398 -0.0920  0.2791
  296MOL   N13247922   4.524   4.860   5.943 -0.0796 -0.4520 -0.1045
  296MOL   H13347923   4.434   4.696   6.095 -0.2399  1.4500  0.4988
  296MOL   H13447924   4.544   4.678   6.213 -0.9733 -2.5629 -0.1001
  296MOL   H13547925   4.711   4.798   6.012  2.2083  2.1465  3.4158
  296MOL   H13647926   4.538   4.807   5.858 -0.0212 -1.4907  0.5540
  296MOL   H13747927   4.557   4.953   5.918  0.0648 -0.2896  0.6928
  296MOL   C13847928   4.619   4.921   6.156 -0.2545  0.4432  0.2124
  296MOL   C13947929   4.759   4.937   6.221 -0.4144  0.2017 -0.1825
  296MOL   N14047930   4.808   5.074   6.203  0.0611 -0.7870  0.1901
  296MOL   H14147931   4.599   5.019   6.112  0.8850  0.4367 -0.3376
  296MOL   H14247932   4.542   4.913   6.233 -0.3853 -0.2758  0.0151
  296MOL   H14347933   4.832   4.881   6.162  0.3951  0.1503  0.8489
  296MOL   H14447934   4.732   5.133   6.234 -0.3628 -0.9740 -0.4867
  296MOL   H14547935   4.809   5.097   6.105 -1.4320 -0.9803  0.1149
  296MOL   C14647936   4.770   4.906   6.371 -0.1422 -0.5026  0.1610
  296MOL   C14747937   4.760   4.753   6.406 -1.0346  0.2658  0.9184
  296MOL   N14847938   4.901   4.706   6.432  0.5565 -0.0332  0.5690
  296MOL   H14947939   4.870   4.940   6.401  0.1114 -0.1380 -1.0659
  296MOL   H15047940   4.703   4.967   6.431 -1.3111 -2.3154  0.7032
  296MOL   H15147941   4.741   4.694   6.316 -0.1467 -0.1441  0.9964
  296MOL   H15247942   4.899   4.607   6.452 -0.4038 -0.3193 -0.8742
  296MOL   H15347943   4.941   4.715   6.340 -1.9030 -2.7867 -0.8451
  296MOL   C15447944   4.668   4.716   6.520 -0.1327 -0.7187 -0.8026
  296MOL   C15547945   4.516   4.760   6.512 -1.2099  0.3534 -0.3262
  296MOL   N15647946   4.442   4.687   6.618  0.4032  0.3694  0.8327
  296MOL   H15747947   4.673   4.608   6.536  2.6977 -0.3845  0.7144
  296MOL   H15847948   4.713   4.761   6.608 -3.0533 -1.1596  0.9838
  296MOL   H15947949   4.473   4.736   6.415 -0.9407 -0.8419 -0.1562
  296MOL   H16047950   4.423   4.592   6.588  3.0661 -0.0893  0.5204
  296MOL   H16147951   4.504   4.673   6.696 -0.2817  1.2681  1.5400
  296MOL   H16247952   4.514   4.867   6.535 -0.0652 -0.0610  1.8046
  297MOL     C147953   0.229   0.352   4.327  0.1009  0.3232 -0.0798
  297MOL     C247954   0.130   0.451   4.382  0.1969  0.8361 -1.3749
  297MOL     N347955   7.274   0.395   4.356 -0.3745 -0.9773  0.5988
  297MOL     H447956   0.223   0.358   4.218  1.1690 -0.6470 -0.2116
  297MOL     H547957   0.227   0.250   4.365 -0.0881  1.2626  2.5214
  297MOL     H647958   0.131   0.548   4.333 -1.9230  1.9786  0.7734
  297MOL     H747959   7.216   0.477   4.350  1.9489  0.7713  1.4628
  297MOL     H847960   0.002   0.343   4.269  1.1944 -2.4393  1.4886
  297MOL     H947961   0.327   0.394   4.348  0.2140 -0.3503  0.7392
  297MOL    C1047962   0.146   0.487   4.536  0.1043 -0.1318  0.5028
  297MOL    C1147963   0.254   0.587   4.556 -0.1534  0.3036 -0.2374
  297MOL    N1247964   0.222   0.722   4.507  0.5362  0.1779 -0.5281
  297MOL    H1347965   0.053   0.543   4.552 -1.3366 -2.2700 -0.1705
  297MOL    H1447966   0.149   0.398   4.598  3.4816 -1.1105 -0.9873
  297MOL    H1547967   0.346   0.567   4.501  0.7406  1.6179  0.7274
  297MOL    H1647968   0.140   0.701   4.452  1.8747  0.0399 -2.5055
  297MOL    H1747969   0.197   0.771   4.592  1.6310  2.0456 -1.2529
  297MOL    C1847970   0.295   0.598   4.702  0.2274 -0.3945 -0.5480
  297MOL    C1947971   0.365   0.477   4.764 -0.2328 -0.4121 -0.2475
  297MOL    N2047972   0.464   0.532   4.855  0.1844 -1.0857 -0.3000
  297MOL    H2147973   0.365   0.681   4.713 -1.1670  0.9119 -1.3205
  297MOL    H2247974   0.206   0.627   4.758  1.3817  1.7133  0.2572
  297MOL    H2347975   0.414   0.417   4.687  0.8873 -0.5397  0.5513
  297MOL    H2447976   0.531   0.594   4.812 -1.6713  0.3847 -1.1368
  297MOL    H2547977   0.519   0.461   4.903  2.5202  0.6234 -0.3392
  297MOL    C2647978   0.269   0.391   4.851  0.0046  0.2913 -0.5159
  297MOL    C2747979   0.342   0.256   4.891 -0.0761  0.2125 -0.0210
  297MOL    N2847980   0.257   0.179   4.980  0.1847 -0.5069  0.1376
  297MOL    H2947981   0.235   0.454   4.932 -2.2425 -0.6004 -0.7075
  297MOL    H3047982   0.172   0.375   4.802  0.9995  0.8340 -2.7369
  297MOL    H3147983   0.439   0.273   4.938  0.2998  0.6782 -0.9683
  297MOL    H3247984   0.169   0.172   4.931 -0.1504 -1.0195  0.8012
  297MOL    H3347985   0.239   0.236   5.062  1.0508 -1.6535  1.1391
  297MOL    C3447986   0.373   0.157   4.769  0.2460 -0.4786 -0.0021
  297MOL    C3547987   0.512   0.163   4.717 -0.1916 -0.1814  0.4605
  297MOL    N3647988   0.594   0.095   4.816 -0.3916 -0.3532 -0.0734
  297MOL    H3747989   0.356   0.053   4.796 -1.8564 -1.1900 -3.8286
  297MOL    H3847990   0.297   0.169   4.692  0.6449 -2.9378 -0.8068
  297MOL    H3947991   0.551   0.265   4.715 -0.9562  0.0791 -1.8229
  297MOL    H4047992   0.600   7.270   4.814 -2.8655 -0.5475  0.7842
  297MOL    H4147993   0.533   0.098   4.897 -0.9310  1.9840 -0.5237
  297MOL    C4247994   0.526   0.094   4.579  0.7543 -0.4208  0.3643
  297MOL    C4347995   0.657   0.140   4.506 -0.1524  0.2081  0.5162
  297MOL    N4447996   0.671   0.042   4.397  0.0464  0.0507  0.2416
  297MOL    H4547997   0.534   7.261   4.584  0.7486 -0.5752 -2.1835
  297MOL    H4647998   0.440   0.122   4.519 -0.3061  0.1755  2.1264
  297MOL    H4747999   0.741   0.119   4.573 -0.5872  0.0418  1.0149
  297MOL    H4848000   0.731   7.237   4.411  1.2847  0.5451 -1.8810
  297MOL    H4948001   0.578   0.004   4.385 -0.3548  1.1629 -0.2353
  297MOL    C5048002   0.658   0.285   4.464  0.4453  0.2127  0.4709
  297MOL    C5148003   0.766   0.376   4.525  0.2582 -1.2246  0.5039
  297MOL    N5248004   0.896   0.324   4.514 -0.5046 -0.0212 -0.0300
  297MOL    H5348005   0.667   0.296   4.356 -2.3990  1.3745  0.3099
  297MOL    H5448006   0.556   0.318   4.486  1.1147  1.2432  2.1766
  297MOL    H5548007   0.749   0.371   4.633  0.7102  0.1877  0.6511
  297MOL    H5648008   0.924   0.316   4.611 -1.0554 -1.7872 -0.0065
  297MOL    H5748009   0.888   0.227   4.487  2.4210 -1.3884  3.5757
  297MOL    C5848010   0.749   0.523   4.476  0.0803  0.4030  0.1346
  297MOL    C5948011   0.840   0.634   4.539 -0.6943  0.1753 -0.2385
  297MOL    N6048012   0.813   0.760   4.470 -0.1070  0.1249  0.5179
  297MOL    H6148013   0.759   0.527   4.367 -1.6930  2.9605 -0.0057
  297MOL    H6248014   0.647   0.550   4.506 -0.3440  2.1450 -2.6450
  297MOL    H6348015   0.942   0.601   4.522 -0.4708  0.1027  1.1707
  297MOL    H6448016   0.759   0.736   4.389  0.1074  2.0946 -0.2405
  297MOL    H6548017   0.754   0.821   4.526 -0.2960  0.3041  0.1241
  297MOL    C6648018   0.821   0.659   4.693  0.4296  0.3461 -0.0266
  297MOL    C6748019   0.927   0.716   4.786  0.4948  0.0380 -0.1800
  297MOL    N6848020   0.859   0.762   4.908  0.5984  0.2697 -0.1316
  297MOL    H6948021   0.728   0.711   4.715  0.3475 -0.5172  1.7433
  297MOL    H7048022   0.790   0.566   4.741  0.7643  0.3402  0.1786
  297MOL    H7148023   0.963   0.808   4.740 -0.3929 -0.6547 -2.3318
  297MOL    H7248024   0.784   0.826   4.888  1.2660  1.4877  1.2171
  297MOL    H7348025   0.921   0.820   4.962  0.0187  1.6160 -0.8833
  297MOL    C7448026   1.042   0.617   4.821  0.0676 -0.1751 -0.3013
  297MOL    C7548027   1.135   0.670   4.935  0.2474 -0.3928  0.5596
  297MOL    N7648028   1.224   0.560   4.959 -0.2511 -0.2682 -0.0093
  297MOL    H7748029   0.993   0.523   4.847  2.4275 -1.7998 -1.5387
  297MOL    H7848030   1.100   0.594   4.732 -1.5405 -0.4226 -1.3220
  297MOL    H7948031   1.073   0.683   5.023  0.7986 -2.1531  1.2297
  297MOL    H8048032   1.232   0.519   4.867 -3.2342  1.4861 -1.1194
  297MOL    H8148033   1.203   0.494   5.032 -0.0576 -0.2883  0.0278
  297MOL    C8248034   1.222   0.787   4.892 -0.1569 -0.6551 -1.2498
  297MOL    C8348035   1.271   0.862   5.015  0.3769 -0.0904 -0.6046
  297MOL    N8448036   1.376   0.954   4.990  0.3937  0.6121  0.4191
  297MOL    H8548037   1.316   0.758   4.844 -0.5831 -0.4246 -2.2281
  297MOL    H8648038   1.160   0.857   4.836  0.9094  0.4535 -1.0714
  297MOL    H8748039   1.307   0.789   5.088 -1.8107 -0.1495  0.4725
  297MOL    H8848040   1.408   1.011   5.067  0.0535  1.1223  0.1919
  297MOL    H8948041   1.457   0.909   4.950  0.1166  0.5926 -0.1230
  297MOL    C9048042   1.156   0.940   5.087 -0.1086 -0.2471  0.3937
  297MOL    C9148043   1.081   1.055   5.009  0.1570  1.0656 -0.3237
  297MOL    N9248044   0.939   1.039   5.025 -0.4766  0.5649 -0.1788
  297MOL    H9348045   1.082   0.868   5.122  0.7435 -1.5748 -0.4702
  297MOL    H9448046   1.196   0.982   5.179 -1.3763  0.6467  0.5460
  297MOL    H9548047   1.097   1.047   4.901 -0.4050 -0.8408 -0.2810
  297MOL    H9648048   0.904   1.131   5.049 -0.2504  0.4152  0.7600
  297MOL    H9748049   0.928   0.983   5.109  0.0888  0.8732  0.1034
  297MOL    C9848050   1.123   1.193   5.059  0.1147 -0.4833 -0.3681
  297MOL    C9948051   1.048   1.306   4.988  0.2232 -0.2436  0.0271
  297MOL   N10048052   1.076   1.429   5.058  0.6223 -0.3769  0.0952
  297MOL   H10148053   1.117   1.193   5.168 -1.2636 -1.6833 -0.4339
  297MOL   H10248054   1.228   1.203   5.033  0.1390 -0.2291 -0.1791
  297MOL   H10348055   0.940   1.293   4.996  0.1609  0.2096 -0.0352
  297MOL   H10448056   1.177   1.434   5.066  0.7205 -1.4891 -0.3072
  297MOL   H10548057   1.061   1.427   5.158  2.1502 -0.6497  0.3431
  297MOL   C10648058   1.078   1.320   4.840  0.8892 -0.8669  0.1150
  297MOL   C10748059   0.971   1.408   4.764 -0.2448  0.1058  0.3795
  297MOL   N10848060   1.029   1.467   4.644  0.2423  0.2963  0.7428
  297MOL   H10948061   1.179   1.356   4.826  0.5969  0.1359  0.5372
  297MOL   H11048062   1.066   1.225   4.788 -0.4874 -2.2424  2.8184
  297MOL   H11148063   0.935   1.494   4.822  0.9174  1.6107 -1.0816
  297MOL   H11248064   1.108   1.517   4.683  1.2799 -0.0997 -0.8151
  297MOL   H11348065   0.961   1.526   4.598  0.6183  1.6822  1.9135
  297MOL   C11448066   0.851   1.320   4.704 -0.4860  0.0725  0.1415
  297MOL   C11548067   0.753   1.266   4.804 -0.1750  0.5236 -0.2089
  297MOL   N11648068   0.685   1.382   4.862  0.7399 -0.5837 -0.4265
  297MOL   H11748069   0.802   1.383   4.630  1.0942 -0.4166 -1.3730
  297MOL   H11848070   0.889   1.235   4.646 -0.7321  0.2550 -0.2924
  297MOL   H11948071   0.791   1.212   4.890 -2.5330 -0.3603  0.3161
  297MOL   H12048072   0.758   1.426   4.914  0.7977 -0.8341 -0.2939
  297MOL   H12148073   0.634   1.340   4.938  1.7220  3.3152  2.4769
  297MOL   C12248074   0.636   1.192   4.741 -0.3913 -0.0793 -0.6860
  297MOL   C12348075   0.665   1.059   4.671  0.0358 -0.2345  0.9785
  297MOL   N12448076   0.707   0.975   4.782 -0.2136 -0.4633 -0.1325
  297MOL   H12548077   0.551   1.187   4.809 -0.5318 -0.7700 -0.9113
  297MOL   H12648078   0.597   1.253   4.660 -1.4239 -1.2698 -1.0974
  297MOL   H12748079   0.753   1.070   4.607 -0.6804  0.1432  0.0465
  297MOL   H12848080   0.797   1.004   4.817 -0.3441 -1.0571  0.6961
  297MOL   H12948081   0.646   0.986   4.862  0.1364  1.3945 -0.1080
  297MOL   C13048082   0.543   0.992   4.594  0.0840  0.5163  0.8963
  297MOL   C13148083   0.540   1.004   4.437 -0.0229  0.4827  0.5195
  297MOL   N13248084   0.402   0.997   4.393 -0.4386  0.0397 -0.2001
  297MOL   H13348085   0.537   0.885   4.611  0.6833  0.0173 -1.8143
  297MOL   H13448086   0.459   1.031   4.651 -0.0133  0.6094  0.6872
  297MOL   H13548087   0.596   0.921   4.394 -2.8082 -1.0529 -0.2385
  297MOL   H13648088   0.426   0.986   4.295  2.2144  1.5309  0.2171
  297MOL   H13748089   0.359   0.912   4.424 -1.0662 -0.1584 -1.5563
  297MOL   C13848090   0.600   1.131   4.375 -0.1816  0.0795 -0.0875
  297MOL   C13948091   0.617   1.119   4.224  0.0802 -0.1272 -0.4328
  297MOL   N14048092   0.638   1.248   4.157 -0.0903 -0.2194 -0.3790
  297MOL   H14148093   0.524   1.207   4.397 -0.1604 -0.2153  1.0416
  297MOL   H14248094   0.685   1.173   4.429  1.0838 -0.2828 -1.7774
  297MOL   H14348095   0.534   1.070   4.173 -0.0768 -0.8262  0.4924
  297MOL   H14448096   0.697   1.223   4.079  1.7582 -0.2765  1.0011
  297MOL   H14548097   0.550   1.261   4.110  0.9900  0.4388 -2.2822
  297MOL   C14648098   0.745   1.029   4.197  0.0379  0.8624 -0.0963
  297MOL   C14748099   0.741   0.943   4.071  0.1882 -0.0294 -0.7806
  297MOL   N14848100   0.875   0.911   4.037  0.1439 -0.3809  0.1714
  297MOL   H14948101   0.824   1.102   4.181  1.3390 -0.5745 -0.3090
  297MOL   H15048102   0.762   0.970   4.287  0.1955  0.5752 -0.3146
  297MOL   H15148103   0.694   0.994   3.987  2.7407 -0.7745 -2.6966
  297MOL   H15248104   0.919   0.995   4.002 -0.5669 -0.2973 -0.5565
  297MOL   H15348105   0.887   0.833   3.974 -3.6780 -0.6875 -0.2866
  297MOL   C15448106   0.677   0.804   4.093  0.1642  0.7180  0.2990
  297MOL   C15548107   0.526   0.797   4.087  0.3677 -0.0063 -0.0035
  297MOL   N15648108   0.490   0.656   4.085  0.2734  0.3282  0.5672
  297MOL   H15748109   0.712   0.738   4.013 -0.9375  2.0555 -1.3177
  297MOL   H15848110   0.719   0.757   4.182  1.5016  1.7840  0.2311
  297MOL   H15948111   0.506   0.844   3.991  0.6714 -0.1282 -0.1286
  297MOL   H16048112   0.491   0.618   4.179 -1.0310  1.3962  1.0244
  297MOL   H16148113   0.557   0.596   4.039  0.3258  0.9447 -0.1669
  297MOL   H16248114   0.488   0.862   4.165  1.9615 -0.7911  1.4593
  298MOL     C148115   3.722   1.040   4.891 -0.1838  0.2897 -0.4358
  298MOL     C248116   3.687   0.900   4.952  0.1195 -0.2249  0.1716
  298MOL     N348117   3.807   0.846   5.004  0.2078 -0.4046  0.1692
  298MOL     H448118   3.756   1.016   4.791  2.0388 -1.7086  0.7586
  298MOL     H548119   3.789   1.104   4.948 -1.4203  0.7998  0.4863
  298MOL     H648120   3.661   0.842   4.863  1.5756  0.1472 -0.5193
  298MOL     H748121   3.845   0.796   4.925  1.3433  2.0161 -0.8675
  298MOL     H848122   3.784   0.768   5.064  0.1008  0.3794  1.1457
  298MOL     H948123   3.631   1.096   4.870 -0.6934 -0.5367 -0.4521
  298MOL    C1048124   3.576   0.883   5.066  0.3211  0.5318 -0.8357
  298MOL    C1148125   3.427   0.897   5.029  0.2388 -0.1962 -0.0713
  298MOL    N1248126   3.338   0.890   5.142 -0.1260  0.3987 -0.5564
  298MOL    H1348127   3.597   0.790   5.120  1.3587  1.6322  0.6734
  298MOL    H1448128   3.598   0.960   5.139 -0.8079 -0.5802  0.7197
  298MOL    H1548129   3.409   0.818   4.956 -2.1521 -0.2285  0.5060
  298MOL    H1648130   3.344   0.800   5.187  0.4316  0.1822 -1.0596
  298MOL    H1748131   3.241   0.897   5.113 -1.5287 -0.3882  3.5295
  298MOL    C1848132   3.383   1.022   4.944 -0.1215 -0.0833  0.0616
  298MOL    C1948133   3.384   1.013   4.788  0.5647  1.1115 -0.0413
  298MOL    N2048134   3.290   0.915   4.739 -0.1850 -0.4348 -0.4513
  298MOL    H2148135   3.284   1.060   4.968  0.3196  1.0900  0.0802
  298MOL    H2248136   3.448   1.106   4.972  1.8706 -1.7346  0.4900
  298MOL    H2348137   3.485   0.976   4.768  1.0819  2.8747 -0.8025
  298MOL    H2448138   3.267   0.852   4.814  2.5988 -2.2836 -1.0821
  298MOL    H2548139   3.334   0.858   4.669 -0.5579 -0.1669 -0.9110
  298MOL    C2648140   3.364   1.149   4.716  0.0052 -0.3701  0.2001
  298MOL    C2748141   3.399   1.145   4.560 -0.5816 -0.0560 -0.1551
  298MOL    N2848142   3.342   1.266   4.496  0.3164  0.0622 -0.0768
  298MOL    H2948143   3.261   1.185   4.727  0.1285  0.2399 -0.6199
  298MOL    H3048144   3.417   1.235   4.754 -1.3744  0.7073 -0.2607
  298MOL    H3148145   3.348   1.061   4.513  0.6860 -0.8119 -0.2190
  298MOL    H3248146   3.251   1.300   4.524  0.7604  0.5363  0.7915
  298MOL    H3348147   3.355   1.275   4.396 -0.1910 -2.5102 -0.4278
  298MOL    C3448148   3.552   1.153   4.545  0.2673  0.1765 -0.6473
  298MOL    C3548149   3.589   1.131   4.393 -0.2472 -0.0832 -0.3268
  298MOL    N3648150   3.725   1.189   4.383  0.2811  0.5046  0.0475
  298MOL    H3748151   3.591   1.250   4.576 -1.4789 -0.3342  3.4979
  298MOL    H3848152   3.607   1.076   4.601  2.6032  0.4305 -2.4836
  298MOL    H3948153   3.525   1.188   4.326 -1.5643  0.2688  1.2003
  298MOL    H4048154   3.787   1.152   4.453  1.2879  3.1872  0.6587
  298MOL    H4148155   3.717   1.288   4.401 -0.5298  0.6671 -1.1497
  298MOL    C4248156   3.608   0.981   4.354 -0.1491 -0.0942  0.4219
  298MOL    C4348157   3.625   0.962   4.205 -0.0643  0.4609 -0.3535
  298MOL    N4448158   3.717   0.853   4.181 -0.1703 -0.2465 -0.2863
  298MOL    H4548159   3.689   0.928   4.404  2.0779  0.4548 -2.4336
  298MOL    H4648160   3.519   0.926   4.383 -0.7516  1.5056  1.6833
  298MOL    H4748161   3.668   1.055   4.168 -4.2873  2.0379 -1.5418
  298MOL    H4848162   3.745   0.860   4.084 -0.1827  0.1388 -0.2617
  298MOL    H4948163   3.802   0.866   4.233 -1.0052  3.2765  0.3347
  298MOL    C5048164   3.481   0.944   4.135  0.6739 -0.4349  0.2557
  298MOL    C5148165   3.487   0.937   3.978 -0.4714  0.9235 -0.0119
  298MOL    N5248166   3.349   0.901   3.935  0.2054 -0.0071 -0.3810
  298MOL    H5348167   3.434   0.855   4.175 -0.1440 -0.4952 -0.8331
  298MOL    H5448168   3.425   1.035   4.159 -0.0681 -0.6392 -0.6798
  298MOL    H5548169   3.550   0.853   3.948  1.5395  0.8684  4.0147
  298MOL    H5648170   3.337   0.890   3.836  0.4352  1.6759 -0.6010
  298MOL    H5748171   3.329   0.811   3.977  1.4272  0.2177  0.7019
  298MOL    C5848172   3.528   1.069   3.908 -0.1659 -0.9954 -0.2116
  298MOL    C5948173   3.628   1.058   3.781 -0.0504  0.0795 -1.0665
  298MOL    N6048174   3.606   1.169   3.684 -0.1527 -0.2969 -0.4839
  298MOL    H6148175   3.444   1.128   3.871 -0.0566 -1.2442 -0.8719
  298MOL    H6248176   3.570   1.138   3.982 -0.9881 -2.0163  1.2142
  298MOL    H6348177   3.591   0.969   3.728 -0.7490 -1.3208  1.6853
  298MOL    H6448178   3.636   1.144   3.591  0.3287  2.1172 -1.0191
  298MOL    H6548179   3.508   1.194   3.683  0.2435  1.4399  0.9527
  298MOL    C6648180   3.775   1.028   3.813 -0.1431 -0.0162  0.2307
  298MOL    C6748181   3.843   0.891   3.789 -0.5008 -0.3083  0.1261
  298MOL    N6848182   3.795   0.795   3.887 -0.2789  0.5695  0.3984
  298MOL    H6948183   3.836   1.105   3.765  0.2575 -1.1410 -1.1093
  298MOL    H7048184   3.778   1.041   3.921 -2.5951 -0.2680  0.3453
  298MOL    H7148185   3.950   0.908   3.798 -0.4278 -1.1821  0.9704
  298MOL    H7248186   3.720   0.746   3.840 -1.7674  2.3726  0.8013
  298MOL    H7348187   3.854   0.715   3.903  0.4235  1.6143  3.2558
  298MOL    C7448188   3.815   0.849   3.647  0.2246  1.0070 -0.3632
  298MOL    C7548189   3.931   0.761   3.592  0.7384  0.0741 -0.6492
  298MOL    N7648190   3.907   0.622   3.634 -0.2636  0.0324 -0.9712
  298MOL    H7748191   3.718   0.800   3.636  1.8222 -1.7700 -2.8632
  298MOL    H7848192   3.818   0.942   3.591  0.2872  0.2282 -1.6824
  298MOL    H7948193   4.030   0.804   3.606  0.8607 -0.4168  0.0532
  298MOL    H8048194   3.959   0.551   3.583  3.4870  1.8739  0.1038
  298MOL    H8148195   3.938   0.609   3.729  0.3402 -0.8763 -1.2797
  298MOL    C8248196   3.937   0.757   3.437 -0.1221  0.2123  0.3931
  298MOL    C8348197   3.958   0.900   3.377  0.2297 -1.1063 -0.1774
  298MOL    N8448198   4.086   0.901   3.306  0.3148  0.6403  0.9973
  298MOL    H8548199   4.011   0.682   3.409  0.0977  0.9613 -1.0909
  298MOL    H8648200   3.852   0.702   3.396  1.7025 -1.7402 -0.8372
  298MOL    H8748201   3.972   0.978   3.453 -1.6630 -1.7383  0.8441
  298MOL    H8848202   4.112   0.992   3.270  1.2569  0.3954  1.0567
  298MOL    H8948203   4.072   0.849   3.221 -0.2998  1.4283  0.6104
  298MOL    C9048204   3.837   0.949   3.285  0.2612  0.1913 -0.4176
  298MOL    C9148205   3.693   0.938   3.334  0.1924 -1.2234 -1.0809
  298MOL    N9248206   3.652   1.057   3.409  0.2105 -0.4883  0.5964
  298MOL    H9348207   3.853   1.052   3.254 -4.0818  1.1353  0.0958
  298MOL    H9448208   3.846   0.901   3.188  1.1486 -0.8058  0.1405
  298MOL    H9548209   3.696   0.844   3.389  0.4685 -0.0171  1.0383
  298MOL    H9648210   3.640   1.142   3.357  0.3524  0.2647  1.7848
  298MOL    H9748211   3.736   1.078   3.460 -0.1024  0.7599  0.6001
  298MOL    C9848212   3.582   0.918   3.222 -0.6371  0.6876 -0.0465
  298MOL    C9948213   3.601   0.790   3.138 -0.0534  0.3563 -0.1064
  298MOL   N10048214   3.589   0.671   3.225  0.7185  0.5040  0.9892
  298MOL   H10148215   3.484   0.913   3.268 -0.4549  0.4462  0.3105
  298MOL   H10248216   3.576   1.002   3.153  2.7980  0.5022 -0.7048
  298MOL   H10348217   3.702   0.790   3.099 -0.1584  0.9447 -0.3851
  298MOL   H10448218   3.675   0.663   3.277  1.8332  3.1195 -0.3575
  298MOL   H10548219   3.597   0.591   3.164 -1.0409  0.5700  0.6334
  298MOL   C10648220   3.512   0.778   3.019 -0.2000  0.4586 -0.0905
  298MOL   C10748221   3.558   0.867   2.900  0.0090  0.4713  0.1865
  298MOL   N10848222   3.694   0.844   2.856  0.4553 -0.5992  0.0204
  298MOL   H10948223   3.518   0.674   2.988  0.1725  0.1039  1.1802
  298MOL   H11048224   3.408   0.796   3.045 -1.2020 -2.2186 -1.9696
  298MOL   H11148225   3.541   0.970   2.930  1.4902 -0.0206  2.8128
  298MOL   H11248226   3.711   0.900   2.774  2.6303 -0.9967  0.1880
  298MOL   H11348227   3.715   0.752   2.819  1.5531 -0.6892  0.8705
  298MOL   C11448228   3.466   0.845   2.780 -0.0089 -0.2817 -0.2741
  298MOL   C11548229   3.328   0.919   2.795  0.4980 -0.7614  0.6787
  298MOL   N11648230   3.354   1.052   2.732  0.0957  0.5109 -0.5403
  298MOL   H11748231   3.510   0.889   2.690  2.4003 -0.7881  0.6036
  298MOL   H11848232   3.451   0.739   2.760 -2.3268  0.3058 -1.8394
  298MOL   H11948233   3.319   0.931   2.903  0.8964  0.3631  0.5967
  298MOL   H12048234   3.311   1.119   2.794 -0.9198 -0.4848 -0.1501
  298MOL   H12148235   3.452   1.066   2.753  0.2679  1.7411 -2.0519
  298MOL   C12248236   3.205   0.851   2.732  0.6251  0.3700 -0.0102
  298MOL   C12348237   3.152   0.730   2.814  0.2410 -0.7740  0.9795
  298MOL   N12448238   3.063   0.780   2.914  0.6895 -0.5683 -0.2646
  298MOL   H12548239   3.116   0.911   2.715 -0.8890 -1.3989  1.5352
  298MOL   H12648240   3.229   0.817   2.631 -0.7465  0.7492 -0.4757
  298MOL   H12748241   3.233   0.672   2.860 -1.7931 -2.8379  2.0575
  298MOL   H12848242   3.110   0.858   2.958 -0.7019 -0.2153  0.6584
  298MOL   H12948243   3.045   0.715   2.989 -0.3055  0.7669  0.6757
  298MOL   C13048244   3.068   0.639   2.713  0.1282  0.0146  0.9095
  298MOL   C13148245   2.976   0.533   2.765  0.1029  0.0206  0.3408
  298MOL   N13248246   2.909   0.465   2.657 -0.6692 -0.1279  0.2006
  298MOL   H13348247   2.994   0.703   2.665 -0.7739 -2.3010 -0.8366
  298MOL   H13448248   3.128   0.602   2.631 -2.5080  0.4391 -1.2813
  298MOL   H13548249   2.906   0.580   2.833  0.0267 -1.7436  1.5250
  298MOL   H13648250   2.845   0.518   2.599 -0.4084  0.4975  0.4867
  298MOL   H13748251   2.834   0.404   2.686 -1.0913  0.0714 -0.4452
  298MOL   C13848252   3.045   0.424   2.852  0.2284 -1.0101 -0.1839
  298MOL   C13948253   3.167   0.347   2.788 -0.5608 -0.0781  0.1893
  298MOL   N14048254   3.285   0.382   2.866 -0.5071  0.2625  0.6698
  298MOL   H14148255   3.073   0.470   2.946  2.5163 -3.0434  0.2049
  298MOL   H14248256   2.967   0.353   2.881 -2.0282  1.3421 -0.3929
  298MOL   H14348257   3.184   0.381   2.686 -1.6474 -2.9162 -0.9845
  298MOL   H14448258   3.369   0.352   2.819  0.0385  1.8371  0.6215
  298MOL   H14548259   3.302   0.481   2.855 -0.4483 -0.0539 -2.6714
  298MOL   C14648260   3.161   0.195   2.779  0.4587 -0.1884 -0.2668
  298MOL   C14748261   3.059   0.129   2.685  0.1743  0.0956 -0.4521
  298MOL   N14848262   2.928   0.128   2.744  0.0240 -0.3559  0.2046
  298MOL   H14948263   3.248   0.153   2.729  1.4018  1.3026  0.1012
  298MOL   H15048264   3.154   0.163   2.883  1.0934  1.1295  0.1913
  298MOL   H15148265   3.093   0.026   2.686 -2.0463 -0.6689  1.6537
  298MOL   H15248266   2.903   0.226   2.748  3.8903  0.6752  2.0975
  298MOL   H15348267   2.946   0.107   2.842  0.2871 -1.8003 -0.1402
  298MOL   C15448268   3.072   0.188   2.532 -0.2853 -0.0137  0.1737
  298MOL   C15548269   3.050   0.081   2.423  0.1913  0.1718 -0.5197
  298MOL   N15648270   3.062   0.126   2.285  0.3487 -0.0742  0.3471
  298MOL   H15748271   3.013   0.278   2.515 -0.7418 -0.6697 -1.7342
  298MOL   H15848272   3.175   0.219   2.512 -0.2873  0.8216  1.3707
  298MOL   H15948273   2.962   0.020   2.443  1.1235 -1.4163 -1.1582
  298MOL   H16048274   3.027   0.048   2.232  2.3703 -1.3717  0.8943
  298MOL   H16148275   2.987   0.192   2.269  0.0205 -0.4800  0.2406
  298MOL   H16248276   3.140   0.022   2.438 -0.9282 -1.1078  1.3311
  299MOL     C148277   3.921   3.990   3.455  0.1923  0.0578  0.1350
  299MOL     C248278   4.073   3.997   3.432 -0.8915 -0.7112  0.2183
  299MOL     N348279   4.105   3.951   3.300  0.4913  0.2912  0.2878
  299MOL     H448280   3.894   4.025   3.555  0.5613 -0.2321  0.3413
  299MOL     H548281   3.892   3.885   3.446  0.0503  0.0702  0.4421
  299MOL     H648282   4.128   3.927   3.495 -0.4358  0.0363  0.6646
  299MOL     H748283   4.205   3.961   3.307  0.1885  2.2173  2.5561
  299MOL     H848284   4.089   3.852   3.310  1.3681 -0.1162 -2.0913
  299MOL     H948285   3.864   4.032   3.373  1.3632  0.1343 -0.6525
  299MOL    C1048286   4.132   4.138   3.453  0.4829  0.1617 -0.0172
  299MOL    C1148287   4.120   4.169   3.604  0.6735  0.1523  0.0979
  299MOL    N1248288   4.255   4.179   3.660  0.0194  0.0935  0.0339
  299MOL    H1348289   4.239   4.134   3.430  0.6343  0.2831  0.6293
  299MOL    H1448290   4.095   4.211   3.382  2.0978  2.1828  1.1394
  299MOL    H1548291   4.067   4.093   3.663  0.1692 -0.2805 -0.8915
  299MOL    H1648292   4.289   4.084   3.653 -3.3914 -1.1040 -1.1139
  299MOL    H1748293   4.240   4.196   3.759  0.2815 -1.2753  0.3115
  299MOL    C1848294   4.051   4.300   3.621  0.0567 -0.7572  0.7745
  299MOL    C1948295   3.896   4.322   3.577  0.2154 -0.4467  0.2817
  299MOL    N2048296   3.813   4.252   3.674 -0.3995  0.2711 -0.5355
  299MOL    H2148297   4.068   4.328   3.725  1.3722 -1.0177  0.6408
  299MOL    H2248298   4.114   4.368   3.564  3.4032 -4.2279  0.1681
  299MOL    H2348299   3.882   4.278   3.478  0.9801 -1.4914  0.6249
  299MOL    H2448300   3.871   4.199   3.737 -1.4808 -0.7076 -0.3487
  299MOL    H2548301   3.782   4.312   3.750  0.4028  0.2542 -0.1922
  299MOL    C2648302   3.849   4.473   3.563 -0.4259  0.2055  0.7937
  299MOL    C2748303   3.918   4.545   3.442  0.3395 -0.0132  0.4244
  299MOL    N2848304   3.850   4.520   3.315  0.2548  0.1251  0.2116
  299MOL    H2948305   3.741   4.482   3.551 -0.5836 -2.9978 -0.7253
  299MOL    H3048306   3.856   4.518   3.662 -0.9752 -1.7272  1.7271
  299MOL    H3148307   4.013   4.495   3.421 -1.8020 -3.1872 -2.0952
  299MOL    H3248308   3.779   4.592   3.316  0.1774  0.0388  1.8367
  299MOL    H3348309   3.918   4.556   3.249  0.6876  0.2496  0.7221
  299MOL    C3448310   3.922   4.700   3.468 -0.4559  0.2605  0.3129
  299MOL    C3548311   4.058   4.759   3.493  0.2914  0.2272  0.1219
  299MOL    N3648312   4.040   4.901   3.491  0.4590  0.6656 -0.3030
  299MOL    H3748313   3.883   4.741   3.375  0.6317  0.6718  0.0330
  299MOL    H3848314   3.851   4.736   3.543 -0.6607  1.2343 -0.3471
  299MOL    H3948315   4.126   4.733   3.413 -1.5948 -0.5562 -1.2644
  299MOL    H4048316   4.135   4.927   3.469  0.3573  0.2585 -1.2620
  299MOL    H4148317   3.998   4.914   3.400 -1.1586 -2.1582 -0.0168
  299MOL    C4248318   4.138   4.721   3.627 -0.9396 -0.5228 -0.6138
  299MOL    C4348319   4.258   4.816   3.644 -0.0213 -0.5299 -0.1973
  299MOL    N4448320   4.210   4.933   3.725  0.7396 -0.3290 -0.2916
  299MOL    H4548321   4.088   4.712   3.724  0.9121 -0.7742  0.3447
  299MOL    H4648322   4.170   4.619   3.604 -1.3608 -0.6430 -0.6624
  299MOL    H4748323   4.286   4.857   3.547  1.7138  0.7553  0.8115
  299MOL    H4848324   4.185   4.893   3.814  0.7941  0.8698  0.2730
  299MOL    H4948325   4.124   4.965   3.684  1.9237  1.4382 -1.4594
  299MOL    C5048326   4.382   4.744   3.706  0.3244  0.3561 -0.4258
  299MOL    C5148327   4.487   4.664   3.622 -0.1057  0.4060  0.1357
  299MOL    N5248328   4.604   4.677   3.704  0.4322 -0.2299  0.5304
  299MOL    H5348329   4.439   4.825   3.752 -1.1184  1.6302 -0.8513
  299MOL    H5448330   4.354   4.692   3.798 -1.3031 -1.0088 -1.6638
  299MOL    H5548331   4.501   4.708   3.523 -2.3056  1.1958  0.1575
  299MOL    H5648332   4.623   4.775   3.714 -0.8806  0.0793  0.0707
  299MOL    H5748333   4.585   4.642   3.797  0.5617  0.5234  0.8460
  299MOL    C5848334   4.445   4.523   3.594  0.5265 -0.3259  0.8468
  299MOL    C5948335   4.451   4.475   3.447 -0.0395  0.1168  0.9165
  299MOL    N6048336   4.467   4.332   3.459  0.4743 -0.0048 -0.2709
  299MOL    H6148337   4.516   4.465   3.654 -0.3800 -1.3469  0.9338
  299MOL    H6248338   4.344   4.502   3.629 -0.5696  1.7911 -0.9847
  299MOL    H6348339   4.530   4.518   3.386 -1.0092 -0.1373 -0.5483
  299MOL    H6448340   4.384   4.290   3.498 -0.2479  1.4010 -0.2255
  299MOL    H6548341   4.476   4.285   3.371 -0.8065 -0.0496 -0.3880
  299MOL    C6648342   4.321   4.513   3.366 -0.1481 -0.1170 -0.5136
  299MOL    C6748343   4.305   4.439   3.232  0.8132 -0.6164 -0.9916
  299MOL    N6848344   4.169   4.464   3.180 -0.8634 -0.9185  0.2199
  299MOL    H6948345   4.243   4.471   3.430 -0.2846  1.2968  0.2696
  299MOL    H7048346   4.298   4.619   3.365 -0.5482 -0.1842  0.8752
  299MOL    H7148347   4.313   4.331   3.249  1.8472 -0.3238  0.4566
  299MOL    H7248348   4.104   4.409   3.233 -2.0010 -1.1629 -1.3980
  299MOL    H7348349   4.145   4.562   3.181 -1.9555 -1.1835  1.8545
  299MOL    C7448350   4.423   4.467   3.138 -0.1697  0.2941 -0.2872
  299MOL    C7548351   4.419   4.383   3.005 -0.7667  0.0477 -0.4307
  299MOL    N7648352   4.542   4.422   2.938 -0.2093 -0.6238  0.7758
  299MOL    H7748353   4.422   4.572   3.109 -1.9915  0.7734  1.4705
  299MOL    H7848354   4.515   4.439   3.189 -1.1804 -2.7880 -0.0243
  299MOL    H7948355   4.330   4.412   2.950 -1.8905 -0.4753  1.0996
  299MOL    H8048356   4.537   4.513   2.894  0.5473  0.0331  2.0093
  299MOL    H8148357   4.556   4.356   2.863 -0.6623  0.1287  0.0188
  299MOL    C8248358   4.424   4.228   3.018 -0.0415 -0.0712  0.0598
  299MOL    C8348359   4.296   4.141   3.055 -0.5952  0.3098 -0.2166
  299MOL    N8448360   4.203   4.163   2.946  0.6265 -0.1305 -0.5470
  299MOL    H8548361   4.460   4.180   2.927  0.8423  1.0849 -0.2063
  299MOL    H8648362   4.488   4.197   3.101 -1.0944 -1.1159  0.5002
  299MOL    H8748363   4.247   4.162   3.149 -0.7903  1.0351 -0.4793
  299MOL    H8848364   4.188   4.263   2.954  0.4432 -0.2490  0.8060
  299MOL    H8948365   4.109   4.143   2.977  0.2849  0.7144 -1.0163
  299MOL    C9048366   4.329   3.993   3.053 -0.4711  0.9410 -0.2423
  299MOL    C9148367   4.404   3.939   3.180  0.3365  0.1529 -0.0481
  299MOL    N9248368   4.359   3.804   3.226 -0.4491  0.4342  0.8534
  299MOL    H9348369   4.245   3.929   3.030 -0.6638  1.0666  0.1030
  299MOL    H9448370   4.397   3.971   2.971 -0.3823  0.5378 -0.0600
  299MOL    H9548371   4.393   4.000   3.269 -1.4725 -0.6499  0.2960
  299MOL    H9648372   4.426   3.772   3.296 -0.1242 -0.6540  0.0568
  299MOL    H9748373   4.355   3.739   3.149 -0.8594 -0.3958  1.5667
  299MOL    C9848374   4.555   3.926   3.161 -0.6496  0.6820  0.5987
  299MOL    C9948375   4.638   3.879   3.277  0.0155 -0.4373  0.1843
  299MOL   N10048376   4.772   3.849   3.226  0.1103  0.2002 -0.4954
  299MOL   H10148377   4.578   3.866   3.073  2.1666  1.3023  0.8467
  299MOL   H10248378   4.602   4.021   3.135 -1.0649  0.5932 -0.5109
  299MOL   H10348379   4.602   3.783   3.313 -0.6417  0.2941  1.4810
  299MOL   H10448380   4.832   3.825   3.304 -2.1455 -0.2002  1.1658
  299MOL   H10548381   4.813   3.932   3.185 -2.3539  0.6452 -2.1626
  299MOL   C10648382   4.657   3.985   3.388  0.2587  0.4267 -0.2058
  299MOL   C10748383   4.647   3.938   3.537 -0.1656 -0.1614  0.2361
  299MOL   N10848384   4.731   4.021   3.631 -0.0859  0.6466 -0.4243
  299MOL   H10948385   4.743   4.047   3.363  0.3505 -0.0010 -0.9760
  299MOL   H11048386   4.585   4.066   3.381 -2.3824 -1.9180 -1.0878
  299MOL   H11148387   4.681   3.835   3.544  0.8801  0.2851  2.1094
  299MOL   H11248388   4.716   4.120   3.621  1.4465  0.8715 -0.5856
  299MOL   H11348389   4.828   4.003   3.610 -0.5561 -1.4480 -0.9185
  299MOL   C11448390   4.508   3.944   3.580 -0.4882  0.2946 -0.5237
  299MOL   C11548391   4.474   3.865   3.709 -0.3142  0.3034  0.6194
  299MOL   N11648392   4.377   3.927   3.791  0.0164 -0.4590  0.2336
  299MOL   H11748393   4.481   4.048   3.599  0.4209  0.4378  0.0218
  299MOL   H11848394   4.446   3.900   3.501 -1.7559  0.9721  0.0795
  299MOL   H11948395   4.563   3.866   3.771 -0.6244 -1.6674  1.1429
  299MOL   H12048396   4.356   3.860   3.865 -3.0121  2.2360  1.9239
  299MOL   H12148397   4.417   4.005   3.840  0.1337 -1.2999  1.5066
  299MOL   C12248398   4.428   3.717   3.688  0.6773  0.0240 -0.2781
  299MOL   C12348399   4.442   3.622   3.803 -0.1684 -0.1403  0.8662
  299MOL   N12448400   4.370   3.673   3.911  0.7209 -0.7770  0.4545
  299MOL   H12548401   4.331   3.712   3.639  0.9858 -1.4600 -0.7797
  299MOL   H12648402   4.499   3.685   3.611  1.2708 -1.5982  0.9277
  299MOL   H12748403   4.545   3.615   3.838  0.5229 -0.1794 -1.1020
  299MOL   H12848404   4.272   3.656   3.895  0.6923  1.4690 -2.2628
  299MOL   H12948405   4.396   3.625   3.996 -2.7926 -2.9534  0.4014
  299MOL   C13048406   4.385   3.477   3.778 -0.0373 -0.0016 -0.3747
  299MOL   C13148407   4.437   3.413   3.643 -0.0774  0.3085 -0.3668
  299MOL   N13248408   4.570   3.370   3.665  0.6467  0.3031  0.1394
  299MOL   H13348409   4.415   3.415   3.863  1.1551  1.7801  0.5259
  299MOL   H13448410   4.276   3.475   3.781  0.0135 -1.0939  3.2806
  299MOL   H13548411   4.419   3.488   3.566 -0.8584  1.1163  0.5798
  299MOL   H13648412   4.604   3.315   3.588  1.2583  0.4789  0.2780
  299MOL   H13748413   4.631   3.451   3.675 -0.3109  0.9339  1.0029
  299MOL   C13848414   4.360   3.278   3.588  0.3897 -0.2935 -0.3033
  299MOL   C13948415   4.408   3.207   3.465  0.2993  0.8554 -0.6553
  299MOL   N14048416   4.330   3.080   3.456  1.0010 -0.1449 -0.4967
  299MOL   H14148417   4.351   3.208   3.671  2.5484 -2.0332 -1.5043
  299MOL   H14248418   4.263   3.322   3.564 -0.0759 -1.3931 -0.4761
  299MOL   H14348419   4.512   3.174   3.476  0.0985  0.4719  0.1400
  299MOL   H14448420   4.336   3.038   3.547 -1.0075 -1.1073 -0.7756
  299MOL   H14548421   4.233   3.098   3.434  1.2026  1.5092 -0.0945
  299MOL   C14648422   4.403   3.294   3.341 -0.0171 -0.3130  0.0174
  299MOL   C14748423   4.527   3.281   3.251  0.0101 -0.2425  0.4588
  299MOL   N14848424   4.505   3.326   3.116  0.4518  0.4636  0.0798
  299MOL   H14948425   4.318   3.269   3.278 -0.0971 -0.4415  0.1770
  299MOL   H15048426   4.384   3.401   3.349 -1.9369 -0.3687 -3.2858
  299MOL   H15148427   4.553   3.177   3.232  0.4783 -0.1158  0.3930
  299MOL   H15248428   4.584   3.375   3.078  2.3606 -1.1008  1.9035
  299MOL   H15348429   4.473   3.249   3.058  1.2336  1.7655 -2.1277
  299MOL   C15448430   4.659   3.343   3.297  0.0418 -0.0933 -0.3786
  299MOL   C15548431   4.656   3.498   3.315 -0.3619 -0.2018 -0.7055
  299MOL   N15648432   4.779   3.545   3.382  0.3237  0.0426  0.3685
  299MOL   H15748433   4.678   3.310   3.399  1.0439 -0.6387 -0.7417
  299MOL   H15848434   4.746   3.315   3.239 -0.8213 -1.6461 -0.9445
  299MOL   H15948435   4.564   3.530   3.363 -0.7805  1.4173 -2.5096
  299MOL   H16048436   4.778   3.550   3.483  1.0129  0.8833  0.3431
  299MOL   H16148437   4.793   3.638   3.346  1.4987  0.2794  1.3785
  299MOL   H16248438   4.655   3.535   3.212  0.7296  1.6218 -0.0755
  300MOL     C148439   5.456   0.491   6.824  0.9493  0.0655  0.0382
  300MOL     C248440   5.395   0.350   6.828 -0.4007  0.0752 -0.4024
  300MOL     N348441   5.469   0.273   6.736  0.0650  0.2668  0.3486
  300MOL     H448442   5.397   0.565   6.879  1.2173  0.7082 -0.5403
  300MOL     H548443   5.463   0.524   6.721  2.8018 -0.1089  0.1032
  300MOL     H648444   5.294   0.354   6.785 -0.0570 -0.2313 -1.2467
  300MOL     H748445   5.397   0.213   6.698 -1.3674  0.8775  2.0223
  300MOL     H848446   5.503   0.323   6.655 -0.4401  0.3820  0.2090
  300MOL     H948447   5.554   0.485   6.872 -0.0457  2.0975  2.4444
  300MOL    C1048448   5.386   0.279   6.967  0.0794  0.2655  0.2101
  300MOL    C1148449   5.283   0.335   7.069  0.2482 -0.0476  0.2631
  300MOL    N1248450   5.170   0.252   7.066  0.2119 -0.1777 -0.4235
  300MOL    H1348451   5.372   0.172   6.951  1.5909 -0.3200  2.4268
  300MOL    H1448452   5.483   0.282   7.019 -0.0062  1.5055  0.3053
  300MOL    H1548453   5.251   0.436   7.042 -0.8549 -0.1685  1.0680
  300MOL    H1648454   5.118   0.275   7.150 -1.0426 -0.3742 -1.1295
  300MOL    H1748455   5.102   0.271   6.994 -1.2189 -0.4741  0.8261
  300MOL    C1848456   5.337   0.329   7.219 -0.9181  0.5715 -0.3443
  300MOL    C1948457   5.447   0.441   7.242  0.3420 -0.3283 -0.6158
  300MOL    N2048458   5.387   0.555   0.019  0.6215 -0.5036 -0.0026
  300MOL    H2148459   5.261   0.328   0.021  1.0463  0.3274  1.6298
  300MOL    H2248460   5.376   0.228   7.223 -0.0257  0.9574  1.4842
  300MOL    H2348461   5.491   0.475   7.148  1.8716 -0.4948  0.0346
  300MOL    H2448462   5.447   0.637   0.023 -0.8226  0.5466  0.6108
  300MOL    H2548463   5.307   0.579   7.238  0.6200  1.0205  0.6220
  300MOL    C2648464   5.548   0.381   0.076 -0.9022 -0.8099 -0.9353
  300MOL    C2748465   5.688   0.451   0.077  0.7572  0.3226 -0.1589
  300MOL    N2848466   5.761   0.391   0.191 -0.0723  0.8712  0.8639
  300MOL    H2948467   5.511   0.393   0.178  1.1757 -0.2184 -0.2183
  300MOL    H3048468   5.568   0.274   0.065  0.9136 -0.7940  1.6102
  300MOL    H3148469   5.681   0.559   0.086  0.3863  0.1251  2.3211
  300MOL    H3248470   5.860   0.403   0.177 -0.0450 -0.7318 -0.4138
  300MOL    H3348471   5.750   0.291   0.182  0.5341  0.7018  1.9668
  300MOL    C3448472   5.774   0.424   7.223  0.3516  0.8122  0.3727
  300MOL    C3548473   5.890   0.528   7.193  0.3516 -0.1996 -0.6292
  300MOL    N3648474   6.015   0.457   7.186 -0.0201 -0.3778 -0.0439
  300MOL    H3748475   5.794   0.317   7.211 -0.5492  0.4782  1.7758
  300MOL    H3848476   5.708   0.426   7.136  0.6527  0.2370  0.1285
  300MOL    H3948477   5.883   0.586   0.009 -1.7538 -1.9380  0.3678
  300MOL    H4048478   6.016   0.399   7.269  0.5240  0.2613  0.3956
  300MOL    H4148479   6.093   0.520   7.198  0.1750 -0.1580 -2.2636
  300MOL    C4248480   5.874   0.610   7.062  1.2567 -0.3911  0.7286
  300MOL    C4348481   5.752   0.701   7.055  0.5952 -0.5735  0.2029
  300MOL    N4448482   5.736   0.778   7.170  0.0312  0.1842 -0.2265
  300MOL    H4548483   5.961   0.672   7.042 -0.0326  0.9167 -0.9399
  300MOL    H4648484   5.873   0.528   6.991 -0.2629  1.2431 -1.1984
  300MOL    H4748485   5.657   0.652   7.033 -0.6676  2.2242 -0.9588
  300MOL    H4848486   5.738   0.714   7.248  0.1891 -1.7989 -1.8122
  300MOL    H4948487   5.816   0.839   7.182 -0.8531  1.4239 -0.5302
  300MOL    C5048488   5.761   0.807   6.939  0.1244 -0.4367 -0.6984
  300MOL    C5148489   5.758   0.745   6.802  0.5812 -0.2714 -0.0318
  300MOL    N5248490   5.656   0.817   6.725  0.1422  0.3081 -0.1597
  300MOL    H5348491   5.677   0.876   6.950 -0.9432 -1.7945 -0.2350
  300MOL    H5448492   5.852   0.864   6.957  0.0313 -0.4360 -0.2275
  300MOL    H5548493   5.723   0.643   6.815 -1.4197  0.2766 -0.8762
  300MOL    H5648494   5.629   0.773   6.638 -0.3781 -3.2261  1.7102
  300MOL    H5748495   5.700   0.906   6.702  0.1642  0.6791  1.2680
  300MOL    C5848496   5.893   0.751   6.727 -0.8360 -0.1696 -0.6351
  300MOL    C5948497   5.900   0.659   6.602  0.4094  0.0825  0.2689
  300MOL    N6048498   6.009   0.707   6.524 -0.1282 -0.4820 -0.0543
  300MOL    H6148499   5.917   0.855   6.703  1.5634 -1.0511 -2.2523
  300MOL    H6248500   5.981   0.728   6.787 -1.0426  0.8134  0.0565
  300MOL    H6348501   5.810   0.684   6.547 -0.8758 -1.7166  1.4945
  300MOL    H6448502   6.025   0.641   6.449 -3.2811  0.5740 -1.7468
  300MOL    H6548503   5.976   0.783   6.466 -0.9053 -0.7188  0.0642
  300MOL    C6648504   5.922   0.505   6.621  0.7573 -1.2651 -0.7770
  300MOL    C6748505   5.871   0.417   6.515  0.5863 -0.7957  0.6121
  300MOL    N6848506   5.918   0.279   6.531 -0.0154 -0.3413  0.1212
  300MOL    H6948507   6.029   0.490   6.633  0.8344  0.2445  0.6335
  300MOL    H7048508   5.891   0.476   6.722  2.2569  1.7602  0.6248
  300MOL    H7148509   5.898   0.469   6.423 -0.1745 -0.7638  0.4078
  300MOL    H7248510   6.016   0.276   6.505 -0.3857  1.4574 -1.6575
  300MOL    H7348511   5.874   0.215   6.468 -0.1455  0.5673 -0.7272
  300MOL    C7448512   5.716   0.409   6.513  0.3553  0.3787  0.1109
  300MOL    C7548513   5.646   0.379   6.377  0.2496 -0.0165 -0.1401
  300MOL    N7648514   5.500   0.384   6.398 -0.6067 -0.4884 -0.3586
  300MOL    H7748515   5.681   0.328   6.577 -3.1940  1.8581  0.2068
  300MOL    H7848516   5.670   0.501   6.551  0.6322 -0.7174  3.2216
  300MOL    H7948517   5.676   0.281   6.342  1.3310  0.2878 -0.0925
  300MOL    H8048518   5.450   0.371   6.311 -1.3471 -1.7369  0.2339
  300MOL    H8148519   5.460   0.471   6.429 -0.2421 -0.6988  0.7284
  300MOL    C8248520   5.681   0.470   6.262  0.4141 -0.5258 -0.0472
  300MOL    C8348521   5.804   0.426   6.176  0.1631  0.4752  0.7637
  300MOL    N8448522   5.777   0.296   6.103  1.2616  0.6566  0.0829
  300MOL    H8548523   5.594   0.487   6.198 -0.4041  2.2732  1.6833
  300MOL    H8648524   5.703   0.568   6.306 -2.4206  0.7442 -1.3158
  300MOL    H8748525   5.885   0.398   6.244 -0.2105 -1.0333  0.6086
  300MOL    H8848526   5.735   0.229   6.166  0.2388  0.7483 -0.4963
  300MOL    H8948527   5.862   0.247   6.078  0.2638 -0.2790 -1.5321
  300MOL    C9048528   5.851   0.533   6.076 -0.8045  0.3886  0.0680
  300MOL    C9148529   5.884   0.680   6.121 -0.4879  0.0884  0.8027
  300MOL    N9248530   5.972   0.752   6.029  0.6214  0.7850 -0.7180
  300MOL    H9348531   5.937   0.499   6.019  0.1923  2.9046 -0.0148
  300MOL    H9448532   5.776   0.542   5.998  0.4334 -1.7886 -1.4099
  300MOL    H9548533   5.950   0.661   6.206  1.0770  1.1616 -0.1389
  300MOL    H9648534   5.961   0.851   6.044 -1.1780  0.6074 -0.7079
  300MOL    H9748535   6.068   0.727   6.047 -0.1475 -1.2725  0.7820
  300MOL    C9848536   5.770   0.770   6.157  0.3984 -0.0195 -0.0396
  300MOL    C9948537   5.767   0.836   6.295 -0.1139 -0.2657  0.5501
  300MOL   N10048538   5.890   0.904   6.323  0.1672 -0.0101 -0.0276
  300MOL   H10148539   5.767   0.858   6.092 -1.9324  0.8055  1.1427
  300MOL   H10248540   5.674   0.728   6.128  0.4121  0.7428 -1.2404
  300MOL   H10348541   5.767   0.757   6.370  0.7711 -0.2598  0.5587
  300MOL   H10448542   5.854   0.977   6.382  0.2051 -0.1642  0.1850
  300MOL   H10548543   5.923   0.959   6.245 -1.3341 -1.1489 -1.5029
  300MOL   C10648544   5.642   0.921   6.331  0.5065  0.0745 -0.0567
  300MOL   C10748545   5.508   0.852   6.346 -0.6707  0.3356  0.3719
  300MOL   N10848546   5.495   0.818   6.488  0.1944 -0.1557 -0.5991
  300MOL   H10948547   5.653   0.976   6.425  0.2505 -1.2707  0.7761
  300MOL   H11048548   5.631   0.992   6.249 -0.5186 -1.2729 -1.1131
  300MOL   H11148549   5.496   0.756   6.296 -1.2974  1.0687 -0.9391
  300MOL   H11248550   5.402   0.785   6.509 -0.0545  0.7599 -0.2608
  300MOL   H11348551   5.495   0.904   6.540  1.2944 -0.6004  0.1656
  300MOL   C11448552   5.383   0.937   6.314 -0.4077 -0.3059 -0.0835
  300MOL   C11548553   5.358   0.979   6.168  0.1156 -0.2281 -0.1521
  300MOL   N11648554   5.280   0.887   6.090  0.3678  0.0876  0.2073
  300MOL   H11748555   5.292   0.891   6.354  0.6823 -2.0880  0.3977
  300MOL   H11848556   5.384   1.025   6.379 -0.2599  0.4621 -1.1254
  300MOL   H11948557   5.453   0.998   6.118  0.9381 -0.3345  1.3528
  300MOL   H12048558   5.195   0.858   6.137  1.1332 -1.4884  0.6734
  300MOL   H12148559   5.262   0.935   6.004 -2.2415 -0.3699  0.4353
  300MOL   C12248560   5.277   1.105   6.162 -0.1269  0.3066 -0.0981
  300MOL   C12348561   5.360   1.222   6.212 -0.5521 -0.7485 -0.1182
  300MOL   N12448562   5.404   1.300   6.100  0.6531 -0.2332  0.0479
  300MOL   H12548563   5.262   1.125   6.056 -1.6737 -2.0140 -0.3355
  300MOL   H12648564   5.182   1.087   6.213 -0.1261  0.0115 -0.2032
  300MOL   H12748565   5.450   1.181   6.259  0.8478  1.6878 -0.6037
  300MOL   H12848566   5.435   1.383   6.147 -0.8168  0.0562  0.5134
  300MOL   H12948567   5.488   1.260   6.060  0.3464 -0.8514 -0.0019
  300MOL   C13048568   5.295   1.317   6.312 -0.4311 -0.2062  0.4695
  300MOL   C13148569   5.227   1.270   6.438  0.2336  0.0628 -0.2525
  300MOL   N13248570   5.321   1.228   6.545  0.5725  0.0968  0.6409
  300MOL   H13348571   5.376   1.383   6.343  1.4053 -1.9042 -0.5875
  300MOL   H13448572   5.221   1.375   6.258 -1.2380 -1.6885 -0.0342
  300MOL   H13548573   5.179   1.174   6.417 -0.3971  0.3085  0.0439
  300MOL   H13648574   5.263   1.187   6.616 -1.4082 -0.3003 -1.1585
  300MOL   H13748575   5.367   1.146   6.508  1.3590  0.5466  0.6173
  300MOL   C13848576   5.120   1.370   6.497 -0.4242  0.1866  0.0691
  300MOL   C13948577   4.986   1.348   6.424  0.1548  0.4575  0.3964
  300MOL   N14048578   4.917   1.246   6.490 -0.5612 -0.8166  0.3010
  300MOL   H14148579   5.107   1.353   6.604 -1.5797  0.5741  0.0011
  300MOL   H14248580   5.150   1.475   6.488 -2.1820  0.6529 -0.5094
  300MOL   H14348581   5.008   1.315   6.323  0.8750 -0.5397  0.8677
  300MOL   H14448582   4.900   1.275   6.586 -0.9517 -0.7382  0.2092
  300MOL   H14548583   4.823   1.249   6.454  0.2899 -0.1941 -1.9706
  300MOL   C14648584   4.906   1.481   6.419  0.6466  0.0053 -0.1002
  300MOL   C14748585   4.931   1.542   6.282 -0.0971  0.4540 -0.1429
  300MOL   N14848586   4.829   1.501   6.195  0.2321  0.6839  0.0054
  300MOL   H14948587   4.802   1.452   6.435  0.7684 -1.6373 -2.0305
  300MOL   H15048588   4.924   1.547   6.504  0.3981  0.0837 -0.1072
  300MOL   H15148589   5.030   1.519   6.244  0.0073  0.0885  0.3431
  300MOL   H15248590   4.830   1.400   6.187 -1.1847  0.5323  1.5005
  300MOL   H15348591   4.740   1.521   6.237  0.7111  1.4336  0.6693
  300MOL   C15448592   4.928   1.689   6.281  0.0561  0.0693 -0.3128
  300MOL   C15548593   4.989   1.753   6.153 -0.4712  0.0355 -0.2501
  300MOL   N15648594   5.007   1.896   6.158 -0.2218  0.1512 -0.6700
  300MOL   H15748595   4.832   1.721   6.321 -0.2135 -0.1675 -0.7636
  300MOL   H15848596   5.000   1.724   6.355  0.9573 -0.2558 -1.0284
  300MOL   H15948597   4.927   1.729   6.066 -0.0039 -1.3634 -0.2093
  300MOL   H16048598   5.089   1.913   6.215 -0.2755  1.2006 -0.8886
  300MOL   H16148599   5.026   1.930   6.065 -3.1255 -2.0316 -2.1604
  300MOL   H16248600   5.088   1.710   6.137 -0.8151 -1.7115  1.9560
  301MOL     C148601   4.528   5.008   4.690  0.0846 -0.6097  0.3409
  301MOL     C248602   4.638   5.108   4.728 -0.4170 -0.0572  0.3109
  301MOL     N348603   4.591   5.177   4.845 -0.4953  0.0021 -0.1248
  301MOL     H448604   4.441   5.074   4.684  0.1078 -0.5024  1.1761
  301MOL     H548605   4.505   4.925   4.757 -0.3528 -0.6905  0.0901
  301MOL     H648606   4.646   5.184   4.650  1.1560 -0.5424 -0.0108
  301MOL     H748607   4.536   5.255   4.812  0.0653  1.5152  2.3973
  301MOL     H848608   4.524   5.116   4.890  2.0519 -1.7857  1.4144
  301MOL     H948609   4.545   4.972   4.588 -0.4467  0.8979 -0.2970
  301MOL    C1048610   4.775   5.033   4.738 -0.4791 -0.5289 -0.0616
  301MOL    C1148611   4.888   5.144   4.737 -0.1478  0.3078 -0.5641
  301MOL    N1248612   5.015   5.092   4.779  0.1054 -0.2772  0.0455
  301MOL    H1348613   4.778   4.965   4.823 -1.3082  2.6493  2.6278
  301MOL    H1448614   4.782   4.973   4.647 -1.7626 -0.2037 -0.3840
  301MOL    H1548615   4.855   5.210   4.818 -1.1339  0.1905 -0.8686
  301MOL    H1648616   5.006   5.049   4.870  0.6858  0.3446  0.4027
  301MOL    H1748617   5.087   5.159   4.800 -1.4735  1.6479 -0.5621
  301MOL    C1848618   4.914   5.223   4.605  0.2984 -0.0012  0.7403
  301MOL    C1948619   4.965   5.365   4.632 -0.6260  0.8796  0.1121
  301MOL    N2048620   5.023   5.411   4.504  0.1450  0.0700 -0.5150
  301MOL    H2148621   4.975   5.164   4.537 -0.9177  0.3606 -0.6873
  301MOL    H2248622   4.816   5.227   4.557 -0.1639 -1.0403  1.5767
  301MOL    H2348623   5.046   5.343   4.703 -1.8709  0.0239  1.3022
  301MOL    H2448624   5.092   5.480   4.530 -0.3835 -0.7275  3.2897
  301MOL    H2548625   4.953   5.457   4.447  1.2667  2.5351  0.0249
  301MOL    C2648626   4.854   5.457   4.688 -0.3788  0.5517  0.4955
  301MOL    C2748627   4.888   5.496   4.835 -0.4282  0.1829  0.8097
  301MOL    N2848628   4.990   5.600   4.826 -0.1164 -0.2891 -0.1342
  301MOL    H2948629   4.833   5.539   4.619  0.3037  0.7953  0.5827
  301MOL    H3048630   4.757   5.407   4.694 -0.5625  0.8885  0.3362
  301MOL    H3148631   4.929   5.407   4.882  2.4703  1.4190  0.6938
  301MOL    H3248632   4.941   5.679   4.787 -0.8120 -1.2934 -1.3243
  301MOL    H3348633   5.064   5.588   4.758  0.0900 -0.6147  0.1415
  301MOL    C3448634   4.771   5.551   4.925  0.6455  0.3548 -0.2422
  301MOL    C3548635   4.800   5.552   5.079  0.6872  0.1225  0.4980
  301MOL    N3648636   4.729   5.663   5.144  0.7110 -0.0227  0.0429
  301MOL    H3748637   4.746   5.653   4.895 -1.2736  0.0170  0.2002
  301MOL    H3848638   4.678   5.500   4.900  1.5694 -1.3780 -0.2270
  301MOL    H3948639   4.907   5.571   5.084  0.9894 -1.0193 -0.9063
  301MOL    H4048640   4.678   5.712   5.073 -0.8279  1.8820  2.3684
  301MOL    H4148641   4.653   5.626   5.200 -0.0347  0.2405 -0.7969
  301MOL    C4248642   4.773   5.416   5.155  0.5691  0.3478  0.4354
  301MOL    C4348643   4.879   5.294   5.139 -0.4459 -0.2198  0.4863
  301MOL    N4448644   5.009   5.320   5.198 -0.5292  0.4945 -0.3036
  301MOL    H4548645   4.788   5.436   5.261  1.8285 -0.9407  0.5249
  301MOL    H4648646   4.668   5.388   5.152 -0.1202  2.4836  3.0415
  301MOL    H4748647   4.897   5.274   5.034  1.2439  0.6427  0.5936
  301MOL    H4848648   5.070   5.248   5.162 -1.1948  0.0204 -0.4910
  301MOL    H4948649   5.047   5.404   5.158 -2.2757  1.1406 -0.6012
  301MOL    C5048650   4.827   5.163   5.211 -0.0182  0.9537 -0.0151
  301MOL    C5148651   4.689   5.112   5.164 -0.2159  0.1684  0.3296
  301MOL    N5248652   4.692   5.007   5.065  0.1875 -0.4731 -0.2012
  301MOL    H5348653   4.900   5.082   5.198 -3.7182 -2.5418 -0.1582
  301MOL    H5448654   4.820   5.184   5.318  0.1903 -0.4364  0.2856
  301MOL    H5548655   4.622   5.195   5.143 -2.1594 -1.8777 -1.8138
  301MOL    H5648656   4.599   4.968   5.071 -0.2761  0.7370  0.6759
  301MOL    H5748657   4.677   5.052   4.975  1.0131  2.1558  0.9210
  301MOL    C5848658   4.603   5.033   5.277  0.3348 -0.1447 -0.3278
  301MOL    C5948659   4.554   5.137   5.380 -0.3050 -0.3313  0.1151
  301MOL    N6048660   4.409   5.141   5.385 -0.1425  0.0414  0.1769
  301MOL    H6148661   4.516   4.982   5.238 -0.7004  0.2490  1.4030
  301MOL    H6248662   4.658   4.950   5.321  2.3885  1.6916  0.7400
  301MOL    H6348663   4.586   5.236   5.349 -0.6121  0.0410  0.9694
  301MOL    H6448664   4.365   5.063   5.430 -1.2494 -0.0430 -1.0223
  301MOL    H6548665   4.364   5.146   5.295 -0.4584 -1.2754  0.2530
  301MOL    C6648666   4.603   5.119   5.522 -0.3247 -0.4107 -0.8087
  301MOL    C6748667   4.594   5.249   5.617 -0.6689  0.4360  0.3658
  301MOL    N6848668   4.599   5.192   5.751 -0.0849 -0.0915 -0.2363
  301MOL    H6948669   4.561   5.029   5.567 -0.9095 -0.8685 -2.2468
  301MOL    H7048670   4.710   5.098   5.517  0.0352  1.2876 -0.7164
  301MOL    H7148671   4.496   5.287   5.587  0.4973  0.8749 -3.0357
  301MOL    H7248672   4.560   5.264   5.810 -2.2567 -1.5411  0.1697
  301MOL    H7348673   4.516   5.134   5.750  0.4590 -0.8808 -0.8679
  301MOL    C7448674   4.703   5.347   5.581  0.3443 -0.2811 -0.2710
  301MOL    C7548675   4.654   5.489   5.566  0.0849  0.2875 -0.8011
  301MOL    N7648676   4.779   5.562   5.523  0.7756 -0.3912  0.6498
  301MOL    H7748677   4.771   5.362   5.665 -0.6328 -1.2702  0.7123
  301MOL    H7848678   4.755   5.309   5.493  0.0024 -0.0977 -0.5481
  301MOL    H7948679   4.613   5.528   5.658 -1.4552  0.7436 -1.6622
  301MOL    H8048680   4.789   5.580   5.424 -0.8237 -1.9012  0.1985
  301MOL    H8148681   4.795   5.641   5.584  0.2790 -0.0866  0.3937
  301MOL    C8248682   4.552   5.516   5.449 -0.2147  0.7405 -0.5147
  301MOL    C8348683   4.474   5.649   5.471 -0.3243  0.1277 -0.0128
  301MOL    N8448684   4.457   5.702   5.333  0.0438 -0.2936  0.2698
  301MOL    H8548685   4.606   5.511   5.355 -1.2945  1.1232 -1.1594
  301MOL    H8648686   4.480   5.435   5.437  0.2312  0.1765  0.4760
  301MOL    H8748687   4.546   5.708   5.529  0.6719  0.2910 -1.3755
  301MOL    H8848688   4.545   5.730   5.291 -1.0482  2.5595 -0.2888
  301MOL    H8948689   4.401   5.787   5.335 -1.9510 -1.5341 -0.9853
  301MOL    C9048690   4.337   5.629   5.534  0.0901 -0.2083 -0.8628
  301MOL    C9148691   4.291   5.731   5.650  0.1272 -0.2201  0.1757
  301MOL    N9248692   4.349   5.671   5.765  0.0628 -0.0172 -0.8289
  301MOL    H9348693   4.263   5.637   5.455  0.7810  3.0497 -1.2430
  301MOL    H9448694   4.319   5.526   5.566 -0.2718 -0.5396 -2.1108
  301MOL    H9548695   4.182   5.728   5.659 -0.1727 -0.4774 -3.1550
  301MOL    H9648696   4.286   5.614   5.820  0.9988  0.0094  0.2986
  301MOL    H9748697   4.363   5.740   5.837  1.0779 -0.8287 -0.2202
  301MOL    C9848698   4.345   5.874   5.624  1.2251  0.0131  0.7704
  301MOL    C9948699   4.290   5.986   5.725 -0.3457  0.4048  0.1119
  301MOL   N10048700   4.374   6.103   5.749 -0.1406  0.0155 -0.6051
  301MOL   H10148701   4.454   5.874   5.629  1.2404 -0.8593  0.5709
  301MOL   H10248702   4.323   5.899   5.521  0.2347 -0.0578  0.9600
  301MOL   H10348703   4.309   5.933   5.818 -0.3161 -0.2998 -0.2918
  301MOL   H10448704   4.452   6.071   5.804 -0.4866 -0.8486 -0.6065
  301MOL   H10548705   4.316   6.155   5.813  1.4758 -1.3756  2.0359
  301MOL   C10648706   4.135   6.022   5.701 -0.0699  0.2068  0.5652
  301MOL   C10748707   4.087   6.149   5.781  0.5423  0.6761  0.7811
  301MOL   N10848708   3.974   6.211   5.718 -0.1992  0.3128  0.1993
  301MOL   H10948709   4.120   6.038   5.594 -0.7140 -0.7185  0.5163
  301MOL   H11048710   4.064   5.945   5.729 -0.2831 -0.7748 -2.5121
  301MOL   H11148711   4.156   6.233   5.775 -0.9154  1.8656  0.3669
  301MOL   H11248712   3.963   6.295   5.774 -1.8560  1.1935 -1.3817
  301MOL   H11348713   3.901   6.142   5.724  0.5709 -0.6352 -1.0770
  301MOL   C11448714   4.052   6.133   5.932  0.9230 -0.7445 -0.0286
  301MOL   C11548715   4.169   6.083   6.017  0.3342 -0.6615  0.8379
  301MOL   N11648716   4.270   6.187   6.011 -0.1867 -0.4545  0.4396
  301MOL   H11748717   4.009   6.223   5.976 -1.1156 -2.3777  1.4468
  301MOL   H11848718   3.970   6.062   5.916 -1.9346  2.2770  0.6509
  301MOL   H11948719   4.211   5.989   5.981  0.8418  1.0777 -3.2800
  301MOL   H12048720   4.284   6.231   6.101  0.4891  0.9557 -0.3395
  301MOL   H12148721   4.357   6.137   5.999 -0.4583 -0.7047 -0.5605
  301MOL   C12248722   4.128   6.076   6.166  0.7181  0.6329 -0.3974
  301MOL   C12348723   4.016   5.976   6.192  0.2243 -0.1528  0.2554
  301MOL   N12448724   4.067   5.846   6.144 -0.2027  0.7845  0.0931
  301MOL   H12548725   4.215   6.040   6.221  1.6506  1.5282 -1.2650
  301MOL   H12648726   4.109   6.173   6.213  0.0868  1.8293 -3.0619
  301MOL   H12748727   3.921   5.998   6.142 -0.5329 -0.4569  1.5430
  301MOL   H12848728   4.029   5.785   6.215  1.4669 -0.5595 -0.1438
  301MOL   H12948729   4.024   5.798   6.067 -0.2347 -0.7428  1.0456
  301MOL   C13048730   3.977   5.959   6.344 -0.1902 -0.4713  0.6029
  301MOL   C13148731   3.902   6.077   6.408 -0.0521 -0.1366  0.2308
  301MOL   N13248732   3.760   6.069   6.370 -0.1559  0.1198 -0.0053
  301MOL   H13348733   3.910   5.873   6.352 -0.0460 -0.5521  0.9350
  301MOL   H13448734   4.075   5.950   6.390  1.5219 -0.7889 -2.9818
  301MOL   H13548735   3.944   6.171   6.372  0.6174 -0.0728  1.1757
  301MOL   H13648736   3.737   6.084   6.273 -1.4153  2.1517  0.5873
  301MOL   H13748737   3.706   6.134   6.425 -0.7516 -0.9827  0.7412
  301MOL   C13848738   3.917   6.070   6.560  0.3644 -0.3321  0.5850
  301MOL   C13948739   3.904   6.209   6.625 -0.5323  0.8350 -0.1478
  301MOL   N14048740   3.842   6.188   6.768 -0.4847  0.7542 -0.1529
  301MOL   H14148741   3.844   6.003   6.607  0.1521  0.2474  1.0982
  301MOL   H14248742   4.013   6.035   6.600  0.3951 -0.0481  0.7603
  301MOL   H14348743   3.833   6.273   6.573 -0.2097  2.2212  1.0801
  301MOL   H14448744   3.915   6.142   6.820  0.8206  2.2484 -0.5960
  301MOL   H14548745   3.776   6.117   6.741  0.5362 -0.1286 -0.3436
  301MOL   C14648746   4.034   6.293   6.637  0.2404  0.0689  0.1096
  301MOL   C14748747   4.015   6.435   6.694 -0.5353  0.1223  0.7456
  301MOL   N14848748   4.132   6.470   6.775  0.3360  0.4617 -0.8301
  301MOL   H14948749   4.100   6.240   6.706 -0.9749 -0.3961  0.9259
  301MOL   H15048750   4.099   6.291   6.550  0.8146  2.7944  0.4217
  301MOL   H15148751   3.929   6.435   6.761 -0.5729 -2.8863  0.7450
  301MOL   H15248752   4.134   6.570   6.790 -1.2052  0.2939  0.7464
  301MOL   H15348753   4.114   6.429   6.866 -0.6374  1.6832 -0.4524
  301MOL   C15448754   4.008   6.546   6.581  0.0830 -0.0729  0.4989
  301MOL   C15548755   3.901   6.509   6.472 -0.2650 -0.6272  0.8742
  301MOL   N15648756   3.886   6.603   6.367 -0.3179  0.3693 -0.0474
  301MOL   H15748757   3.991   6.640   6.634  0.7637  1.1844 -1.4701
  301MOL   H15848758   4.095   6.558   6.517 -0.9959  2.0658 -0.6423
  301MOL   H15948759   3.807   6.507   6.528 -0.6892  0.2694  0.2165
  301MOL   H16048760   3.966   6.623   6.309 -0.4807  3.1079  0.5777
  301MOL   H16148761   3.884   6.695   6.410 -1.8519 -0.1079  0.9630
  301MOL   H16248762   3.912   6.411   6.427  1.6985 -0.9068  1.9212
  302MOL     C148763   2.091   0.512   1.832 -0.3039 -0.4198  0.4900
  302MOL     C248764   1.976   0.465   1.915  0.1232  0.1131 -0.2702
  302MOL     N348765   1.863   0.452   1.824 -0.1304 -0.3665  0.3242
  302MOL     H448766   2.127   0.438   1.761  2.1673  1.0336  0.1678
  302MOL     H548767   2.169   0.551   1.898 -1.4470  1.8886  0.5204
  302MOL     H648768   1.950   0.549   1.979 -1.1004 -0.2148 -0.3393
  302MOL     H748769   1.830   0.357   1.836 -1.8103  0.4771  2.7513
  302MOL     H848770   1.795   0.511   1.871  1.9090  0.3779  2.4242
  302MOL     H948771   2.057   0.598   1.774  1.6870 -0.9166 -1.4921
  302MOL    C1048772   1.993   0.335   1.993 -0.8379  0.2384  0.0959
  302MOL    C1148773   1.860   0.282   2.062  0.2142 -0.1070  0.0668
  302MOL    N1248774   1.779   0.219   1.960  0.1183  0.4305  0.7284
  302MOL    H1348775   2.029   0.265   1.918 -1.1663  0.9135 -0.6954
  302MOL    H1448776   2.080   0.342   2.060  1.0416 -1.0484 -2.1354
  302MOL    H1548777   1.790   0.355   2.102 -0.9787 -1.8878  1.2808
  302MOL    H1648778   1.818   0.134   1.924 -1.1786  0.1419 -0.0511
  302MOL    H1748779   1.691   0.198   2.005  0.9285 -2.3432  1.0890
  302MOL    C1848780   1.879   0.185   2.178 -0.4910  0.3402 -0.3861
  302MOL    C1948781   1.941   0.238   2.308  0.4911 -0.0931  0.1341
  302MOL    N2048782   1.857   0.339   2.378 -0.6532  0.1152 -0.4210
  302MOL    H2148783   1.789   0.128   2.203  0.7126 -1.1787  0.5408
  302MOL    H2248784   1.945   0.107   2.141 -0.9748  0.3653 -1.3323
  302MOL    H2348785   2.036   0.286   2.285  0.2665 -1.1858 -3.4130
  302MOL    H2448786   1.918   0.383   2.445  0.9503  0.7848 -2.2511
  302MOL    H2548787   1.787   0.287   2.428  0.6628 -0.8992  0.3778
  302MOL    C2648788   1.974   0.126   2.404 -0.7120  0.0094  0.3883
  302MOL    C2748789   2.122   0.112   2.448  0.1540  0.4014  0.3485
  302MOL    N2848790   2.210   0.080   2.339 -0.1958  0.4160  0.1234
  302MOL    H2948791   1.902   0.135   2.485 -0.5164  2.1504  0.3621
  302MOL    H3048792   1.950   0.032   2.354 -0.0043  0.0989 -0.1187
  302MOL    H3148793   2.129   0.020   2.507 -0.8608  0.1693  0.1167
  302MOL    H3248794   2.189   7.260   2.314 -0.8462  0.7242 -0.5391
  302MOL    H3348795   2.297   0.056   2.385 -0.3220 -0.7516 -0.2359
  302MOL    C3448796   2.181   0.227   2.529  0.0246 -0.1916 -0.1685
  302MOL    C3548797   2.117   0.231   2.671 -0.3486  0.7234 -0.1610
  302MOL    N3648798   2.152   0.103   2.742 -0.0382  0.1578  0.0201
  302MOL    H3748799   2.287   0.204   2.539  0.2085 -0.2464 -2.0844
  302MOL    H3848800   2.177   0.320   2.472  0.9383  0.3618  0.6440
  302MOL    H3948801   2.009   0.231   2.659 -0.1960 -3.1911 -2.5671
  302MOL    H4048802   2.096   0.088   2.825  0.3889 -0.6565  0.1738
  302MOL    H4148803   2.242   0.112   2.787 -0.1066  3.9118 -0.5103
  302MOL    C4248804   2.175   0.343   2.761  0.4321 -0.3184 -0.6061
  302MOL    C4348805   2.104   0.482   2.762  0.4374 -0.3465 -0.7309
  302MOL    N4448806   2.175   0.562   2.868  0.5911 -0.7317  0.0772
  302MOL    H4548807   2.156   0.315   2.864  0.9466  1.0783 -0.1195
  302MOL    H4648808   2.281   0.342   2.737 -0.3624  0.6110 -4.5584
  302MOL    H4748809   1.999   0.471   2.789  0.6887  0.2720  0.5243
  302MOL    H4848810   2.272   0.532   2.868  1.6700  2.4801  1.2081
  302MOL    H4948811   2.188   0.650   2.821  1.0045 -1.8643 -2.0124
  302MOL    C5048812   2.112   0.557   2.628  0.5648  0.3521  0.0799
  302MOL    C5148813   2.010   0.668   2.617  0.4949 -0.5732 -0.0122
  302MOL    N5248814   2.031   0.747   2.502 -0.1974 -0.0050 -0.0096
  302MOL    H5348815   2.215   0.578   2.596  1.0772 -0.6370  1.0413
  302MOL    H5448816   2.074   0.491   2.551  0.3210 -1.3396  1.6354
  302MOL    H5548817   2.044   0.730   2.700  0.1287 -0.4376  0.0368
  302MOL    H5648818   2.026   0.695   2.416 -0.1303  1.0436 -0.6552
  302MOL    H5748819   1.952   0.809   2.493 -0.4099 -0.2456  0.1803
  302MOL    C5848820   1.862   0.634   2.629  0.3539  0.2467 -0.0362
  302MOL    C5948821   1.769   0.738   2.685  0.2201 -0.5613 -0.3550
  302MOL    N6048822   1.634   0.689   2.684 -0.3774 -0.1823  0.3140
  302MOL    H6148823   1.825   0.615   2.528 -1.8652 -0.7209  0.9255
  302MOL    H6248824   1.844   0.538   2.675  0.4621 -1.4170 -3.2970
  302MOL    H6348825   1.771   0.826   2.621 -0.7889 -1.3875 -1.5629
  302MOL    H6448826   1.598   0.710   2.592 -1.2049  1.9252  1.0883
  302MOL    H6548827   1.589   0.759   2.742  0.6636  1.0779 -0.3585
  302MOL    C6648828   1.806   0.786   2.830  0.0100 -0.2240  0.1153
  302MOL    C6748829   1.889   0.918   2.847  0.4575 -0.2179  0.3702
  302MOL    N6848830   1.788   1.024   2.835 -0.0002 -0.5692  0.3092
  302MOL    H6948831   1.712   0.785   2.887  0.6769 -4.4363  1.3367
  302MOL    H7048832   1.859   0.703   2.876  1.4996  1.9209  2.3723
  302MOL    H7148833   1.960   0.920   2.764 -0.2771 -0.6048 -0.2731
  302MOL    H7248834   1.729   1.006   2.915  0.1086 -1.1479  0.2639
  302MOL    H7348835   1.735   1.010   2.750  0.2282 -0.8060  0.2035
  302MOL    C7448836   1.959   0.915   2.980  0.0678 -0.3154  0.2558
  302MOL    C7548837   2.115   0.930   2.961 -0.3216  0.6115  0.2090
  302MOL    N7648838   2.163   1.065   2.979  0.0615  0.8344 -0.3072
  302MOL    H7748839   1.933   1.002   3.039  1.4863  1.0101 -1.0204
  302MOL    H7848840   1.937   0.818   3.024 -0.0359 -1.7026 -2.7038
  302MOL    H7948841   2.152   0.907   2.861 -2.1546 -1.4094 -0.0412
  302MOL    H8048842   2.167   1.104   3.072 -0.5724  2.3672 -0.9052
  302MOL    H8148843   2.250   1.085   2.932  0.2074 -2.5747 -1.6709
  302MOL    C8248844   2.181   0.835   3.062  0.7265  0.0402 -0.2523
  302MOL    C8348845   2.335   0.838   3.073 -0.1880 -0.2229  0.7379
  302MOL    N8448846   2.367   0.755   3.191  0.0976  0.4403 -0.1524
  302MOL    H8548847   2.156   0.864   3.164 -1.5271  1.3171 -1.1341
  302MOL    H8648848   2.138   0.734   3.057 -0.7355  0.6744 -0.8221
  302MOL    H8748849   2.366   0.941   3.092 -0.3830 -0.0847  0.3095
  302MOL    H8848850   2.311   0.795   3.264  0.9988  2.8952 -0.7502
  302MOL    H8948851   2.330   0.661   3.182 -1.7329  1.1255  0.0359
  302MOL    C9048852   2.410   0.784   2.946 -0.0881 -0.4820 -0.0358
  302MOL    C9148853   2.566   0.793   2.949  0.0386  0.2235  0.2143
  302MOL    N9248854   2.606   0.727   2.829 -0.2522 -0.6412 -0.1377
  302MOL    H9348855   2.389   0.678   2.928  0.0977 -0.3204 -1.3106
  302MOL    H9448856   2.371   0.840   2.861  0.5685 -0.3823 -0.2795
  302MOL    H9548857   2.598   0.734   3.036  1.9308 -1.7148 -1.7274
  302MOL    H9648858   2.583   0.630   2.843 -0.0779 -0.6454  0.1224
  302MOL    H9748859   2.704   0.741   2.808 -0.6404  0.3262 -1.3388
  302MOL    C9848860   2.622   0.934   2.943  0.1003  0.1290  0.0789
  302MOL    C9948861   2.641   0.999   3.089 -0.2633 -0.0882 -0.4475
  302MOL   N10048862   2.765   0.959   3.155 -0.3345 -0.1410  0.1601
  302MOL   H10148863   2.714   0.933   2.885 -0.6660 -2.6116 -1.1500
  302MOL   H10248864   2.554   0.991   2.881  0.3883 -1.3398 -1.6124
  302MOL   H10348865   2.566   0.975   3.164 -1.5217  2.4146 -0.8701
  302MOL   H10448866   2.834   0.931   3.087  0.2892  0.4024  0.5660
  302MOL   H10548867   2.734   0.870   3.190  0.9504 -0.2924  0.9150
  302MOL   C10648868   2.644   1.147   3.072  0.4396  0.0959 -0.7252
  302MOL   C10748869   2.503   1.212   3.044 -0.2467  1.1101  0.1609
  302MOL   N10848870   2.412   1.197   3.157  0.2163 -0.4778 -0.1205
  302MOL   H10948871   2.678   1.202   3.160  1.8402  3.6144 -3.3274
  302MOL   H11048872   2.713   1.155   2.987  0.5448  0.7038 -0.5827
  302MOL   H11148873   2.444   1.169   2.964  0.0330  0.3344  0.3669
  302MOL   H11248874   2.322   1.236   3.133 -1.1066  0.2701  5.4296
  302MOL   H11348875   2.448   1.249   3.236  0.0073  3.2077 -2.3168
  302MOL   C11448876   2.515   1.360   3.010 -0.0793 -1.2817  0.0580
  302MOL   C11548877   2.443   1.396   2.880  0.4589  0.4565  0.2744
  302MOL   N11648878   2.405   1.533   2.886 -0.1976  0.0753  0.0446
  302MOL   H11748879   2.468   1.419   3.089  0.0230  1.2333 -1.7132
  302MOL   H11848880   2.621   1.384   2.997 -1.0414  3.0481 -0.4520
  302MOL   H11948881   2.349   1.342   2.890  0.7189 -0.2606 -1.0480
  302MOL   H12048882   2.374   1.567   2.796  2.7632  0.0968 -1.0277
  302MOL   H12148883   2.481   1.598   2.904 -0.4760 -0.1350  2.0374
  302MOL   C12248884   2.523   1.354   2.750  0.2186 -0.5864 -0.6205
  302MOL   C12348885   2.428   1.331   2.628 -0.2713  0.2813 -0.6114
  302MOL   N12448886   2.504   1.343   2.506 -0.2127 -0.0555  0.5458
  302MOL   H12548887   2.586   1.440   2.729 -0.0241 -0.6142 -1.4968
  302MOL   H12648888   2.593   1.270   2.756  1.2820  0.2359 -1.3446
  302MOL   H12748889   2.343   1.400   2.631 -0.3806  0.0725  1.9662
  302MOL   H12848890   2.481   1.257   2.459 -0.5037 -0.3649  1.2460
  302MOL   H12948891   2.451   1.408   2.448  1.2257 -0.6584 -1.4833
  302MOL   C13048892   2.371   1.185   2.651 -0.3501  0.0958 -0.6057
  302MOL   C13148893   2.301   1.123   2.529  1.3761 -0.3969  0.0452
  302MOL   N13248894   2.263   0.988   2.569  0.5677  0.2729 -0.1312
  302MOL   H13348895   2.449   1.115   2.681  0.0407  2.2160  3.6382
  302MOL   H13448896   2.309   1.193   2.740 -0.0528  0.4129 -0.4230
  302MOL   H13548897   2.369   1.124   2.444 -1.2013  0.4898 -2.0634
  302MOL   H13648898   2.184   0.955   2.517  0.2245 -0.4335  0.8123
  302MOL   H13748899   2.223   1.005   2.661  2.7217 -0.4623  0.9774
  302MOL   C13848900   2.178   1.203   2.491  0.2663  0.0673 -0.4178
  302MOL   C13948901   2.111   1.179   2.351  0.7688  0.0309  0.4516
  302MOL   N14048902   2.006   1.277   2.333  0.1819  0.0699  0.4677
  302MOL   H14148903   2.117   1.181   2.578  1.0861 -0.1002  0.1171
  302MOL   H14248904   2.201   1.309   2.501 -0.3918  0.1731 -0.0063
  302MOL   H14348905   2.074   1.077   2.352  1.6307 -0.2816  0.8318
  302MOL   H14448906   1.995   1.307   2.237 -3.8088  0.2076  0.8823
  302MOL   H14548907   1.918   1.230   2.350  0.2463 -1.3642 -2.8165
  302MOL   C14648908   2.202   1.210   2.233  0.1957  1.0439 -0.2758
  302MOL   C14748909   2.284   1.084   2.178  0.1650 -0.4018  0.6232
  302MOL   N14848910   2.196   0.995   2.104 -0.6261 -0.4779 -0.3065
  302MOL   H14948911   2.157   1.264   2.149 -0.0620  1.8064  0.3391
  302MOL   H15048912   2.279   1.274   2.275  0.5750 -0.1331  0.8555
  302MOL   H15148913   2.331   1.036   2.264 -1.4018 -2.4765  0.3615
  302MOL   H15248914   2.251   0.917   2.071  1.5485  0.3193  1.3593
  302MOL   H15348915   2.132   0.955   2.172 -1.8243  2.2531  0.2451
  302MOL   C15448916   2.397   1.142   2.086  0.6618  0.4289 -0.2708
  302MOL   C15548917   2.502   1.241   2.160 -1.1395  0.2545 -0.6876
  302MOL   N15648918   2.599   1.281   2.061  0.0015 -0.1432 -0.2202
  302MOL   H15748919   2.449   1.054   2.048 -1.6081 -0.6865 -0.8683
  302MOL   H15848920   2.359   1.212   2.012 -1.5024 -0.5116 -0.0859
  302MOL   H15948921   2.535   1.187   2.249 -0.5520  1.5620 -0.0977
  302MOL   H16048922   2.664   1.351   2.095  3.0345 -2.5660 -0.7192
  302MOL   H16148923   2.552   1.336   1.991 -0.1418 -2.3054 -1.8834
  302MOL   H16248924   2.456   1.333   2.195  0.7144  0.5018  1.1681
  303MOL     C148925   1.797   3.292   2.637 -0.3028 -0.3538 -0.2952
  303MOL     C248926   1.727   3.256   2.510 -0.5326  0.0356 -0.1898
  303MOL     N348927   1.730   3.109   2.487 -0.5661  0.1659 -0.7897
  303MOL     H448928   1.898   3.252   2.633 -0.1778 -0.1203  0.4176
  303MOL     H548929   1.752   3.237   2.719 -3.2830  1.9563 -0.2857
  303MOL     H648930   1.779   3.312   2.433  0.5606 -0.0751  0.4572
  303MOL     H748931   1.825   3.080   2.508 -0.5939  1.0001  0.5503
  303MOL     H848932   1.704   3.083   2.393  1.6866 -0.9429 -1.1373
  303MOL     H948933   1.806   3.400   2.651  1.6029  0.0141 -3.8724
  303MOL    C1048934   1.578   3.300   2.511 -0.1390 -0.3323 -0.3577
  303MOL    C1148935   1.544   3.402   2.408  1.0988  0.4013 -0.0430
  303MOL    N1248936   1.403   3.404   2.407 -0.1225 -0.0680  0.3309
  303MOL    H1348937   1.520   3.208   2.501 -3.0491  1.4758 -0.7952
  303MOL    H1448938   1.567   3.344   2.610  1.0959 -0.8633  0.0210
  303MOL    H1548939   1.564   3.366   2.307 -2.5540 -2.3344  0.1293
  303MOL    H1648940   1.374   3.307   2.406  2.2926 -0.8327  1.9157
  303MOL    H1748941   1.362   3.455   2.483 -0.2542  0.4583 -0.0924
  303MOL    C1848942   1.604   3.537   2.441 -0.2255 -0.6002  0.4133
  303MOL    C1948943   1.596   3.640   2.330 -0.5243  0.3447  0.8109
  303MOL    N2048944   1.617   3.767   2.393 -0.4306  0.3216 -0.7145
  303MOL    H2148945   1.568   3.581   2.534  0.9563  0.0579  0.5628
  303MOL    H2248946   1.711   3.521   2.453 -0.3266 -1.6915 -0.1260
  303MOL    H2348947   1.497   3.643   2.286  1.0047 -2.8780 -3.1901
  303MOL    H2448948   1.559   3.767   2.476  0.1354 -2.6187 -0.2856
  303MOL    H2548949   1.580   3.844   2.339  0.0944  0.7438 -0.4803
  303MOL    C2648950   1.704   3.604   2.220  0.4966 -0.1993  0.7224
  303MOL    C2748951   1.731   3.710   2.110  0.0792 -0.6293  0.0404
  303MOL    N2848952   1.846   3.672   2.027 -0.0090  0.3545 -0.8454
  303MOL    H2948953   1.797   3.587   2.274  0.9519  0.0015  0.0032
  303MOL    H3048954   1.680   3.512   2.168  1.6911  0.1378 -0.4514
  303MOL    H3148955   1.752   3.806   2.158 -0.2354 -0.8954  0.7219
  303MOL    H3248956   1.926   3.705   2.080  0.2834  1.4958 -1.9744
  303MOL    H3348957   1.844   3.572   2.015  0.7634  0.1450  0.5902
  303MOL    C3448958   1.616   3.720   2.002  0.1376  0.1293 -0.4558
  303MOL    C3548959   1.629   3.830   1.889  0.8233 -0.2799  0.0474
  303MOL    N3648960   1.549   3.774   1.783 -0.3754  0.0133 -0.5393
  303MOL    H3748961   1.618   3.614   1.977 -0.3830 -0.8184  3.2197
  303MOL    H3848962   1.532   3.737   2.069  1.1439 -1.6751  1.2926
  303MOL    H3948963   1.732   3.850   1.858  0.7752  0.9484  0.6140
  303MOL    H4048964   1.559   3.812   1.690 -1.1655  0.5106 -0.4209
  303MOL    H4148965   1.574   3.676   1.775 -1.8688 -0.4558  0.4407
  303MOL    C4248966   1.553   3.965   1.921  0.1361  0.1846  0.0053
  303MOL    C4348967   1.621   4.056   2.032 -0.7994  0.6512  0.3070
  303MOL    N4448968   1.748   4.116   1.974 -0.0438  0.0823  0.0481
  303MOL    H4548969   1.550   4.028   1.832 -0.0374 -0.6643 -0.5938
  303MOL    H4648970   1.450   3.947   1.952  0.6371 -0.0516  1.6105
  303MOL    H4748971   1.656   4.003   2.121 -1.6034 -3.8743 -1.9288
  303MOL    H4848972   1.817   4.044   1.960 -1.4987 -1.7887  2.0716
  303MOL    H4948973   1.794   4.184   2.032 -2.6905 -1.2566  3.9785
  303MOL    C5048974   1.524   4.166   2.081 -0.5129  0.9851  0.0971
  303MOL    C5148975   1.397   4.110   2.151  0.1138  0.3211  0.2384
  303MOL    N5248976   1.447   4.037   2.267  0.0366  0.2234  0.1079
  303MOL    H5348977   1.567   4.248   2.138  1.5008  0.5818 -0.8055
  303MOL    H5448978   1.496   4.215   1.988 -0.5267 -0.1613 -0.5102
  303MOL    H5548979   1.342   4.037   2.091 -1.0262  0.7929  0.7057
  303MOL    H5648980   1.484   4.094   2.342 -0.7273  2.6150 -1.3080
  303MOL    H5748981   1.357   4.011   2.305 -0.3754 -1.0715 -1.7268
  303MOL    C5848982   1.300   4.221   2.189 -0.0095  0.1812  0.1529
  303MOL    C5948983   1.229   4.274   2.060 -0.4400  0.5147 -0.2839
  303MOL    N6048984   1.108   4.198   2.047  0.0818  0.1165 -0.4923
  303MOL    H6148985   1.238   4.174   2.265  1.3547 -3.7340 -1.0306
  303MOL    H6248986   1.354   4.308   2.225  2.7652  0.2439 -3.7836
  303MOL    H6348987   1.288   4.263   1.969 -2.8916  0.4276 -1.9136
  303MOL    H6448988   1.068   4.229   1.959 -3.3067 -0.2744  0.8380
  303MOL    H6548989   1.139   4.104   2.026 -4.2560 -2.4340  3.5738
  303MOL    C6648990   1.188   4.423   2.060  0.1711 -0.6998 -0.4092
  303MOL    C6748991   1.302   4.530   2.061  0.2846 -0.0967  0.0705
  303MOL    N6848992   1.334   4.574   1.927 -0.5761  0.1450 -0.1976
  303MOL    H6948993   1.126   4.451   1.975  0.6479  1.3170 -0.1164
  303MOL    H7048994   1.127   4.442   2.149  1.9302  0.2440  0.6316
  303MOL    H7148995   1.389   4.483   2.107 -0.5211 -2.2537 -0.5792
  303MOL    H7248996   1.355   4.492   1.873 -1.6066  0.4230 -1.0360
  303MOL    H7348997   1.419   4.626   1.940 -1.5742  1.0685  3.3645
  303MOL    C7448998   1.257   4.657   2.129  0.2800 -0.2048  0.7022
  303MOL    C7548999   1.250   4.646   2.281  0.3987 -0.0948 -0.0164
  303MOL    N7649000   1.308   4.767   2.341 -0.4024  0.5544  0.0857
  303MOL    H7749001   1.329   4.736   2.108  0.2865  0.1841  2.1520
  303MOL    H7849002   1.163   4.688   2.082 -0.0713  0.9912  2.1329
  303MOL    H7949003   1.307   4.565   2.326  0.5199  1.2537  2.3526
  303MOL    H8049004   1.298   4.769   2.442  1.6632 -2.2235  0.4058
  303MOL    H8149005   1.252   4.847   2.315 -1.1575  0.8720  2.4822
  303MOL    C8249006   1.106   4.634   2.329  0.6498 -0.0383 -0.0002
  303MOL    C8349007   1.105   4.570   2.469  0.0502 -0.1257  0.3337
  303MOL    N8449008   0.975   4.604   2.527  0.1448 -0.5395 -0.3797
  303MOL    H8549009   1.044   4.724   2.326 -1.0780 -1.1849  0.3065
  303MOL    H8649010   1.047   4.569   2.264  1.7322 -1.3010  0.2850
  303MOL    H8749011   1.182   4.606   2.537 -0.5015 -0.6637  1.2477
  303MOL    H8849012   0.994   4.581   2.623  1.4501  1.4996 -0.1081
  303MOL    H8949013   0.972   4.703   2.547 -2.8226 -0.9514  1.4723
  303MOL    C9049014   1.106   4.413   2.449  0.6373  0.7368 -0.2953
  303MOL    C9149015   1.116   4.328   2.574  0.0229  0.7266 -0.2802
  303MOL    N9249016   1.089   4.192   2.547  0.2072 -0.4276  0.1097
  303MOL    H9349017   1.015   4.386   2.395  0.3870  0.8076  0.0903
  303MOL    H9449018   1.192   4.388   2.387  0.2336  0.6236 -0.8120
  303MOL    H9549019   1.042   4.365   2.646 -0.8494  0.5763 -1.0913
  303MOL    H9649020   1.092   4.150   2.639  1.2885 -1.1801 -0.2656
  303MOL    H9749021   0.997   4.190   2.506  0.5123  0.0721 -0.6168
  303MOL    C9849022   1.251   4.339   2.638 -0.5619 -0.1480 -0.0995
  303MOL    C9949023   1.241   4.395   2.779  0.2844  0.1605  0.2234
  303MOL   N10049024   1.181   4.297   2.869  0.3075  0.4405  0.0257
  303MOL   H10149025   1.306   4.245   2.628  0.1293  0.2212  0.1908
  303MOL   H10249026   1.317   4.399   2.575  0.2452 -1.6004 -0.6641
  303MOL   H10349027   1.185   4.488   2.769  1.5304  0.8010 -1.0041
  303MOL   H10449028   1.091   4.284   2.826 -0.1575 -1.4861  1.5449
  303MOL   H10549029   1.168   4.350   2.954  2.5579 -0.3728  0.9450
  303MOL   C10649030   1.382   4.424   2.842  0.2994 -0.2631 -0.2334
  303MOL   C10749031   1.382   4.525   2.961  0.1927  0.3112 -0.4895
  303MOL   N10849032   1.286   4.480   3.059 -0.5027  0.5639 -0.0976
  303MOL   H10949033   1.431   4.329   2.863  2.0599  0.7419  0.2993
  303MOL   H11049034   1.446   4.469   2.766  1.5497  0.3783  1.1809
  303MOL   H11149035   1.378   4.628   2.926  2.3816  0.4759 -0.2622
  303MOL   H11249036   1.305   4.527   3.146  1.9392 -0.9057  0.1872
  303MOL   H11349037   1.298   4.382   3.083  0.6396  0.3720 -1.3883
  303MOL   C11449038   1.516   4.516   3.037  0.4758 -0.5353 -0.2011
  303MOL   C11549039   1.628   4.583   2.967 -0.6646  1.0224 -0.6186
  303MOL   N11649040   1.720   4.657   3.058 -0.0499 -0.0787  0.2369
  303MOL   H11749041   1.499   4.551   3.139  0.1631  0.1889 -0.5048
  303MOL   H11849042   1.545   4.415   3.067  0.2099 -0.0490  1.7642
  303MOL   H11949043   1.592   4.666   2.905  1.1899  1.0610 -1.6897
  303MOL   H12049044   1.816   4.627   3.053 -0.2590 -0.8922  0.9714
  303MOL   H12149045   1.692   4.659   3.155  2.9326  1.3664  1.1102
  303MOL   C12249046   1.711   4.492   2.872  0.4454  0.1022 -0.6574
  303MOL   C12349047   1.775   4.570   2.759 -0.7689 -0.0718  0.0695
  303MOL   N12449048   1.899   4.623   2.805  0.1898 -0.5190 -0.4006
  303MOL   H12549049   1.783   4.435   2.930 -1.0835 -2.1788 -0.9317
  303MOL   H12649050   1.649   4.409   2.836 -1.9931  1.1543  0.9501
  303MOL   H12749051   1.710   4.653   2.734 -1.1375 -1.2390 -3.0550
  303MOL   H12849052   1.883   4.673   2.892  0.8078  1.1491 -1.2216
  303MOL   H12949053   1.954   4.548   2.843 -0.3346 -0.4649  0.4929
  303MOL   C13049054   1.812   4.493   2.628  0.4790 -0.3307 -0.7749
  303MOL   C13149055   1.698   4.457   2.533 -0.2371 -0.7253  0.3171
  303MOL   N13249056   1.662   4.575   2.454 -0.2374  0.4310  0.1803
  303MOL   H13349057   1.883   4.546   2.565  0.6679 -1.2225 -1.3238
  303MOL   H13449058   1.855   4.397   2.657  1.4888  0.7333  1.3570
  303MOL   H13549059   1.611   4.431   2.593  0.1143 -3.5867 -0.3695
  303MOL   H13649060   1.746   4.591   2.402 -0.0699 -2.6834 -0.6086
  303MOL   H13749061   1.657   4.655   2.515  0.1107  0.6023 -0.0157
  303MOL   C13849062   1.714   4.341   2.430  0.2106 -0.3115 -0.5920
  303MOL   C13949063   1.705   4.205   2.498 -0.3179 -0.0976  0.0342
  303MOL   N14049064   1.560   4.178   2.518 -0.3097 -0.5844 -1.1425
  303MOL   H14149065   1.644   4.353   2.347 -0.4920 -3.0256 -0.4382
  303MOL   H14249066   1.811   4.340   2.381  0.2752  0.2135 -0.4779
  303MOL   H14349067   1.750   4.210   2.597 -0.1651  1.6260 -0.1157
  303MOL   H14449068   1.532   4.123   2.598 -1.1526  1.1010 -0.2594
  303MOL   H14549069   1.522   4.266   2.549  1.7455  0.2874 -0.9912
  303MOL   C14649070   1.772   4.086   2.429 -0.1953 -0.0004 -0.0711
  303MOL   C14749071   1.926   4.082   2.437  0.1792  0.4729 -0.1199
  303MOL   N14849072   1.972   4.056   2.572 -0.5891 -0.7051  0.4176
  303MOL   H14949073   1.726   3.995   2.467  0.3172  0.5207  1.8073
  303MOL   H15049074   1.743   4.089   2.324 -1.2794  1.4671  0.2675
  303MOL   H15149075   1.969   4.179   2.410 -0.9008  1.8468  2.7914
  303MOL   H15249076   1.908   4.084   2.644  0.1155  2.4475 -0.0794
  303MOL   H15349077   1.964   3.956   2.586  0.6752 -1.1274 -1.5695
  303MOL   C15449078   1.990   3.978   2.344  0.1299 -0.1137  1.3083
  303MOL   C15549079   1.977   3.830   2.363  0.9931  0.4930 -0.2323
  303MOL   N15649080   2.021   3.758   2.245 -0.2459  0.2754 -0.0969
  303MOL   H15749081   1.951   3.997   2.244  1.9818 -2.1487  0.1573
  303MOL   H15849082   2.098   3.991   2.336  0.0752 -0.6727 -0.4125
  303MOL   H15949083   1.872   3.811   2.387  1.0729  2.8366  2.2459
  303MOL   H16049084   1.993   3.662   2.261 -0.1815  0.2905  0.1160
  303MOL   H16149085   2.121   3.756   2.238 -0.3210 -0.7081 -1.0172
  303MOL   H16249086   2.025   3.809   2.459 -0.5851  0.1752  0.5084
  304MOL     C149087   5.641   1.289   1.238 -0.0157 -0.5856 -0.3488
  304MOL     C249088   5.776   1.220   1.262 -0.2908  0.8852 -0.2271
  304MOL     N349089   5.818   1.237   1.402 -0.0103  0.3819 -0.6564
  304MOL     H449090   5.597   1.267   1.141 -0.0622  0.7913 -0.6480
  304MOL     H549091   5.639   1.396   1.258 -0.0386 -0.7040  0.2698
  304MOL     H649092   5.855   1.263   1.201  0.4508 -1.5074 -1.0168
  304MOL     H749093   5.908   1.200   1.429  0.3354 -1.7789 -4.4617
  304MOL     H849094   5.813   1.336   1.422  0.1241  0.4680 -1.0543
  304MOL     H949095   5.564   1.248   1.303  0.1864 -0.8879 -0.2982
  304MOL    C1049096   5.766   1.065   1.233  0.1871 -0.0514  0.7981
  304MOL    C1149097   5.753   1.020   1.079 -0.1305  0.4635 -0.3530
  304MOL    N1249098   5.887   1.036   1.021 -0.2643 -0.2641 -0.6280
  304MOL    H1349099   5.848   1.013   1.283 -0.8345 -1.1163  1.3739
  304MOL    H1449100   5.694   1.016   1.299  2.7651 -2.5368  1.8958
  304MOL    H1549101   5.691   1.087   1.020 -1.2901 -0.8670 -0.6575
  304MOL    H1649102   5.947   0.962   1.054  0.1986  0.3446 -0.0907
  304MOL    H1749103   5.922   1.122   1.061 -1.7270 -0.2264  0.5924
  304MOL    C1849104   5.716   0.869   1.062 -0.1570  0.9203  0.3274
  304MOL    C1949105   5.566   0.846   1.101 -0.0179 -0.2210  0.0817
  304MOL    N2049106   5.494   0.824   0.976  0.0575  0.0331  0.4636
  304MOL    H2149107   5.732   0.827   0.963 -0.5668  0.2361  0.5466
  304MOL    H2249108   5.776   0.807   1.130 -1.7957  0.4253  1.3468
  304MOL    H2349109   5.530   0.938   1.147  1.7429 -0.0662  1.2004
  304MOL    H2449110   5.535   0.874   0.898 -0.0638  1.3246  1.2020
  304MOL    H2549111   5.488   0.728   0.947  1.1220 -0.4145  1.7142
  304MOL    C2649112   5.537   0.726   1.187 -0.1507 -0.3386 -0.1727
  304MOL    C2749113   5.386   0.700   1.219 -0.2746 -0.1732  0.5057
  304MOL    N2849114   5.376   0.564   1.281  0.7587 -0.1902  0.5440
  304MOL    H2949115   5.577   0.632   1.148 -0.5746 -0.8944  0.6944
  304MOL    H3049116   5.591   0.741   1.280  1.6068  0.0675 -1.2500
  304MOL    H3149117   5.331   0.702   1.125 -2.1819  2.7984  1.6149
  304MOL    H3249118   5.398   0.498   1.208 -0.4718 -0.6105  0.5419
  304MOL    H3349119   5.276   0.556   1.290  0.4081  0.3643 -2.3089
  304MOL    C3449120   5.327   0.812   1.313 -0.6880  0.7121  0.1981
  304MOL    C3549121   5.242   0.911   1.244  0.3099 -0.0108  0.1514
  304MOL    N3649122   5.120   0.852   1.199  0.4698  0.2343 -0.3685
  304MOL    H3749123   5.266   0.758   1.386  0.0594  2.1674  1.9361
  304MOL    H3849124   5.402   0.862   1.375  0.3680 -1.4180  0.6905
  304MOL    H3949125   5.281   0.960   1.154 -0.0231 -0.3196 -0.1637
  304MOL    H4049126   5.061   0.927   1.167 -0.9168  0.4585  2.5433
  304MOL    H4149127   5.151   0.790   1.126 -1.7472 -2.5650  0.9716
  304MOL    C4249128   5.187   1.032   1.333 -0.4098 -0.0916 -0.4248
  304MOL    C4349129   5.295   1.139   1.351 -0.0458  0.4422  0.1870
  304MOL    N4449130   5.310   1.208   1.222 -0.3552  0.0239 -0.8109
  304MOL    H4549131   5.095   1.078   1.297  0.2743  0.6710 -1.2149
  304MOL    H4649132   5.156   1.003   1.433 -0.6608  0.5049 -0.3279
  304MOL    H4749133   5.386   1.085   1.377 -0.5643 -0.5131  0.0366
  304MOL    H4849134   5.365   1.145   1.164  1.1583  1.8507 -1.3979
  304MOL    H4949135   5.380   1.278   1.241 -0.2394 -0.9487  2.6511
  304MOL    C5049136   5.263   1.234   1.467 -0.6400 -0.1211  0.0232
  304MOL    C5149137   5.381   1.306   1.536  0.4966  0.0394 -0.1044
  304MOL    N5249138   5.362   1.447   1.566 -0.9517  0.3295  0.2415
  304MOL    H5349139   5.202   1.312   1.423 -0.2174 -0.3422 -0.9641
  304MOL    H5449140   5.192   1.191   1.538 -0.5926  1.1697  0.8770
  304MOL    H5549141   5.473   1.295   1.479  0.8160  1.1477  0.1833
  304MOL    H5649142   5.429   1.470   1.638 -0.7805  0.8153 -0.0666
  304MOL    H5749143   5.378   1.500   1.481  3.0969 -1.1969 -0.0575
  304MOL    C5849144   5.420   1.237   1.669 -0.1351 -0.2875 -0.4000
  304MOL    C5949145   5.497   1.104   1.653  0.4195  0.2155  0.6436
  304MOL    N6049146   5.633   1.135   1.624  0.4297 -0.2939 -0.1297
  304MOL    H6149147   5.473   1.299   1.742 -1.5852  1.0194 -0.4529
  304MOL    H6249148   5.330   1.220   1.728  1.1561  0.9058  2.0070
  304MOL    H6349149   5.447   1.039   1.580  0.1799  0.3339  0.7056
  304MOL    H6449150   5.659   1.232   1.615  1.0697 -0.4755 -0.2517
  304MOL    H6549151   5.673   1.083   1.548 -0.1753  1.2828 -1.5718
  304MOL    C6649152   5.504   1.028   1.791  0.2601 -0.0599  0.4317
  304MOL    C6749153   5.372   0.965   1.840 -0.0795 -0.3710 -0.6750
  304MOL    N6849154   5.324   0.874   1.738 -0.4184 -0.8012  0.3444
  304MOL    H6949155   5.567   0.939   1.790  1.1720  0.5619  1.7670
  304MOL    H7049156   5.538   1.095   1.869 -0.9285 -1.0698  1.8426
  304MOL    H7149157   5.289   1.035   1.853 -0.7801 -1.0442 -1.4472
  304MOL    H7249158   5.387   0.804   1.702 -1.1163 -1.6425  0.7412
  304MOL    H7349159   5.292   0.923   1.655 -0.6881  2.0426  2.0773
  304MOL    C7449160   5.407   0.898   1.976  0.0123 -0.5495  0.0526
  304MOL    C7549161   5.283   0.889   2.072 -0.1955 -0.3298 -0.0509
  304MOL    N7649162   5.202   0.786   2.017 -0.1240 -0.1575 -0.1343
  304MOL    H7749163   5.456   0.802   1.957 -0.9743 -0.8337 -1.1291
  304MOL    H7849164   5.478   0.963   2.027 -1.2838  2.1216 -1.4317
  304MOL    H7949165   5.238   0.988   2.064 -0.4290 -0.4774 -0.6157
  304MOL    H8049166   5.107   0.815   2.037  0.1876  0.3340  0.6613
  304MOL    H8149167   5.219   0.794   1.918  1.7841 -1.6593  0.0394
  304MOL    C8249168   5.312   0.852   2.221 -0.1700 -1.1767  0.0123
  304MOL    C8349169   5.404   0.946   2.303  0.4371  0.1043  0.4254
  304MOL    N8449170   5.348   1.087   2.307 -0.4076  0.1482 -0.5069
  304MOL    H8549171   5.213   0.851   2.266  0.7978 -2.0961  2.1756
  304MOL    H8649172   5.350   0.750   2.224 -0.2014 -1.2358 -1.4215
  304MOL    H8749173   5.502   0.950   2.257  0.6878 -3.3917  0.5588
  304MOL    H8849174   5.414   1.148   2.353 -0.0719  1.4642 -2.6654
  304MOL    H8949175   5.355   1.124   2.213 -0.1187  1.5730  0.0635
  304MOL    C9049176   5.412   0.897   2.452 -0.5720 -0.6087  0.3658
  304MOL    C9149177   5.512   0.778   2.476  0.5114  0.0787  1.0032
  304MOL    N9249178   5.641   0.841   2.482 -0.2853  0.5789 -0.5583
  304MOL    H9349179   5.428   0.974   2.527  3.3982 -2.8697  1.9884
  304MOL    H9449180   5.315   0.850   2.465  0.4774 -2.6939  0.8224
  304MOL    H9549181   5.509   0.715   2.387 -0.4543  1.1517  0.2511
  304MOL    H9649182   5.669   0.884   2.395 -1.6892  4.1692  0.6633
  304MOL    H9749183   5.706   0.766   2.500 -2.0014 -0.5260  1.2062
  304MOL    C9849184   5.497   0.705   2.606  0.1970  0.3881  0.0507
  304MOL    C9949185   5.572   0.568   2.613 -0.3064  0.4554  0.3200
  304MOL   N10049186   5.669   0.565   2.723  0.0858  0.2988 -0.2363
  304MOL   H10149187   5.525   0.771   2.687  3.2159 -1.0351  0.2577
  304MOL   H10249188   5.391   0.684   2.620  0.5403 -1.1490  0.4833
  304MOL   H10349189   5.627   0.556   2.520 -1.6068 -0.2050 -0.3755
  304MOL   H10449190   5.728   0.487   2.698 -2.3851 -1.9247  0.6271
  304MOL   H10549191   5.731   0.644   2.710  2.0637 -0.7085  2.4629
  304MOL   C10649192   5.494   0.442   2.638  0.6612 -0.1798 -0.0697
  304MOL   C10749193   5.404   0.381   2.526 -0.1292  0.2674 -0.6540
  304MOL   N10849194   5.371   0.242   2.563 -0.3835 -0.2029 -0.1537
  304MOL   H10949195   5.571   0.371   2.668 -0.4548 -1.7221 -0.7901
  304MOL   H11049196   5.427   0.455   2.724 -1.6411  1.1784 -2.0022
  304MOL   H11149197   5.467   0.363   2.439  1.1318  0.6266  0.1712
  304MOL   H11249198   5.380   0.245   2.664  1.2836 -1.9621 -0.2198
  304MOL   H11349199   5.448   0.178   2.545 -0.4413 -0.5143  0.6958
  304MOL   C11449200   5.271   0.462   2.489  0.0727 -0.2423  0.1294
  304MOL   C11549201   5.217   0.419   2.350  0.3360  0.1782  0.3454
  304MOL   N11649202   5.071   0.448   2.338 -0.1347  0.7074 -0.3907
  304MOL   H11749203   5.199   0.460   2.570 -0.5030  1.3262 -0.3254
  304MOL   H11849204   5.294   0.568   2.478  0.4314 -0.1190  1.9096
  304MOL   H11949205   5.234   0.312   2.337  0.4246  0.2813 -0.4036
  304MOL   H12049206   5.025   0.393   2.409 -0.3751  1.4151  0.0087
  304MOL   H12149207   5.039   0.407   2.251 -1.2446 -0.2864  0.4677
  304MOL   C12249208   5.294   0.500   2.231  0.4326 -0.2214 -0.3853
  304MOL   C12349209   5.342   0.409   2.115  0.2249 -0.1295  0.2957
  304MOL   N12449210   5.369   0.509   2.011 -0.2212 -0.2800  0.0586
  304MOL   H12549211   5.227   0.579   2.198  1.0182 -1.7549 -5.7895
  304MOL   H12649212   5.380   0.547   2.279  0.8321 -1.0810 -0.2549
  304MOL   H12749213   5.254   0.349   2.095  1.5680 -1.3453 -2.1435
  304MOL   H12849214   5.311   0.592   2.018  2.0153  1.4135 -0.9306
  304MOL   H12949215   5.339   0.483   1.918  0.6038  0.2666 -0.3713
  304MOL   C13049216   5.461   0.322   2.153 -0.0173 -0.5566  0.0187
  304MOL   C13149217   5.521   0.254   2.024 -0.2903  0.1277 -0.1471
  304MOL   N13249218   5.657   0.205   2.068 -0.2953 -0.3026  0.1757
  304MOL   H13349219   5.537   0.371   2.214 -0.4607  0.4663 -0.2421
  304MOL   H13449220   5.428   0.247   2.225 -0.0933 -0.3386  0.2087
  304MOL   H13549221   5.539   0.318   1.938  1.0037 -1.1380 -0.8410
  304MOL   H13649222   5.646   0.142   2.147 -1.9733 -0.1821  0.0521
  304MOL   H13749223   5.718   0.273   2.111  1.0604 -1.7061  0.5302
  304MOL   C13849224   5.438   0.138   1.973 -0.0841  0.2726 -0.4833
  304MOL   C13949225   5.463   0.097   1.822 -0.0136  0.6704 -0.2894
  304MOL   N14049226   5.584   0.021   1.825 -0.1842  0.5175 -0.0699
  304MOL   H14149227   5.444   0.050   2.038  0.9833  0.4536 -0.3372
  304MOL   H14249228   5.334   0.167   1.990  0.0173  1.1990 -1.4052
  304MOL   H14349229   5.493   0.177   1.755 -0.0719  0.1496 -0.9441
  304MOL   H14449230   5.568   7.217   1.885  0.6915  0.5705  0.2441
  304MOL   H14549231   5.650   0.075   1.880  0.2919  0.5388 -0.6589
  304MOL   C14649232   5.345   0.022   1.754 -0.3749  0.0293 -0.3634
  304MOL   C14749233   5.244   0.110   1.684  0.6030 -0.1514  0.0525
  304MOL   N14849234   5.118   0.050   1.674  0.3137 -0.1698  0.1666
  304MOL   H14949235   5.375   7.220   1.684 -0.3033  0.5102 -0.8685
  304MOL   H15049236   5.296   7.243   1.835 -0.5910 -0.5951 -0.9133
  304MOL   H15149237   5.272   0.128   1.580 -2.5107  0.4703 -0.7325
  304MOL   H15249238   5.049   0.103   1.623  0.3146  0.0872  0.4338
  304MOL   H15349239   5.125   7.231   1.637 -1.4407 -0.5715  0.8348
  304MOL   C15449240   5.214   0.258   1.741 -0.1819  0.2551  0.3341
  304MOL   C15549241   5.297   0.369   1.689  0.0684  0.4502 -0.2694
  304MOL   N15649242   5.244   0.500   1.731  0.5877 -0.0314 -0.1154
  304MOL   H15749243   5.114   0.292   1.715 -1.0134 -3.6477 -1.9585
  304MOL   H15849244   5.209   0.259   1.849 -1.0664  1.5083  0.2821
  304MOL   H15949245   5.315   0.364   1.582  0.4527 -0.3887 -0.1638
  304MOL   H16049246   5.303   0.580   1.712  1.5108 -1.0814 -1.8628
  304MOL   H16149247   5.161   0.513   1.674 -0.5562 -1.2133  1.2309
  304MOL   H16249248   5.398   0.364   1.730 -0.3755 -2.4258  0.5606
  305MOL     C149249   5.754   7.116   2.825  0.1090 -0.6934 -0.2737
  305MOL     C249250   5.687   7.121   2.958  0.2170 -0.2513  0.0313
  305MOL     N349251   5.782   7.174   3.057  0.3508  0.1903 -0.0586
  305MOL     H449252   5.758   7.221   2.795  0.9249 -1.1337 -1.7581
  305MOL     H549253   5.691   7.073   2.746 -0.2543  0.1913 -0.4717
  305MOL     H649254   5.667   7.016   2.982  0.9844 -0.5847 -0.7343
  305MOL     H749255   5.874   7.149   3.024  0.1007 -0.6583 -0.1163
  305MOL     H849256   5.780   7.114   3.138  1.6418  1.4030  0.8862
  305MOL     H949257   5.844   7.055   2.829 -1.3157 -2.7386  1.9730
  305MOL    C1049258   5.546   7.189   2.967 -0.3980 -0.4115 -0.0613
  305MOL    C1149259   5.431   7.096   2.982  0.0589 -0.1262 -0.3391
  305MOL    N1249260   5.305   7.174   3.019  0.1023 -0.3488 -0.4860
  305MOL    H1349261   5.547   7.235   3.066  1.2776  2.5638 -1.3816
  305MOL    H1449262   5.532   7.275   2.901  1.0952 -0.3558 -0.3418
  305MOL    H1549263   5.447   7.031   3.067 -0.4868 -0.0136 -0.1453
  305MOL    H1649264   5.219   7.131   2.986 -0.8087  0.4607  0.7914
  305MOL    H1749265   5.288   7.166   3.118  0.5586  2.9209 -0.0917
  305MOL    C1849266   5.399   7.017   2.851  0.0068  0.0039 -0.4073
  305MOL    C1949267   5.308   6.896   2.868 -0.2736  0.0719 -0.4249
  305MOL    N2049268   5.264   6.859   2.736  0.0169 -0.6187  0.0397
  305MOL    H2149269   5.362   7.083   2.773 -2.9185  0.0992  0.9848
  305MOL    H2249270   5.498   6.992   2.813  0.6805  0.1931  1.1993
  305MOL    H2349271   5.223   6.938   2.921  1.0978  0.3093  1.6546
  305MOL    H2449272   5.189   6.922   2.710  1.7532  1.2961 -0.5473
  305MOL    H2549273   5.225   6.767   2.741 -0.6418 -0.2951  0.9469
  305MOL    C2649274   5.381   6.779   2.937  0.4346 -0.8616 -0.2176
  305MOL    C2749275   5.295   6.659   2.957 -0.5471 -0.2130  0.5129
  305MOL    N2849276   5.379   6.541   3.002 -0.2037  0.1658  0.0824
  305MOL    H2949277   5.475   6.747   2.893  1.5645  0.5485  1.0878
  305MOL    H3049278   5.416   6.811   3.035 -1.4855  1.6364 -0.2857
  305MOL    H3149279   5.248   6.615   2.869 -0.1555  2.3694 -1.0238
  305MOL    H3249280   5.326   6.460   3.030  2.0159 -1.1913  0.4345
  305MOL    H3349281   5.416   6.571   3.091 -0.1641 -0.5070  0.2900
  305MOL    C3449282   5.180   6.682   3.061  0.4491 -0.1235 -0.2386
  305MOL    C3549283   5.051   6.596   3.037 -0.3232  0.0160 -0.9311
  305MOL    N3649284   5.046   6.495   3.139 -0.0583  0.5865  0.2720
  305MOL    H3749285   5.216   6.664   3.163 -0.7996  2.1833  0.6589
  305MOL    H3849286   5.156   6.789   3.061 -1.6090 -0.5662 -0.5887
  305MOL    H3949287   5.065   6.531   2.951 -1.5857 -1.8256  0.2231
  305MOL    H4049288   5.102   6.417   3.109  1.7566  1.2660  1.7944
  305MOL    H4149289   4.950   6.469   3.157 -0.2999  1.5040  0.3413
  305MOL    C4249290   4.925   6.684   3.027  0.7565 -0.5058  0.0858
  305MOL    C4349291   4.813   6.628   2.934  0.0163  0.3630 -0.0910
  305MOL    N4449292   4.694   6.709   2.952 -0.6350  0.5983  0.1661
  305MOL    H4549293   4.887   6.705   3.127 -0.8496 -0.8182 -0.4435
  305MOL    H4649294   4.954   6.778   2.981 -1.7190  0.4707  0.4628
  305MOL    H4749295   4.799   6.525   2.966  0.1295  0.5832  0.6620
  305MOL    H4849296   4.633   6.699   2.872  0.0013  0.2147 -0.2765
  305MOL    H4949297   4.639   6.690   3.034  0.4634  1.0525  1.0236
  305MOL    C5049298   4.856   6.629   2.783  0.5139 -0.3706 -0.2281
  305MOL    C5149299   4.800   6.509   2.707 -0.2691 -0.0739  0.5246
  305MOL    N5249300   4.808   6.542   2.566 -0.5274 -0.0963  0.0761
  305MOL    H5349301   4.828   6.723   2.735  1.9883  0.2116  0.0134
  305MOL    H5449302   4.964   6.639   2.773  0.7603 -2.2830  0.5084
  305MOL    H5549303   4.692   6.505   2.721 -0.4869  3.1638  0.1688
  305MOL    H5649304   4.756   6.628   2.562  1.8146  1.4056  0.8889
  305MOL    H5749305   4.905   6.566   2.552 -0.0541 -0.3039  2.7827
  305MOL    C5849306   4.879   6.381   2.739 -0.1759  0.3011 -0.0318
  305MOL    C5949307   4.790   6.256   2.701 -0.4488 -0.0214  0.4103
  305MOL    N6049308   4.869   6.142   2.656  0.1911 -0.0856  0.2950
  305MOL    H6149309   4.976   6.387   2.688 -0.7401  2.8885 -0.8634
  305MOL    H6249310   4.906   6.384   2.845 -1.3472  1.3789  0.2396
  305MOL    H6349311   4.722   6.283   2.620  1.9187  2.3177 -0.8798
  305MOL    H6449312   4.814   6.068   2.616  1.6360 -0.4669 -1.0308
  305MOL    H6549313   4.933   6.177   2.586  0.3201 -2.4922 -0.8263
  305MOL    C6649314   4.717   6.196   2.823 -0.6752  0.6021 -0.4956
  305MOL    C6749315   4.589   6.264   2.857  0.5401  0.3694 -0.1863
  305MOL    N6849316   4.498   6.258   2.750  0.0604  0.6387  0.1029
  305MOL    H6949317   4.692   6.090   2.814 -0.9472  0.5941  0.3767
  305MOL    H7049318   4.781   6.191   2.911 -0.5415  0.7282 -0.5851
  305MOL    H7149319   4.621   6.367   2.871  0.7691  0.0441  1.6889
  305MOL    H7249320   4.550   6.289   2.669  1.2331 -0.6946  0.3199
  305MOL    H7349321   4.430   6.333   2.752  1.5278  2.0455 -1.4479
  305MOL    C7449322   4.525   6.217   2.987 -0.2120  0.3886 -0.4182
  305MOL    C7549323   4.412   6.311   3.043  0.1674  0.3271  0.5731
  305MOL    N7649324   4.381   6.258   3.178 -0.3386 -0.5086 -0.5426
  305MOL    H7749325   4.470   6.126   2.965 -0.8373 -0.0214  2.6204
  305MOL    H7849326   4.599   6.194   3.063 -1.7014 -0.6872  0.7365
  305MOL    H7949327   4.319   6.307   2.986 -0.5422 -0.0279  1.7438
  305MOL    H8049328   4.384   6.157   3.173 -1.5007 -0.4644 -3.4400
  305MOL    H8149329   4.463   6.288   3.230 -1.8899  4.1652 -0.5174
  305MOL    C8249330   4.454   6.466   3.043 -0.5484  0.7834 -0.2497
  305MOL    C8349331   4.351   6.562   3.121  0.2859 -0.7004 -0.1368
  305MOL    N8449332   4.407   6.690   3.167  0.1321 -0.1641 -0.3077
  305MOL    H8549333   4.550   6.461   3.095 -0.5768  1.2980 -0.1410
  305MOL    H8649334   4.476   6.496   2.941  1.8774 -1.0440 -0.3256
  305MOL    H8749335   4.323   6.512   3.214  0.6882 -0.9621 -0.1548
  305MOL    H8849336   4.333   6.746   3.208 -0.2086 -1.6761  1.2123
  305MOL    H8949337   4.472   6.677   3.244 -0.4618  3.2525  0.8243
  305MOL    C9049338   4.228   6.576   3.032  0.0254 -0.3784 -0.4601
  305MOL    C9149339   4.112   6.665   3.087 -0.6000 -0.3411 -0.1440
  305MOL    N9249340   4.010   6.675   2.990 -0.1163 -1.2174  0.0502
  305MOL    H9349341   4.258   6.627   2.940  0.7980  0.3837  0.2085
  305MOL    H9449342   4.194   6.478   2.996  0.4931 -0.8185  0.2842
  305MOL    H9549343   4.153   6.766   3.092 -0.4868 -0.4817  3.3878
  305MOL    H9649344   3.931   6.723   3.033  0.9775  0.0579  0.6812
  305MOL    H9749345   4.038   6.743   2.920  1.2327 -2.5501 -0.7066
  305MOL    C9849346   4.058   6.622   3.220  0.1650 -0.2416  0.2187
  305MOL    C9949347   3.971   6.722   3.304 -0.0975 -0.2138 -0.7559
  305MOL   N10049348   3.844   6.757   3.246 -0.8248  0.3819  0.2619
  305MOL   H10149349   4.016   6.522   3.209  1.2225 -0.5912 -0.6761
  305MOL   H10249350   4.148   6.598   3.278  1.1905  1.1470 -0.7751
  305MOL   H10349351   4.019   6.819   3.316 -0.7143 -0.1214  1.2114
  305MOL   H10449352   3.789   6.673   3.257  0.8602 -0.4185  3.0418
  305MOL   H10549353   3.803   6.824   3.310 -1.0126  0.8027 -0.2983
  305MOL   C10649354   3.957   6.671   3.446 -0.2452  0.3801 -0.1270
  305MOL   C10749355   3.905   6.768   3.551  0.3602  1.0471 -0.3526
  305MOL   N10849356   3.876   6.695   3.675 -0.2433 -0.7606  0.2087
  305MOL   H10949357   3.889   6.586   3.442  0.8093 -0.6968  2.9786
  305MOL   H11049358   4.046   6.627   3.490 -0.2257 -1.1305 -1.6472
  305MOL   H11149359   3.808   6.803   3.518 -0.4019 -0.6158  0.0378
  305MOL   H11249360   3.808   6.744   3.731 -1.1725 -1.3525 -0.3772
  305MOL   H11349361   3.831   6.606   3.661 -0.6685 -0.3163 -1.3455
  305MOL   C11449362   4.012   6.875   3.587 -0.1779 -0.6649 -0.8089
  305MOL   C11549363   3.961   7.007   3.646  0.9136  0.0546 -0.1664
  305MOL   N11649364   4.063   7.059   3.735  0.5185  0.5292 -0.1541
  305MOL   H11749365   4.075   6.822   3.658 -2.5413 -0.8630  1.1983
  305MOL   H11849366   4.072   6.887   3.497  0.5341  1.5962 -0.0678
  305MOL   H11949367   3.871   6.984   3.702  1.7506 -0.1819  1.1143
  305MOL   H12049368   4.122   6.979   3.758 -1.7663 -0.4462  2.5681
  305MOL   H12149369   4.020   7.090   3.820  2.6449  4.1097 -0.2736
  305MOL   C12249370   3.925   7.124   3.549  0.2234 -1.1006  0.4786
  305MOL   C12349371   3.811   7.099   3.456  0.0812 -0.0032  0.5962
  305MOL   N12449372   3.685   7.107   3.537  0.3745  0.3583 -0.2573
  305MOL   H12549373   3.912   7.217   3.605 -0.8951 -1.8766  1.5223
  305MOL   H12649374   4.012   7.142   3.485 -1.1700  2.7659 -0.4933
  305MOL   H12749375   3.817   6.999   3.413  0.8635  1.0142 -1.7288
  305MOL   H12849376   3.615   7.039   3.510  1.5528 -1.2925  0.7202
  305MOL   H12949377   3.695   7.074   3.632 -0.8548  1.5986  0.3347
  305MOL   C13049378   3.812   7.207   3.344 -0.3831  0.0451 -0.1966
  305MOL   C13149379   3.688   7.202   3.255  0.0342 -0.5231 -0.3190
  305MOL   N13249380   3.691   0.058   3.185  0.0377 -0.4099  0.3551
  305MOL   H13349381   3.816   0.026   3.397  0.2020 -0.4243  0.6071
  305MOL   H13449382   3.906   7.197   3.290 -0.1683 -1.4675  0.4361
  305MOL   H13549383   3.603   7.181   3.318  0.1362 -1.5110 -0.4974
  305MOL   H13649384   3.719   0.135   3.244  0.7578 -1.0090  0.7924
  305MOL   H13749385   3.604   0.084   3.140 -0.9712  0.2976  2.6016
  305MOL   C13849386   3.678   7.086   3.158 -0.2858 -0.2661 -0.1383
  305MOL   C13949387   3.538   7.079   3.094 -0.2609 -0.1108  0.2631
  305MOL   N14049388   3.547   6.948   3.034 -0.1690 -0.2833  0.6261
  305MOL   H14149389   3.755   7.098   3.081  1.6632  1.0677  1.9685
  305MOL   H14249390   3.689   6.997   3.220  0.8043 -0.5574 -0.7207
  305MOL   H14349391   3.523   7.148   3.010  0.4182  1.3471  1.3213
  305MOL   H14449392   3.555   6.874   3.103 -0.6185 -0.6853  0.2509
  305MOL   H14549393   3.628   6.949   2.974  1.1707 -0.0922  2.4047
  305MOL   C14649394   3.413   7.100   3.185 -0.3206 -0.8856 -0.0968
  305MOL   C14749395   3.279   7.066   3.136  0.6357 -0.4315  0.8429
  305MOL   N14849396   3.181   7.103   3.235 -0.0736  0.0113  0.6062
  305MOL   H14949397   3.431   7.048   3.279 -0.6421  1.4241  1.2782
  305MOL   H15049398   3.419   7.205   3.211  1.4409 -0.8091 -0.7208
  305MOL   H15149399   3.272   6.960   3.111  0.1608  0.4906 -3.3130
  305MOL   H15249400   3.130   7.187   3.213  0.8073  1.1131  2.5932
  305MOL   H15349401   3.111   7.030   3.235 -1.9142  1.6866  1.9920
  305MOL   C15449402   3.236   7.137   3.000 -0.0981 -0.4714  0.2042
  305MOL   C15549403   3.272   7.044   2.884  0.2150 -0.0486 -0.6296
  305MOL   N15649404   3.253   7.108   2.759  0.2163 -0.3413  0.5415
  305MOL   H15749405   3.129   7.151   3.007  0.3465  2.1018  2.8045
  305MOL   H15849406   3.284   7.232   2.981 -1.1918  0.0710  0.1324
  305MOL   H15949407   3.224   6.946   2.884  1.0149 -0.4448 -0.2110
  305MOL   H16049408   3.327   7.176   2.748  0.1548 -0.0496  1.7630
  305MOL   H16149409   3.268   7.046   2.680  1.6159 -0.4960  0.9085
  305MOL   H16249410   3.373   7.003   2.888 -0.5706 -1.8648  2.5645
  306MOL     C149411   0.636   4.990   6.667  0.6775 -0.5707  0.7094
  306MOL     C249412   0.728   5.033   6.553  0.4654  0.9563  0.1607
  306MOL     N349413   0.837   4.944   6.559  0.3828  0.3165 -0.6503
  306MOL     H449414   0.686   4.978   6.763 -0.3272  3.5266  1.8414
  306MOL     H549415   0.592   4.896   6.632  0.9836 -0.5195  0.1869
  306MOL     H649416   0.766   5.135   6.563  0.8277  1.0873 -2.2496
  306MOL     H749417   0.903   4.997   6.613 -0.9692  3.4131 -1.9423
  306MOL     H849418   0.879   4.944   6.467  0.0805 -3.9092 -0.8772
  306MOL     H949419   0.554   5.060   6.686 -0.2058 -1.8961  1.9661
  306MOL    C1049420   0.665   5.028   6.410  0.3756 -0.3890 -0.8386
  306MOL    C1149421   0.590   5.151   6.363 -0.2115 -0.3000 -0.9860
  306MOL    N1249422   0.681   5.270   6.351 -0.3384  0.8851  0.2790
  306MOL    H1349423   0.747   5.012   6.339  2.1401 -0.3432  1.1371
  306MOL    H1449424   0.607   4.936   6.406  3.0352 -2.1611  0.0025
  306MOL    H1549425   0.525   5.178   6.447  2.5417  1.9487  0.5056
  306MOL    H1649426   0.766   5.243   6.399 -2.1801 -1.5010  2.3516
  306MOL    H1749427   0.656   5.357   6.395 -1.1108 -0.2419  2.1384
  306MOL    C1849428   0.525   5.120   6.224  0.4258 -0.0060  0.2577
  306MOL    C1949429   0.426   5.221   6.165 -0.4480  0.2142  0.7796
  306MOL    N2049430   0.375   5.171   6.033 -0.4554 -0.3931 -0.2044
  306MOL    H2149431   0.616   5.114   6.164  0.5087 -1.0080  0.4849
  306MOL    H2249432   0.493   5.017   6.215 -0.7195  0.4747 -1.2262
  306MOL    H2349433   0.480   5.313   6.144  0.5920 -0.6868 -0.5361
  306MOL    H2449434   0.454   5.173   5.970 -0.9070  3.4467 -0.7852
  306MOL    H2549435   0.362   5.072   6.050  2.2433 -0.6655  0.5565
  306MOL    C2649436   0.305   5.241   6.260  0.5937 -0.3232 -0.1823
  306MOL    C2749437   0.210   5.356   6.219  0.2279  0.4633 -0.0426
  306MOL    N2849438   0.103   5.290   6.141  0.2571 -0.1903  0.1898
  306MOL    H2949439   0.247   5.160   6.305  0.0990 -0.0160 -0.2676
  306MOL    H3049440   0.351   5.278   6.352  0.3312 -0.4395 -0.0018
  306MOL    H3149441   0.262   5.435   6.165 -0.8297  1.2082  0.0240
  306MOL    H3249442   0.104   5.202   6.191 -0.2567 -1.4793 -2.0038
  306MOL    H3349443   0.146   5.276   6.051  2.4099 -1.3790  1.3350
  306MOL    C3449444   0.137   5.434   6.338 -0.4483  0.2576 -0.3644
  306MOL    C3549445   0.226   5.547   6.402  0.4104  0.1406 -0.4697
  306MOL    N3649446   0.153   5.678   6.389  0.1276  0.4979  0.9286
  306MOL    H3749447   0.042   5.478   6.310 -1.4979 -2.1589 -0.7426
  306MOL    H3849448   0.101   5.365   6.415 -0.7331  1.9330  1.0407
  306MOL    H3949449   0.319   5.545   6.345  0.2756 -0.6953 -0.6634
  306MOL    H4049450   0.187   5.745   6.457 -0.4854  0.3129  1.4176
  306MOL    H4149451   0.055   5.666   6.410 -0.4704 -0.7467 -2.3038
  306MOL    C4249452   0.256   5.525   6.556  0.2616  0.4798  0.0374
  306MOL    C4349453   0.399   5.584   6.597  0.1516 -0.1158 -0.5334
  306MOL    N4449454   0.405   5.596   6.743 -0.8012 -0.0652  0.0175
  306MOL    H4549455   0.175   5.560   6.619  0.9796  0.3377  1.0480
  306MOL    H4649456   0.254   5.417   6.574  0.3259  0.3774 -0.5558
  306MOL    H4749457   0.399   5.681   6.547 -4.5502  0.3124  0.1576
  306MOL    H4849458   0.489   5.646   6.769 -0.9650  0.2748 -0.1115
  306MOL    H4949459   0.332   5.656   6.779 -0.6434 -0.2785  0.7131
  306MOL    C5049460   0.525   5.512   6.539  0.0469 -0.2434 -0.0892
  306MOL    C5149461   0.646   5.613   6.516 -0.4582  0.2708  0.0813
  306MOL    N5249462   0.773   5.531   6.495  0.3685 -0.5131  0.1515
  306MOL    H5349463   0.545   5.420   6.595 -0.0727 -0.6509 -0.7026
  306MOL    H5449464   0.511   5.466   6.441 -0.7313  1.1813 -0.6452
  306MOL    H5549465   0.657   5.664   6.612 -2.3548 -1.6029  1.3282
  306MOL    H5649466   0.832   5.532   6.577  0.4857 -0.3815  0.0645
  306MOL    H5749467   0.839   5.565   6.427  1.1453 -1.4614  0.4173
  306MOL    C5849468   0.618   5.707   6.389 -0.1154 -0.3487 -0.3110
  306MOL    C5949469   0.693   5.843   6.405  0.3064 -1.0703  0.9673
  306MOL    N6049470   0.639   5.927   6.298  0.3066 -0.4631  0.0960
  306MOL    H6149471   0.643   5.656   6.295  0.8077  0.3837 -0.4691
  306MOL    H6249472   0.512   5.728   6.381 -0.1914  0.4104  2.2923
  306MOL    H6349473   0.797   5.820   6.384  0.1488 -0.8742 -0.0937
  306MOL    H6449474   0.694   6.010   6.284 -2.1264  1.2860  0.5178
  306MOL    H6549475   0.664   5.872   6.217  0.2877 -2.4003  1.3790
  306MOL    C6649476   0.677   5.910   6.536  0.0918  0.1432 -0.9043
  306MOL    C6749477   0.727   6.054   6.550 -0.4840  0.4302  0.4950
  306MOL    N6849478   0.707   6.109   6.687  0.2721 -0.3313 -0.1011
  306MOL    H6949479   0.578   5.897   6.580  0.8696  0.2613  0.9180
  306MOL    H7049480   0.736   5.854   6.609  0.4197 -1.3482 -2.2770
  306MOL    H7149481   0.669   6.119   6.484  1.1742  0.2253 -1.2100
  306MOL    H7249482   0.729   6.032   6.749 -1.7593  0.7423  2.0404
  306MOL    H7349483   0.607   6.114   6.697  0.4689 -1.0914  2.9377
  306MOL    C7449484   0.886   6.057   6.529 -0.0085 -0.3086 -0.4925
  306MOL    C7549485   0.923   6.181   6.444 -0.0666 -0.1206  0.5300
  306MOL    N7649486   1.068   6.184   6.427 -0.1281  0.1169  0.7570
  306MOL    H7749487   0.938   6.054   6.625  0.4628 -1.2249 -0.7668
  306MOL    H7849488   0.916   5.965   6.479 -1.4315 -1.8702  1.4328
  306MOL    H7949489   0.886   6.271   6.494 -0.1903 -0.3076  0.7770
  306MOL    H8049490   1.087   6.242   6.347  1.2283 -3.8827 -2.0018
  306MOL    H8149491   1.103   6.098   6.387  1.5208  0.8241  0.6395
  306MOL    C8249492   0.876   6.175   6.292  0.4092  0.0032  0.1104
  306MOL    C8349493   0.892   6.319   6.233  0.5319  0.1198  0.2518
  306MOL    N8449494   0.979   6.319   6.113  0.6170  0.8360  0.7032
  306MOL    H8549495   0.913   6.089   6.236  0.8331 -0.5476  1.2197
  306MOL    H8649496   0.769   6.163   6.279  0.5006 -0.0713 -0.6232
  306MOL    H8749497   0.940   6.386   6.304  0.0551  0.9691 -0.2198
  306MOL    H8849498   0.952   6.249   6.046  2.6229  1.3562 -0.6866
  306MOL    H8949499   0.965   6.412   6.076 -0.0178  0.7063  0.6042
  306MOL    C9049500   0.757   6.384   6.199  0.0766  0.0107 -0.1885
  306MOL    C9149501   0.649   6.399   6.313  0.0936  0.6695  0.1858
  306MOL    N9249502   0.647   6.530   6.368  0.1742 -0.5401 -0.6638
  306MOL    H9349503   0.762   6.484   6.156 -1.7511  0.6793  1.0973
  306MOL    H9449504   0.711   6.325   6.119 -0.3196  0.2365 -0.1324
  306MOL    H9549505   0.673   6.337   6.400  3.4916 -1.4403 -2.1448
  306MOL    H9649506   0.739   6.549   6.405 -0.4436  0.9362  0.1467
  306MOL    H9749507   0.611   6.509   6.460  0.9724 -0.2723 -0.2826
  306MOL    C9849508   0.507   6.373   6.262 -1.0896 -0.0406 -0.0855
  306MOL    C9949509   0.469   6.225   6.226 -0.3944 -0.0460 -0.3356
  306MOL   N10049510   0.427   6.157   6.350 -0.0829  0.2900  0.3478
  306MOL   H10149511   0.432   6.423   6.324 -2.2689  1.4160 -2.5964
  306MOL   H10249512   0.496   6.438   6.175 -0.5676  2.5266  1.7095
  306MOL   H10349513   0.550   6.159   6.194 -1.7798 -1.0701 -1.8775
  306MOL   H10449514   0.469   6.066   6.339  1.4720  1.1348 -0.9264
  306MOL   H10549515   0.492   6.185   6.422  0.9591 -2.1665  0.4033
  306MOL   C10649516   0.348   6.218   6.130  0.2963 -0.1653 -0.0656
  306MOL   C10749517   0.389   6.177   5.985 -0.1565  0.2926 -0.2015
  306MOL   N10849518   0.273   6.137   5.918 -0.3364 -0.2526  0.5692
  306MOL   H10949519   0.282   6.141   6.168 -0.4902  0.2540 -0.5700
  306MOL   H11049520   0.291   6.310   6.120  0.2185 -0.3523 -1.4292
  306MOL   H11149521   0.451   6.089   6.006 -0.9457  0.0963  1.4020
  306MOL   H11249522   0.241   6.046   5.949  0.6870 -0.3245  1.4636
  306MOL   H11349523   0.292   6.127   5.820  0.2946 -2.4435  0.8791
  306MOL   C11449524   0.458   6.296   5.919  0.1165  0.0384  0.4816
  306MOL   C11549525   0.538   6.258   5.793  0.3716 -0.1602  0.2314
  306MOL   N11649526   0.563   6.380   5.708  0.0088  0.0694 -0.7823
  306MOL   H11749527   0.384   6.369   5.885  3.5790  3.4966  0.0023
  306MOL   H11849528   0.525   6.358   5.979 -0.4866  0.6977  0.4839
  306MOL   H11949529   0.471   6.207   5.725  1.2100  0.9305 -1.4444
  306MOL   H12049530   0.481   6.426   5.670  0.5600  1.8401  0.1214
  306MOL   H12149531   0.631   6.381   5.634  1.8008  2.2378  0.8339
  306MOL   C12249532   0.662   6.176   5.835 -0.7806 -0.2949  0.0408
  306MOL   C12349533   0.721   6.076   5.723  0.8776  0.0759  0.5726
  306MOL   N12449534   0.865   6.084   5.742  0.3641 -0.0684  0.4495
  306MOL   H12549535   0.742   6.235   5.880 -1.2254 -0.4895  1.0963
  306MOL   H12649536   0.641   6.124   5.928 -4.0251  1.5832  0.4477
  306MOL   H12749537   0.701   6.112   5.622 -0.2069 -1.9060  0.0316
  306MOL   H12849538   0.907   6.056   5.654 -2.0319  1.9527 -1.3920
  306MOL   H12949539   0.874   6.184   5.748  1.4979 -0.3369  4.4535
  306MOL   C13049540   0.676   5.923   5.739 -0.1412  1.1906  0.4895
  306MOL   C13149541   0.528   5.897   5.712 -0.0157 -0.5606  0.6804
  306MOL   N13249542   0.499   5.904   5.568  0.2453 -0.1638 -0.4948
  306MOL   H13349543   0.740   5.856   5.682 -0.8920  0.0426  0.9908
  306MOL   H13449544   0.685   5.903   5.846  1.2983  2.1671  0.5595
  306MOL   H13549545   0.478   5.984   5.754  0.9554  0.2338  0.2179
  306MOL   H13649546   0.542   5.989   5.534 -0.4328 -0.8852 -3.2189
  306MOL   H13749547   0.546   5.836   5.511  1.3282 -0.4172  0.6928
  306MOL   C13849548   0.466   5.786   5.789  0.0473  0.1253 -0.0987
  306MOL   C13949549   0.450   5.787   5.942  0.1801 -0.2096 -0.0221
  306MOL   N14049550   0.310   5.804   5.982  0.0543  0.0965 -0.2794
  306MOL   H14149551   0.367   5.774   5.745  0.5795  1.2306 -1.6503
  306MOL   H14249552   0.519   5.696   5.759  2.0957  1.2388  0.1175
  306MOL   H14349553   0.505   5.874   5.977 -0.2635  0.8347 -1.8515
  306MOL   H14449554   0.316   5.807   6.082  0.1287  1.5161 -0.3133
  306MOL   H14549555   0.270   5.716   5.953  1.2836 -0.8795  0.8945
  306MOL   C14649556   0.511   5.672   6.020 -0.1791  0.3420  0.9328
  306MOL   C14749557   0.660   5.652   5.992  0.0841 -0.4967  0.6993
  306MOL   N14849558   0.735   5.748   6.064  0.3772 -0.4179 -0.2614
  306MOL   H14949559   0.488   5.689   6.125 -0.9848  0.1013  0.7986
  306MOL   H15049560   0.445   5.587   6.004 -0.9412  1.2440 -1.0040
  306MOL   H15149561   0.692   5.657   5.888 -0.3482  0.4482  0.6081
  306MOL   H15249562   0.813   5.765   6.002  0.1354  1.2717 -0.1357
  306MOL   H15349563   0.772   5.702   6.146 -0.0012 -0.4671 -0.1163
  306MOL   C15449564   0.694   5.506   6.040  0.3639  0.8433  0.3581
  306MOL   C15549565   0.665   5.399   5.932  0.4776 -1.0470 -0.0175
  306MOL   N15649566   0.707   5.271   5.968 -0.2660  0.0638  0.6644
  306MOL   H15749567   0.801   5.501   6.064 -0.0221  0.3433  2.0289
  306MOL   H15849568   0.632   5.490   6.128 -0.9287  0.2363 -0.6600
  306MOL   H15949569   0.713   5.431   5.840  1.2154  0.5031  0.8898
  306MOL   H16049570   0.683   5.254   6.065 -2.6342  3.2616  0.7267
  306MOL   H16149571   0.663   5.200   5.911 -0.6906  0.3204  0.6702
  306MOL   H16249572   0.556   5.398   5.924  0.4593  1.2999 -0.3417
  307MOL     C149573   2.573   5.323   4.257  0.1915 -0.2993  0.5099
  307MOL     C249574   2.635   5.442   4.325 -0.5819  0.2787 -0.3412
  307MOL     N349575   2.782   5.429   4.337  0.5169  0.3067 -0.3061
  307MOL     H449576   2.469   5.343   4.231  0.2811 -1.0409 -0.4643
  307MOL     H549577   2.574   5.247   4.336 -0.0177 -3.3338 -2.3162
  307MOL     H649578   2.611   5.449   4.431 -0.0053  0.8936 -0.2423
  307MOL     H749579   2.818   5.521   4.314  0.0095  0.9028  1.2687
  307MOL     H849580   2.820   5.377   4.259  0.0976 -0.2952 -0.1141
  307MOL     H949581   2.616   5.285   4.164  0.2624 -0.6472  0.6817
  307MOL    C1049582   2.597   5.574   4.253 -0.8280  0.0738 -0.4431
  307MOL    C1149583   2.588   5.696   4.352 -0.1441 -1.2187 -0.4568
  307MOL    N1249584   2.576   5.825   4.271 -0.1519  0.4396  0.1249
  307MOL    H1349585   2.684   5.592   4.191 -0.6763  1.4144  0.1471
  307MOL    H1449586   2.512   5.565   4.184  0.2374  0.2399 -1.7925
  307MOL    H1549587   2.681   5.710   4.407 -1.2512  3.6298  0.4539
  307MOL    H1649588   2.651   5.831   4.204 -1.7375  1.6812 -1.6010
  307MOL    H1749589   2.583   5.907   4.329  0.8403  0.9514 -0.7080
  307MOL    C1849590   2.459   5.689   4.445 -0.5159  0.1862 -0.3093
  307MOL    C1949591   2.414   5.813   4.531  0.1870  0.0108  0.1265
  307MOL    N2049592   2.319   5.769   4.632 -0.4130 -0.4873  0.3670
  307MOL    H2149593   2.381   5.658   4.377 -1.5344  1.4791  0.2444
  307MOL    H2249594   2.480   5.608   4.514  0.0313  0.1986 -0.4530
  307MOL    H2349595   2.357   5.874   4.461 -3.5692 -0.8745  2.2897
  307MOL    H2449596   2.233   5.742   4.586  0.0731 -1.5307  0.0463
  307MOL    H2549597   2.310   5.858   4.677  0.5764 -0.1810 -0.0145
  307MOL    C2649598   2.529   5.898   4.589 -0.3594  0.4090 -0.2450
  307MOL    C2749599   2.483   6.011   4.674  0.1509 -0.2385 -0.3685
  307MOL    N2849600   2.598   6.065   4.743 -0.6550  0.3672  0.9977
  307MOL    H2949601   2.600   5.829   4.636 -1.3044  0.4689  1.3181
  307MOL    H3049602   2.585   5.945   4.508  0.3595  3.6623  2.0126
  307MOL    H3149603   2.419   5.980   4.756  0.2996  1.0134  0.2388
  307MOL    H3249604   2.649   5.991   4.790 -0.5530  0.1126  0.4885
  307MOL    H3349605   2.566   6.125   4.817 -2.9305  1.1792 -0.5916
  307MOL    C3449606   2.411   6.124   4.588 -0.0625  0.0120  0.3808
  307MOL    C3549607   2.280   6.187   4.647 -0.3794  0.2251  0.4792
  307MOL    N3649608   2.181   6.084   4.655 -0.2602 -0.0873  0.6924
  307MOL    H3749609   2.474   6.210   4.565  0.6890 -0.6363 -0.0083
  307MOL    H3849610   2.391   6.082   4.490  1.3183  1.6322 -0.6306
  307MOL    H3949611   2.248   6.261   4.574  1.4165  0.3883 -0.1554
  307MOL    H4049612   2.093   6.124   4.683  0.3432  1.4589  0.4373
  307MOL    H4149613   2.161   6.039   4.566 -0.9644  0.1947  0.7105
  307MOL    C4249614   2.293   6.251   4.786 -0.5455 -0.4440  0.4501
  307MOL    C4349615   2.371   6.390   4.803  0.3736  0.2558 -0.5048
  307MOL    N4449616   2.287   6.490   4.744 -0.8125  0.3183 -0.1167
  307MOL    H4549617   2.194   6.268   4.827 -0.8096 -1.0125  0.0466
  307MOL    H4649618   2.335   6.177   4.854 -0.4221 -2.6399 -1.9620
  307MOL    H4749619   2.468   6.381   4.754 -0.2126 -0.3983 -1.5613
  307MOL    H4849620   2.193   6.494   4.780 -1.7877 -1.0744 -2.4192
  307MOL    H4949621   2.268   6.463   4.649 -1.2464  0.2959 -0.0266
  307MOL    C5049622   2.389   6.425   4.955 -0.1394  0.4501 -0.3562
  307MOL    C5149623   2.523   6.493   4.984  0.0297  0.0768 -0.3489
  307MOL    N5249624   2.517   6.588   5.097 -0.2797  0.1866  0.5189
  307MOL    H5349625   2.305   6.484   4.991 -0.5519 -0.2889 -0.0994
  307MOL    H5449626   2.386   6.331   5.011  1.0801  0.8531  0.3979
  307MOL    H5549627   2.553   6.555   4.899  0.0357 -1.4260 -1.4533
  307MOL    H5649628   2.512   6.530   5.180 -0.3105  0.2888  0.5889
  307MOL    H5749629   2.435   6.646   5.083 -0.3947  0.5950  2.6843
  307MOL    C5849630   2.634   6.388   4.999  0.1582  0.9959  0.3486
  307MOL    C5949631   2.772   6.442   5.049 -0.7782  0.2320 -0.0494
  307MOL    N6049632   2.778   6.417   5.186 -0.0921 -0.1410  0.4302
  307MOL    H6149633   2.598   6.311   5.068  1.6578  0.0539  0.1122
  307MOL    H6249634   2.653   6.334   4.907  0.4853  0.6023  0.6434
  307MOL    H6349635   2.789   6.548   5.032 -0.5601 -0.0702 -1.9258
  307MOL    H6449636   2.684   6.427   5.223  0.2448 -2.0635  1.8987
  307MOL    H6549637   2.836   6.484   5.235 -0.8135 -0.8597  2.3117
  307MOL    C6649638   2.898   6.385   4.979  1.0438 -0.2923 -0.7398
  307MOL    C6749639   2.935   6.474   4.856  0.1570  0.4584 -0.4121
  307MOL    N6849640   3.069   6.438   4.811  0.2865  0.2544 -0.4778
  307MOL    H6949641   2.991   6.390   5.037 -0.4403 -1.3629  1.8062
  307MOL    H7049642   2.885   6.281   4.950 -2.3563  0.0352 -0.5676
  307MOL    H7149643   2.951   6.575   4.895 -2.4497  0.2468  1.3389
  307MOL    H7249644   3.132   6.429   4.890 -0.6412  1.0897  0.3754
  307MOL    H7349645   3.111   6.505   4.748  2.2086 -0.6727 -0.2081
  307MOL    C7449646   2.828   6.485   4.741 -0.5164  0.0773  0.4847
  307MOL    C7549647   2.873   6.574   4.616  0.1063 -0.3322  0.2891
  307MOL    N7649648   2.790   6.556   4.499 -0.1443 -0.1940  0.0480
  307MOL    H7749649   2.824   6.383   4.703 -1.3056 -0.2308  1.3927
  307MOL    H7849650   2.743   6.528   4.793 -1.7043 -0.2713 -1.1459
  307MOL    H7949651   2.976   6.555   4.588  0.1141 -0.9209  0.7047
  307MOL    H8049652   2.809   6.634   4.438 -0.8145 -0.0837 -0.0276
  307MOL    H8149653   2.825   6.473   4.454  0.0053 -0.3844  0.5168
  307MOL    C8249654   2.878   6.726   4.649  0.5240  0.6947  0.0037
  307MOL    C8349655   2.950   6.816   4.552 -0.1289 -0.0617  0.3131
  307MOL    N8449656   2.873   6.848   4.437  0.2699  0.2409  0.0280
  307MOL    H8549657   2.774   6.758   4.649  0.8375  1.7488  0.5516
  307MOL    H8649658   2.925   6.737   4.747 -0.5923  1.7923  0.4143
  307MOL    H8749659   3.040   6.761   4.525  0.1713 -0.0303  1.2266
  307MOL    H8849660   2.807   6.919   4.468  0.6728  0.9474 -0.6940
  307MOL    H8949661   2.935   6.898   4.374  1.3634 -0.3396  0.6428
  307MOL    C9049662   3.009   6.948   4.610  0.4518 -0.6334 -0.0730
  307MOL    C9149663   3.102   7.031   4.514  0.3627 -0.6206 -0.1210
  307MOL    N9249664   3.146   7.159   4.576 -0.1163  0.5133 -0.2415
  307MOL    H9349665   2.929   7.015   4.643  1.1767 -0.3084  1.0685
  307MOL    H9449666   3.068   6.937   4.701 -1.0704  0.5331  1.0727
  307MOL    H9549667   3.048   7.063   4.425 -0.4190 -0.3043  0.4604
  307MOL    H9649668   3.199   7.135   4.658 -0.7167 -2.5643 -0.6688
  307MOL    H9749669   3.073   7.222   4.604 -1.2337 -0.8819  0.0413
  307MOL    C9849670   3.229   6.955   4.474 -0.3035 -0.3804 -0.2935
  307MOL    C9949671   3.240   6.923   4.326 -0.5198 -0.0669 -0.2745
  307MOL   N10049672   3.222   7.046   4.243 -0.1508  0.3301  0.6416
  307MOL   H10149673   3.316   7.001   4.523 -0.5309 -0.8856  0.6019
  307MOL   H10249674   3.230   6.858   4.523  0.0355 -0.7665 -1.0688
  307MOL   H10349675   3.162   6.855   4.291 -0.3723 -0.2560 -0.2357
  307MOL   H10449676   3.128   7.082   4.253 -0.1405  0.3470  0.6765
  307MOL   H10549677   3.281   7.123   4.273 -0.4811  0.5951  0.6091
  307MOL   C10649678   3.380   6.861   4.291 -1.0773  0.0382 -0.2500
  307MOL   C10749679   3.393   6.707   4.269 -0.0435  0.0009 -0.1425
  307MOL   N10849680   3.398   6.672   4.134 -0.3943 -0.2396  0.4727
  307MOL   H10949681   3.405   6.901   4.193  1.7284 -0.7448  0.1141
  307MOL   H11049682   3.459   6.891   4.360  0.0899 -3.2928 -0.0668
  307MOL   H11149683   3.300   6.663   4.306 -0.7509  1.9671  0.4405
  307MOL   H11249684   3.311   6.702   4.093  0.1326  0.9644  0.2042
  307MOL   H11349685   3.389   6.571   4.136  0.0582 -0.2828  0.4816
  307MOL   C11449686   3.512   6.634   4.346  0.1079  0.1099  0.6268
  307MOL   C11549687   3.513   6.644   4.498 -0.1585 -0.1745  0.7311
  307MOL   N11649688   3.407   6.564   4.551 -0.0267 -0.5697 -0.6439
  307MOL   H11749689   3.528   6.531   4.314 -0.6586  0.1126  0.2371
  307MOL   H11849690   3.603   6.685   4.314  0.2331 -0.5486 -0.0861
  307MOL   H11949691   3.486   6.748   4.516 -0.5730 -0.3219  0.9689
  307MOL   H12049692   3.377   6.588   4.644  0.6514 -0.8243 -0.3505
  307MOL   H12149693   3.432   6.467   4.567  1.0742 -0.5622 -2.1899
  307MOL   C12249694   3.653   6.613   4.560 -0.0392 -0.4911 -0.4351
  307MOL   C12349695   3.761   6.728   4.549 -0.3788  1.0987  0.0123
  307MOL   N12449696   3.739   6.834   4.646 -0.0095  0.3744 -0.0497
  307MOL   H12549697   3.641   6.582   4.664  0.6201  0.0626 -0.1882
  307MOL   H12649698   3.691   6.523   4.511 -0.1726 -0.3628 -0.7761
  307MOL   H12749699   3.748   6.770   4.449 -0.8087 -0.2679 -0.5195
  307MOL   H12849700   3.667   6.806   4.711 -0.5262 -0.8332 -1.1203
  307MOL   H12949701   3.824   6.840   4.700  0.3858 -0.7236 -0.5376
  307MOL   C13049702   3.905   6.679   4.571  0.1647  0.2039  0.5832
  307MOL   C13149703   3.960   6.618   4.438  0.0324  0.2033 -0.4634
  307MOL   N13249704   4.094   6.666   4.405 -0.1499  0.3408 -0.6524
  307MOL   H13349705   3.967   6.767   4.587 -0.9554  0.8393  1.5392
  307MOL   H13449706   3.911   6.605   4.650 -1.1908 -2.5254 -1.7782
  307MOL   H13549707   3.889   6.658   4.365 -2.9023 -0.4368  1.9553
  307MOL   H13649708   4.102   6.647   4.306 -2.4528 -1.9948 -0.4634
  307MOL   H13749709   4.096   6.767   4.400 -0.4519  0.3661 -0.2806
  307MOL   C13849710   3.962   6.465   4.432 -0.2039 -1.4894 -0.2450
  307MOL   C13949711   3.954   6.419   4.285  0.9877  0.3315 -0.5531
  307MOL   N14049712   3.976   6.274   4.291 -0.6130  0.1705  0.1261
  307MOL   H14149713   4.049   6.425   4.483  1.9002  1.1255 -1.6960
  307MOL   H14249714   3.878   6.434   4.494  0.0641  0.6533  1.2116
  307MOL   H14349715   4.034   6.463   4.225 -0.2373  2.2116 -0.8388
  307MOL   H14449716   3.893   6.236   4.332  0.2942 -2.3581 -0.3034
  307MOL   H14549717   3.975   6.243   4.195  2.4639  0.3253 -0.0195
  307MOL   C14649718   3.823   6.443   4.209  0.7269 -0.7636 -0.8263
  307MOL   C14749719   3.837   6.426   4.059  0.0982 -0.3638  0.1234
  307MOL   N14849720   3.705   6.412   3.997  0.4829  0.0581  0.2599
  307MOL   H14949721   3.752   6.374   4.255  0.9377  0.2062  0.9598
  307MOL   H15049722   3.778   6.542   4.213  1.4709 -0.2440 -3.8637
  307MOL   H15149723   3.880   6.328   4.036 -1.7779 -0.6964 -2.2016
  307MOL   H15249724   3.646   6.489   4.028  0.5948  0.7365 -1.1920
  307MOL   H15349725   3.649   6.329   4.000  0.3105  0.0761 -1.8079
  307MOL   C15449726   3.902   6.550   3.991  0.0957 -0.1455 -0.3151
  307MOL   C15549727   4.030   6.520   3.928  0.0740  0.2357  0.0966
  307MOL   N15649728   4.091   6.644   3.869  0.7816  0.2369 -0.3268
  307MOL   H15749729   3.841   6.595   3.913  0.5637  0.3906 -0.3742
  307MOL   H15849730   3.915   6.633   4.061  0.4933  0.9592 -1.6906
  307MOL   H15949731   4.030   6.436   3.859 -1.1894  0.0200  0.3536
  307MOL   H16049732   4.179   6.626   3.823  0.8512 -0.3675  0.0456
  307MOL   H16149733   4.023   6.650   3.794 -0.2881 -0.6940  0.5587
  307MOL   H16249734   4.089   6.479   4.010 -0.5379  1.9433  1.4120
  308MOL     C149735   2.733   2.002   1.697  0.3854  0.1188 -1.0649
  308MOL     C249736   2.841   1.923   1.755 -0.0025  0.1277 -0.8133
  308MOL     N349737   2.874   1.987   1.878  0.3541  0.1765  0.1127
  308MOL     H449738   2.642   1.968   1.747  2.3161 -1.3747  1.6211
  308MOL     H549739   2.733   1.979   1.591  0.9171  0.3820 -1.1218
  308MOL     H649740   2.927   1.917   1.688  1.0269  0.9986  0.4077
  308MOL     H749741   2.922   2.074   1.857  1.2566 -0.2975  0.1538
  308MOL     H849742   2.949   1.927   1.911  1.2049  0.9183 -0.4207
  308MOL     H949743   2.746   2.109   1.711 -2.6295  0.3256  0.5232
  308MOL    C1049744   2.798   1.777   1.789 -0.0401  0.0593  0.0586
  308MOL    C1149745   2.756   1.707   1.659  0.2143 -0.3604 -0.8055
  308MOL    N1249746   2.881   1.652   1.611 -0.1178 -0.3224 -0.1721
  308MOL    H1349747   2.875   1.728   1.848  0.6120  2.2142  1.0714
  308MOL    H1449748   2.706   1.790   1.847  1.0242 -0.2484  1.8390
  308MOL    H1549749   2.704   1.769   1.585 -0.9549 -0.7572 -0.3309
  308MOL    H1649750   2.951   1.723   1.599  0.3602 -0.8625 -0.5977
  308MOL    H1749751   2.869   1.628   1.514  1.7708 -1.9224 -0.0401
  308MOL    C1849752   2.656   1.584   1.680  0.2542  0.0807 -0.1916
  308MOL    C1949753   2.513   1.626   1.733 -0.2087 -0.8632 -0.5521
  308MOL    N2049754   2.424   1.639   1.620  0.2777 -0.1325 -0.4287
  308MOL    H2149755   2.653   1.533   1.584  0.2093  0.8534 -0.6028
  308MOL    H2249756   2.699   1.515   1.752  0.9300  0.3742 -0.3133
  308MOL    H2349757   2.526   1.724   1.781 -2.4019 -1.9319  2.4059
  308MOL    H2449758   2.420   1.544   1.587  0.5979 -0.3332  0.1040
  308MOL    H2549759   2.473   1.686   1.546  0.0816  1.1813  0.2567
  308MOL    C2649760   2.449   1.517   1.830  0.5773  0.1582 -0.0836
  308MOL    C2749761   2.300   1.542   1.881  0.4328 -0.1692 -0.3892
  308MOL    N2849762   2.238   1.411   1.904  0.0609 -0.0714 -0.2357
  308MOL    H2949763   2.454   1.425   1.772 -1.5711 -0.0136 -0.0295
  308MOL    H3049764   2.518   1.499   1.912  0.0587  1.5715  0.6819
  308MOL    H3149765   2.234   1.591   1.809  1.6546  0.7123 -0.9275
  308MOL    H3249766   2.245   1.358   1.818 -0.2979 -0.7312  0.1403
  308MOL    H3349767   2.146   1.404   1.945  0.1315 -1.0680 -0.2206
  308MOL    C3449768   2.293   1.628   2.010  0.6733  0.3252 -0.0395
  308MOL    C3549769   2.370   1.760   2.016 -0.1772 -0.4048 -0.3577
  308MOL    N3649770   2.307   1.862   1.935  0.0844 -0.0077 -0.1749
  308MOL    H3749771   2.190   1.644   2.043  0.3356 -0.0885 -0.8625
  308MOL    H3849772   2.335   1.564   2.087  0.3499  1.2947  0.9554
  308MOL    H3949773   2.466   1.745   1.967 -0.5433  1.0603 -1.5675
  308MOL    H4049774   2.231   1.902   1.989  0.0115 -0.8243  0.3459
  308MOL    H4149775   2.354   1.948   1.911 -0.2289  0.3625  0.5235
  308MOL    C4249776   2.393   1.813   2.162 -0.4115 -0.6987 -0.4429
  308MOL    C4349777   2.506   1.737   2.245  0.0695 -0.1786  0.5166
  308MOL    N4449778   2.637   1.776   2.205  0.0655 -0.2827  0.3085
  308MOL    H4549779   2.434   1.913   2.165 -0.8269 -0.5664  2.4121
  308MOL    H4649780   2.299   1.806   2.218 -1.1113  0.2451 -1.4917
  308MOL    H4749781   2.502   1.630   2.223  2.2718  0.3600 -2.9023
  308MOL    H4849782   2.647   1.767   2.105 -0.0432 -0.9006  0.3494
  308MOL    H4949783   2.651   1.875   2.217  0.8589 -0.0883 -1.9643
  308MOL    C5049784   2.500   1.748   2.396  0.1966 -0.0488  0.2891
  308MOL    C5149785   2.372   1.680   2.466  0.2084 -0.1141 -0.2252
  308MOL    N5249786   2.415   1.630   2.601 -0.0882 -0.1501  0.0113
  308MOL    H5349787   2.584   1.690   2.435  1.4845  0.7127 -1.3033
  308MOL    H5449788   2.521   1.851   2.423  0.9367  0.3794 -1.9144
  308MOL    H5549789   2.343   1.594   2.406  2.8916 -1.9493  1.0337
  308MOL    H5649790   2.487   1.695   2.629  2.3921 -2.5928 -0.4552
  308MOL    H5749791   2.469   1.544   2.598  0.2232  0.0780 -1.1756
  308MOL    C5849792   2.257   1.783   2.492  0.3474  0.5485 -0.8801
  308MOL    C5949793   2.143   1.738   2.585  0.6534 -0.2450 -0.6956
  308MOL    N6049794   2.047   1.844   2.613 -0.4407 -0.2385 -0.0356
  308MOL    H6149795   2.290   1.877   2.534 -0.1630  0.6678 -0.7354
  308MOL    H6249796   2.212   1.804   2.395 -0.4306 -0.2751 -0.7040
  308MOL    H6349797   2.197   1.722   2.678 -2.5494  0.4840  1.3353
  308MOL    H6449798   2.028   1.855   2.712  2.2389 -0.6129  0.5494
  308MOL    H6549799   2.096   1.929   2.588  0.2229 -0.2269  1.2355
  308MOL    C6649800   2.066   1.625   2.519  0.8431 -0.3016 -0.1523
  308MOL    C6749801   1.950   1.551   2.592 -0.3019 -0.4729 -0.2220
  308MOL    N6849802   1.875   1.471   2.498  0.1645  0.1912  0.5661
  308MOL    H6949803   2.033   1.664   2.423 -0.1091  3.0511  1.4285
  308MOL    H7049804   2.132   1.540   2.505 -0.6272 -1.6986  1.1900
  308MOL    H7149805   1.885   1.629   2.632  1.4355  0.5200  0.7455
  308MOL    H7249806   1.828   1.394   2.542 -4.1457  0.2405 -3.5954
  308MOL    H7349807   1.935   1.437   2.424 -1.0842 -1.9169  0.4811
  308MOL    C7449808   1.999   1.462   2.706 -0.3918 -0.2125 -1.3142
  308MOL    C7549809   1.882   1.381   2.779  0.0228  0.5849  0.4153
  308MOL    N7649810   1.932   1.297   2.879 -0.1141  0.6210 -0.7581
  308MOL    H7749811   2.078   1.396   2.670  1.9153 -1.1368  4.8582
  308MOL    H7849812   2.051   1.523   2.779 -3.6039  0.5788  0.4206
  308MOL    H7949813   1.842   1.310   2.706  1.0131  1.2477 -0.7981
  308MOL    H8049814   1.869   1.218   2.886 -0.6718  1.1394  0.1456
  308MOL    H8149815   2.018   1.248   2.857  0.2429 -0.1857  2.2582
  308MOL    C8249816   1.780   1.469   2.836  0.2926  0.3535  0.0998
  308MOL    C8349817   1.654   1.394   2.875 -0.3140 -0.4016  0.5642
  308MOL    N8449818   1.607   1.424   3.008  0.0072 -1.0170 -0.6024
  308MOL    H8549819   1.832   1.512   2.921  0.5876 -0.4926  0.3546
  308MOL    H8649820   1.756   1.554   2.772  0.0917 -1.3510 -2.1753
  308MOL    H8749821   1.659   1.285   2.875  1.4871 -0.3301  0.6720
  308MOL    H8849822   1.678   1.394   3.073  1.1072  1.0291 -0.8458
  308MOL    H8949823   1.531   1.364   3.040  0.8021 -0.7743  1.8648
  308MOL    C9049824   1.534   1.432   2.781  0.0652 -0.0053 -0.4735
  308MOL    C9149825   1.559   1.407   2.632  0.0825 -0.8528  0.0460
  308MOL    N9249826   1.596   1.270   2.618 -0.0805 -0.5817  0.5575
  308MOL    H9349827   1.448   1.373   2.812  0.3151 -0.6630 -1.0217
  308MOL    H9449828   1.505   1.536   2.797  0.5847  0.2364 -1.1014
  308MOL    H9549829   1.635   1.475   2.593  0.3015 -0.7193  0.7043
  308MOL    H9649830   1.685   1.250   2.661  2.2914 -1.1718 -4.2405
  308MOL    H9749831   1.620   1.257   2.520  1.1834  3.1132  0.2853
  308MOL    C9849832   1.431   1.443   2.549  0.2462  0.3141  0.5338
  308MOL    C9949833   1.401   1.599   2.549  0.2653 -0.1111  0.1700
  308MOL   N10049834   1.432   1.660   2.423  0.4020 -0.7513 -0.3767
  308MOL   H10149835   1.439   1.405   2.448 -0.8879  2.1183 -0.2737
  308MOL   H10249836   1.347   1.394   2.599  0.0647  0.9651  0.8789
  308MOL   H10349837   1.458   1.656   2.622  1.9217  0.7572 -1.7477
  308MOL   H10449838   1.414   1.759   2.420  0.0238 -0.7539  1.3942
  308MOL   H10549839   1.532   1.658   2.406  0.8752  0.5659  2.0743
  308MOL   C10649840   1.245   1.622   2.577 -0.8052  0.2348 -0.4624
  308MOL   C10749841   1.194   1.595   2.726  0.2066  0.3350  0.1911
  308MOL   N10849842   1.228   1.718   2.791  0.1652  0.1196  0.1330
  308MOL   H10949843   1.208   1.721   2.551  4.8840  3.0027  1.1790
  308MOL   H11049844   1.188   1.553   2.515 -1.9601  0.6320  0.1369
  308MOL   H11149845   1.245   1.507   2.766  0.1091 -1.2900 -3.0963
  308MOL   H11249846   1.218   1.704   2.891  0.3679  0.9233  0.2662
  308MOL   H11349847   1.321   1.751   2.772  0.3846 -0.4138  0.2818
  308MOL   C11449848   1.048   1.570   2.738 -0.7741  0.2186  0.2141
  308MOL   C11549849   0.987   1.442   2.675 -0.2830  0.3018  0.3218
  308MOL   N11649850   0.978   1.337   2.773 -0.1078 -0.3825 -0.6390
  308MOL   H11749851   1.026   1.575   2.845  1.4139 -0.7114  0.7153
  308MOL   H11849852   1.015   1.662   2.689 -1.9548 -1.2366 -1.8046
  308MOL   H11949853   1.068   1.398   2.618  0.2986  0.2197  1.1976
  308MOL   H12049854   0.935   1.259   2.725 -0.2811 -0.0795 -0.9751
  308MOL   H12149855   0.907   1.366   2.839  0.8878  1.3820 -0.3024
  308MOL   C12249856   0.854   1.447   2.596 -0.6694 -0.0054  0.3956
  308MOL   C12349857   0.863   1.482   2.446 -0.2667 -0.3451 -0.4275
  308MOL   N12449858   0.753   1.423   2.372 -0.6552  0.3106  0.3578
  308MOL   H12549859   0.796   1.355   2.598 -1.9497  0.7033 -1.6895
  308MOL   H12649860   0.795   1.520   2.652  0.2273  2.4940 -1.7685
  308MOL   H12749861   0.951   1.428   2.409 -2.2156 -3.5348 -0.6536
  308MOL   H12849862   0.774   1.431   2.273  0.2612 -2.8771  0.2212
  308MOL   H12949863   0.760   1.326   2.398  0.9360  0.2156 -0.3739
  308MOL   C13049864   0.874   1.636   2.421  0.0894 -1.1167  0.0882
  308MOL   C13149865   0.860   1.685   2.276 -0.2391  0.0079  0.0845
  308MOL   N13249866   0.840   1.830   2.279  0.3931  0.8622  0.6804
  308MOL   H13349867   0.795   1.681   2.482  2.7230  2.8120  0.7841
  308MOL   H13449868   0.970   1.674   2.455 -0.6443  2.2286 -1.3646
  308MOL   H13549869   0.771   1.638   2.235 -1.0148  0.5750  1.0940
  308MOL   H13649870   0.765   1.861   2.339  0.3821  3.9021 -0.7902
  308MOL   H13749871   0.927   1.860   2.321  0.8934 -0.7352  0.8235
  308MOL   C13849872   0.986   1.664   2.190 -0.4051 -0.3164 -0.3149
  308MOL   C13949873   0.993   1.525   2.129 -0.0133  0.1476  0.5350
  308MOL   N14049874   0.871   1.474   2.074  0.3930  0.1578  0.7773
  308MOL   H14149875   0.982   1.746   2.119 -1.8715 -0.7728 -0.7704
  308MOL   H14249876   1.076   1.691   2.246 -0.7487 -1.2493  0.7058
  308MOL   H14349877   1.034   1.454   2.201 -1.8076 -0.5240  0.9418
  308MOL   H14449878   0.858   1.533   1.993 -2.6153  0.2443  1.2589
  308MOL   H14549879   0.881   1.379   2.041 -0.0495  0.1049  0.7858
  308MOL   C14649880   1.099   1.517   2.010  0.7286  0.2708 -0.0395
  308MOL   C14749881   1.242   1.491   2.070 -0.2103  0.7577 -0.1621
  308MOL   N14849882   1.272   1.353   2.045 -0.1665 -0.3542  0.0279
  308MOL   H14949883   1.070   1.442   1.936 -1.6435 -0.6386  1.7412
  308MOL   H15049884   1.091   1.613   1.959  0.5508  0.7371  0.8648
  308MOL   H15149885   1.230   1.516   2.175 -2.9352  1.6366 -0.6165
  308MOL   H15249886   1.197   1.295   2.080 -0.9717  1.9161  2.2032
  308MOL   H15349887   1.267   1.339   1.945  2.0337 -0.6512 -0.0763
  308MOL   C15449888   1.344   1.580   2.003 -0.3979  0.4729 -0.3719
  308MOL   C15549889   1.327   1.735   2.035  0.4555 -0.7685  0.4841
  308MOL   N15649890   1.451   1.808   2.007  0.3127 -0.2176  0.0319
  308MOL   H15749891   1.436   1.562   2.060 -0.5989  0.3331 -0.0887
  308MOL   H15849892   1.362   1.553   1.899  1.2783  0.5505 -0.1272
  308MOL   H15949893   1.289   1.757   2.135 -2.0244  0.8196 -0.7457
  308MOL   H16049894   1.521   1.794   2.079 -0.6817  1.7369  1.4228
  308MOL   H16149895   1.432   1.905   2.028  0.1384 -0.2954  0.2323
  308MOL   H16249896   1.251   1.782   1.972  1.3774  1.2075  0.7990
   7.27561   7.27561   7.27561
