;
; Gromacs include topology (itp) file.
; For Molecular Group XYZ
; Force field scheme: opls2005
; Produced from DL_FIELD v4.11
;


[ moleculetype ]
; name    nrexcl
XYZ    3

[ atoms ]
; nr   type   resnr   residu    atom    cgnr    charge    mass
    1        CT    1  MOL      C1     1  -0.1800000   12.0115
    2        CT    1  MOL      C2     2   0.1200000   12.0115
    3        NT    1  MOL      N3     3  -0.9000000   14.0067
    4        HC    1  MOL      H4     4   0.0600000    1.0080
    5        HC    1  MOL      H5     5   0.0600000    1.0080
    6      HANI    1  MOL      H6     6   0.0600000    1.0080
    7         H    1  MOL      H7     7   0.3600000    1.0080
    8         H    1  MOL      H8     8   0.3600000    1.0080
    9        HC    1  MOL      H9     9   0.0600000    1.0080
   10        CT    1  MOL     C10    10  -0.1200000   12.0115
   11        CT    1  MOL     C11    11   0.1200000   12.0115
   12        NT    1  MOL     N12    12  -0.9000000   14.0067
   13        HC    1  MOL     H13    13   0.0600000    1.0080
   14        HC    1  MOL     H14    14   0.0600000    1.0080
   15      HANI    1  MOL     H15    15   0.0600000    1.0080
   16         H    1  MOL     H16    16   0.3600000    1.0080
   17         H    1  MOL     H17    17   0.3600000    1.0080
   18        CT    1  MOL     C18    18  -0.1200000   12.0115
   19        CT    1  MOL     C19    19   0.1200000   12.0115
   20        NT    1  MOL     N20    20  -0.9000000   14.0067
   21        HC    1  MOL     H21    21   0.0600000    1.0080
   22        HC    1  MOL     H22    22   0.0600000    1.0080
   23      HANI    1  MOL     H23    23   0.0600000    1.0080
   24         H    1  MOL     H24    24   0.3600000    1.0080
   25         H    1  MOL     H25    25   0.3600000    1.0080
   26        CT    1  MOL     C26    26  -0.1200000   12.0115
   27        CT    1  MOL     C27    27   0.1200000   12.0115
   28        NT    1  MOL     N28    28  -0.9000000   14.0067
   29        HC    1  MOL     H29    29   0.0600000    1.0080
   30        HC    1  MOL     H30    30   0.0600000    1.0080
   31      HANI    1  MOL     H31    31   0.0600000    1.0080
   32         H    1  MOL     H32    32   0.3600000    1.0080
   33         H    1  MOL     H33    33   0.3600000    1.0080
   34        CT    1  MOL     C34    34  -0.1200000   12.0115
   35        CT    1  MOL     C35    35   0.1200000   12.0115
   36        NT    1  MOL     N36    36  -0.9000000   14.0067
   37        HC    1  MOL     H37    37   0.0600000    1.0080
   38        HC    1  MOL     H38    38   0.0600000    1.0080
   39      HANI    1  MOL     H39    39   0.0600000    1.0080
   40         H    1  MOL     H40    40   0.3600000    1.0080
   41         H    1  MOL     H41    41   0.3600000    1.0080
   42        CT    1  MOL     C42    42  -0.1200000   12.0115
   43        CT    1  MOL     C43    43   0.1200000   12.0115
   44        NT    1  MOL     N44    44  -0.9000000   14.0067
   45        HC    1  MOL     H45    45   0.0600000    1.0080
   46        HC    1  MOL     H46    46   0.0600000    1.0080
   47      HANI    1  MOL     H47    47   0.0600000    1.0080
   48         H    1  MOL     H48    48   0.3600000    1.0080
   49         H    1  MOL     H49    49   0.3600000    1.0080
   50        CT    1  MOL     C50    50  -0.1200000   12.0115
   51        CT    1  MOL     C51    51   0.1200000   12.0115
   52        NT    1  MOL     N52    52  -0.9000000   14.0067
   53        HC    1  MOL     H53    53   0.0600000    1.0080
   54        HC    1  MOL     H54    54   0.0600000    1.0080
   55      HANI    1  MOL     H55    55   0.0600000    1.0080
   56         H    1  MOL     H56    56   0.3600000    1.0080
   57         H    1  MOL     H57    57   0.3600000    1.0080
   58        CT    1  MOL     C58    58  -0.1200000   12.0115
   59        CT    1  MOL     C59    59   0.1200000   12.0115
   60        NT    1  MOL     N60    60  -0.9000000   14.0067
   61        HC    1  MOL     H61    61   0.0600000    1.0080
   62        HC    1  MOL     H62    62   0.0600000    1.0080
   63      HANI    1  MOL     H63    63   0.0600000    1.0080
   64         H    1  MOL     H64    64   0.3600000    1.0080
   65         H    1  MOL     H65    65   0.3600000    1.0080
   66        CT    1  MOL     C66    66  -0.1200000   12.0115
   67        CT    1  MOL     C67    67   0.1200000   12.0115
   68        NT    1  MOL     N68    68  -0.9000000   14.0067
   69        HC    1  MOL     H69    69   0.0600000    1.0080
   70        HC    1  MOL     H70    70   0.0600000    1.0080
   71      HANI    1  MOL     H71    71   0.0600000    1.0080
   72         H    1  MOL     H72    72   0.3600000    1.0080
   73         H    1  MOL     H73    73   0.3600000    1.0080
   74        CT    1  MOL     C74    74  -0.1200000   12.0115
   75        CT    1  MOL     C75    75   0.1200000   12.0115
   76        NT    1  MOL     N76    76  -0.9000000   14.0067
   77        HC    1  MOL     H77    77   0.0600000    1.0080
   78        HC    1  MOL     H78    78   0.0600000    1.0080
   79      HANI    1  MOL     H79    79   0.0600000    1.0080
   80         H    1  MOL     H80    80   0.3600000    1.0080
   81         H    1  MOL     H81    81   0.3600000    1.0080
   82        CT    1  MOL     C82    82  -0.1200000   12.0115
   83        CT    1  MOL     C83    83   0.1200000   12.0115
   84        NT    1  MOL     N84    84  -0.9000000   14.0067
   85        HC    1  MOL     H85    85   0.0600000    1.0080
   86        HC    1  MOL     H86    86   0.0600000    1.0080
   87      HANI    1  MOL     H87    87   0.0600000    1.0080
   88         H    1  MOL     H88    88   0.3600000    1.0080
   89         H    1  MOL     H89    89   0.3600000    1.0080
   90        CT    1  MOL     C90    90  -0.1200000   12.0115
   91        CT    1  MOL     C91    91   0.1200000   12.0115
   92        NT    1  MOL     N92    92  -0.9000000   14.0067
   93        HC    1  MOL     H93    93   0.0600000    1.0080
   94        HC    1  MOL     H94    94   0.0600000    1.0080
   95      HANI    1  MOL     H95    95   0.0600000    1.0080
   96         H    1  MOL     H96    96   0.3600000    1.0080
   97         H    1  MOL     H97    97   0.3600000    1.0080
   98        CT    1  MOL     C98    98  -0.1200000   12.0115
   99        CT    1  MOL     C99    99   0.1200000   12.0115
  100        NT    1  MOL    N100   100  -0.9000000   14.0067
  101        HC    1  MOL    H101   101   0.0600000    1.0080
  102        HC    1  MOL    H102   102   0.0600000    1.0080
  103      HANI    1  MOL    H103   103   0.0600000    1.0080
  104         H    1  MOL    H104   104   0.3600000    1.0080
  105         H    1  MOL    H105   105   0.3600000    1.0080
  106        CT    1  MOL    C106   106  -0.1200000   12.0115
  107        CT    1  MOL    C107   107   0.1200000   12.0115
  108        NT    1  MOL    N108   108  -0.9000000   14.0067
  109        HC    1  MOL    H109   109   0.0600000    1.0080
  110        HC    1  MOL    H110   110   0.0600000    1.0080
  111      HANI    1  MOL    H111   111   0.0600000    1.0080
  112         H    1  MOL    H112   112   0.3600000    1.0080
  113         H    1  MOL    H113   113   0.3600000    1.0080
  114        CT    1  MOL    C114   114  -0.1200000   12.0115
  115        CT    1  MOL    C115   115   0.1200000   12.0115
  116        NT    1  MOL    N116   116  -0.9000000   14.0067
  117        HC    1  MOL    H117   117   0.0600000    1.0080
  118        HC    1  MOL    H118   118   0.0600000    1.0080
  119      HANI    1  MOL    H119   119   0.0600000    1.0080
  120         H    1  MOL    H120   120   0.3600000    1.0080
  121         H    1  MOL    H121   121   0.3600000    1.0080
  122        CT    1  MOL    C122   122  -0.1200000   12.0115
  123        CT    1  MOL    C123   123   0.1200000   12.0115
  124        NT    1  MOL    N124   124  -0.9000000   14.0067
  125        HC    1  MOL    H125   125   0.0600000    1.0080
  126        HC    1  MOL    H126   126   0.0600000    1.0080
  127      HANI    1  MOL    H127   127   0.0600000    1.0080
  128         H    1  MOL    H128   128   0.3600000    1.0080
  129         H    1  MOL    H129   129   0.3600000    1.0080
  130        CT    1  MOL    C130   130  -0.1200000   12.0115
  131        CT    1  MOL    C131   131   0.1200000   12.0115
  132        NT    1  MOL    N132   132  -0.9000000   14.0067
  133        HC    1  MOL    H133   133   0.0600000    1.0080
  134        HC    1  MOL    H134   134   0.0600000    1.0080
  135      HANI    1  MOL    H135   135   0.0600000    1.0080
  136         H    1  MOL    H136   136   0.3600000    1.0080
  137         H    1  MOL    H137   137   0.3600000    1.0080
  138        CT    1  MOL    C138   138  -0.1200000   12.0115
  139        CT    1  MOL    C139   139   0.1200000   12.0115
  140        NT    1  MOL    N140   140  -0.9000000   14.0067
  141        HC    1  MOL    H141   141   0.0600000    1.0080
  142        HC    1  MOL    H142   142   0.0600000    1.0080
  143      HANI    1  MOL    H143   143   0.0600000    1.0080
  144         H    1  MOL    H144   144   0.3600000    1.0080
  145         H    1  MOL    H145   145   0.3600000    1.0080
  146        CT    1  MOL    C146   146  -0.1200000   12.0115
  147        CT    1  MOL    C147   147   0.1200000   12.0115
  148        NT    1  MOL    N148   148  -0.9000000   14.0067
  149        HC    1  MOL    H149   149   0.0600000    1.0080
  150        HC    1  MOL    H150   150   0.0600000    1.0080
  151      HANI    1  MOL    H151   151   0.0600000    1.0080
  152         H    1  MOL    H152   152   0.3600000    1.0080
  153         H    1  MOL    H153   153   0.3600000    1.0080
  154        CT    1  MOL    C154   154  -0.1200000   12.0115
  155        CT    1  MOL    C155   155   0.0600000   12.0115
  156        NT    1  MOL    N156   156  -0.9000000   14.0067
  157        HC    1  MOL    H157   157   0.0600000    1.0080
  158        HC    1  MOL    H158   158   0.0600000    1.0080
  159      HANI    1  MOL    H159   159   0.0600000    1.0080
  160         H    1  MOL    H160   160   0.3600000    1.0080
  161         H    1  MOL    H161   161   0.3600000    1.0080
  162      HANI    1  MOL    H162   162   0.0600000    1.0080

[ bonds ]
      1      2   1      0.1529 224262.4000
      1      4   1      0.1090 284512.0000
      1      5   1      0.1090 284512.0000
      1      9   1      0.1090 284512.0000
      2      3   1      0.1448 319657.6000
      2      6   1      0.1090 284512.0000
      2     10   1      0.1529 224262.4000
      3      7   1      0.1010 363171.2000
      3      8   1      0.1010 363171.2000
     10     11   1      0.1529 224262.4000
     10     13   1      0.1090 284512.0000
     10     14   1      0.1090 284512.0000
     11     12   1      0.1448 319657.6000
     11     15   1      0.1090 284512.0000
     11     18   1      0.1529 224262.4000
     12     16   1      0.1010 363171.2000
     12     17   1      0.1010 363171.2000
     18     19   1      0.1529 224262.4000
     18     21   1      0.1090 284512.0000
     18     22   1      0.1090 284512.0000
     19     20   1      0.1448 319657.6000
     19     23   1      0.1090 284512.0000
     19     26   1      0.1529 224262.4000
     20     24   1      0.1010 363171.2000
     20     25   1      0.1010 363171.2000
     26     27   1      0.1529 224262.4000
     26     29   1      0.1090 284512.0000
     26     30   1      0.1090 284512.0000
     27     28   1      0.1448 319657.6000
     27     31   1      0.1090 284512.0000
     27     34   1      0.1529 224262.4000
     28     32   1      0.1010 363171.2000
     28     33   1      0.1010 363171.2000
     34     35   1      0.1529 224262.4000
     34     37   1      0.1090 284512.0000
     34     38   1      0.1090 284512.0000
     35     36   1      0.1448 319657.6000
     35     39   1      0.1090 284512.0000
     35     42   1      0.1529 224262.4000
     36     40   1      0.1010 363171.2000
     36     41   1      0.1010 363171.2000
     42     43   1      0.1529 224262.4000
     42     45   1      0.1090 284512.0000
     42     46   1      0.1090 284512.0000
     43     44   1      0.1448 319657.6000
     43     47   1      0.1090 284512.0000
     43     50   1      0.1529 224262.4000
     44     48   1      0.1010 363171.2000
     44     49   1      0.1010 363171.2000
     50     51   1      0.1529 224262.4000
     50     53   1      0.1090 284512.0000
     50     54   1      0.1090 284512.0000
     51     52   1      0.1448 319657.6000
     51     55   1      0.1090 284512.0000
     51     58   1      0.1529 224262.4000
     52     56   1      0.1010 363171.2000
     52     57   1      0.1010 363171.2000
     58     59   1      0.1529 224262.4000
     58     61   1      0.1090 284512.0000
     58     62   1      0.1090 284512.0000
     59     60   1      0.1448 319657.6000
     59     63   1      0.1090 284512.0000
     59     66   1      0.1529 224262.4000
     60     64   1      0.1010 363171.2000
     60     65   1      0.1010 363171.2000
     66     67   1      0.1529 224262.4000
     66     69   1      0.1090 284512.0000
     66     70   1      0.1090 284512.0000
     67     68   1      0.1448 319657.6000
     67     71   1      0.1090 284512.0000
     67     74   1      0.1529 224262.4000
     68     72   1      0.1010 363171.2000
     68     73   1      0.1010 363171.2000
     74     75   1      0.1529 224262.4000
     74     77   1      0.1090 284512.0000
     74     78   1      0.1090 284512.0000
     75     76   1      0.1448 319657.6000
     75     79   1      0.1090 284512.0000
     75     82   1      0.1529 224262.4000
     76     80   1      0.1010 363171.2000
     76     81   1      0.1010 363171.2000
     82     83   1      0.1529 224262.4000
     82     85   1      0.1090 284512.0000
     82     86   1      0.1090 284512.0000
     83     84   1      0.1448 319657.6000
     83     87   1      0.1090 284512.0000
     83     90   1      0.1529 224262.4000
     84     88   1      0.1010 363171.2000
     84     89   1      0.1010 363171.2000
     90     91   1      0.1529 224262.4000
     90     93   1      0.1090 284512.0000
     90     94   1      0.1090 284512.0000
     91     92   1      0.1448 319657.6000
     91     95   1      0.1090 284512.0000
     91     98   1      0.1529 224262.4000
     92     96   1      0.1010 363171.2000
     92     97   1      0.1010 363171.2000
     98     99   1      0.1529 224262.4000
     98    101   1      0.1090 284512.0000
     98    102   1      0.1090 284512.0000
     99    100   1      0.1448 319657.6000
     99    103   1      0.1090 284512.0000
     99    106   1      0.1529 224262.4000
    100    104   1      0.1010 363171.2000
    100    105   1      0.1010 363171.2000
    106    107   1      0.1529 224262.4000
    106    109   1      0.1090 284512.0000
    106    110   1      0.1090 284512.0000
    107    108   1      0.1448 319657.6000
    107    111   1      0.1090 284512.0000
    107    114   1      0.1529 224262.4000
    108    112   1      0.1010 363171.2000
    108    113   1      0.1010 363171.2000
    114    115   1      0.1529 224262.4000
    114    117   1      0.1090 284512.0000
    114    118   1      0.1090 284512.0000
    115    116   1      0.1448 319657.6000
    115    119   1      0.1090 284512.0000
    115    122   1      0.1529 224262.4000
    116    120   1      0.1010 363171.2000
    116    121   1      0.1010 363171.2000
    122    123   1      0.1529 224262.4000
    122    125   1      0.1090 284512.0000
    122    126   1      0.1090 284512.0000
    123    124   1      0.1448 319657.6000
    123    127   1      0.1090 284512.0000
    123    130   1      0.1529 224262.4000
    124    128   1      0.1010 363171.2000
    124    129   1      0.1010 363171.2000
    130    131   1      0.1529 224262.4000
    130    133   1      0.1090 284512.0000
    130    134   1      0.1090 284512.0000
    131    132   1      0.1448 319657.6000
    131    135   1      0.1090 284512.0000
    131    138   1      0.1529 224262.4000
    132    136   1      0.1010 363171.2000
    132    137   1      0.1010 363171.2000
    138    139   1      0.1529 224262.4000
    138    141   1      0.1090 284512.0000
    138    142   1      0.1090 284512.0000
    139    140   1      0.1448 319657.6000
    139    143   1      0.1090 284512.0000
    139    146   1      0.1529 224262.4000
    140    144   1      0.1010 363171.2000
    140    145   1      0.1010 363171.2000
    146    147   1      0.1529 224262.4000
    146    149   1      0.1090 284512.0000
    146    150   1      0.1090 284512.0000
    147    148   1      0.1448 319657.6000
    147    151   1      0.1090 284512.0000
    147    154   1      0.1529 224262.4000
    148    152   1      0.1010 363171.2000
    148    153   1      0.1010 363171.2000
    154    155   1      0.1529 224262.4000
    154    157   1      0.1090 284512.0000
    154    158   1      0.1090 284512.0000
    155    156   1      0.1448 319657.6000
    155    159   1      0.1090 284512.0000
    155    162   1      0.1090 284512.0000
    156    160   1      0.1010 363171.2000
    156    161   1      0.1010 363171.2000

[ pairs ]
; ai   aj   funct   fudge_QQ  charge_i   charge_j   c6    c12
      4      3   2   0.50000     0.0600000   -0.9000000   3.355588e-04  1.884215e-07
      4      6   2   0.50000     0.0600000    0.0600000   4.333791e-05  1.058054e-08
      4     10   2   0.50000     0.0600000   -0.1200000   2.494471e-04  1.671101e-07
      5      3   2   0.50000     0.0600000   -0.9000000   3.355588e-04  1.884215e-07
      5      6   2   0.50000     0.0600000    0.0600000   4.333791e-05  1.058054e-08
      5     10   2   0.50000     0.0600000   -0.1200000   2.494471e-04  1.671101e-07
      9      3   2   0.50000     0.0600000   -0.9000000   3.355588e-04  1.884215e-07
      9      6   2   0.50000     0.0600000    0.0600000   4.333791e-05  1.058054e-08
      9     10   2   0.50000     0.0600000   -0.1200000   2.494471e-04  1.671101e-07
      1      7   2   0.50000    -0.1800000    0.3600000   1.995577e-06  1.069504e-11
      1      8   2   0.50000    -0.1800000    0.3600000   1.995577e-06  1.069504e-11
      6      7   2   0.50000     0.0600000    0.3600000   3.467033e-07  6.771549e-13
      6      8   2   0.50000     0.0600000    0.3600000   3.467033e-07  6.771549e-13
     10      7   2   0.50000    -0.1200000    0.3600000   1.995577e-06  1.069504e-11
     10      8   2   0.50000    -0.1200000    0.3600000   1.995577e-06  1.069504e-11
      1     11   2   0.50000    -0.1800000    0.1200000   1.015252e-03  1.866303e-06
      1     13   2   0.50000    -0.1800000    0.0600000   2.494471e-04  1.671101e-07
      1     14   2   0.50000    -0.1800000    0.0600000   2.494471e-04  1.671101e-07
      3     11   2   0.50000    -0.9000000    0.1200000   1.365727e-03  2.104311e-06
      3     13   2   0.50000    -0.9000000    0.0600000   3.355588e-04  1.884215e-07
      3     14   2   0.50000    -0.9000000    0.0600000   3.355588e-04  1.884215e-07
      6     11   2   0.50000     0.0600000    0.1200000   1.763857e-04  1.181647e-07
      6     13   2   0.50000     0.0600000    0.0600000   4.333791e-05  1.058054e-08
      6     14   2   0.50000     0.0600000    0.0600000   4.333791e-05  1.058054e-08
      2     12   2   0.50000     0.1200000   -0.9000000   1.365727e-03  2.104311e-06
      2     15   2   0.50000     0.1200000    0.0600000   1.763857e-04  1.181647e-07
      2     18   2   0.50000     0.1200000   -0.1200000   1.015252e-03  1.866303e-06
     13     12   2   0.50000     0.0600000   -0.9000000   3.355588e-04  1.884215e-07
     13     15   2   0.50000     0.0600000    0.0600000   4.333791e-05  1.058054e-08
     13     18   2   0.50000     0.0600000   -0.1200000   2.494471e-04  1.671101e-07
     14     12   2   0.50000     0.0600000   -0.9000000   3.355588e-04  1.884215e-07
     14     15   2   0.50000     0.0600000    0.0600000   4.333791e-05  1.058054e-08
     14     18   2   0.50000     0.0600000   -0.1200000   2.494471e-04  1.671101e-07
     10     16   2   0.50000    -0.1200000    0.3600000   1.995577e-06  1.069504e-11
     10     17   2   0.50000    -0.1200000    0.3600000   1.995577e-06  1.069504e-11
     15     16   2   0.50000     0.0600000    0.3600000   3.467033e-07  6.771549e-13
     15     17   2   0.50000     0.0600000    0.3600000   3.467033e-07  6.771549e-13
     18     16   2   0.50000    -0.1200000    0.3600000   1.995577e-06  1.069504e-11
     18     17   2   0.50000    -0.1200000    0.3600000   1.995577e-06  1.069504e-11
     10     19   2   0.50000    -0.1200000    0.1200000   1.015252e-03  1.866303e-06
     10     21   2   0.50000    -0.1200000    0.0600000   2.494471e-04  1.671101e-07
     10     22   2   0.50000    -0.1200000    0.0600000   2.494471e-04  1.671101e-07
     12     19   2   0.50000    -0.9000000    0.1200000   1.365727e-03  2.104311e-06
     12     21   2   0.50000    -0.9000000    0.0600000   3.355588e-04  1.884215e-07
     12     22   2   0.50000    -0.9000000    0.0600000   3.355588e-04  1.884215e-07
     15     19   2   0.50000     0.0600000    0.1200000   1.763857e-04  1.181647e-07
     15     21   2   0.50000     0.0600000    0.0600000   4.333791e-05  1.058054e-08
     15     22   2   0.50000     0.0600000    0.0600000   4.333791e-05  1.058054e-08
     11     20   2   0.50000     0.1200000   -0.9000000   1.365727e-03  2.104311e-06
     11     23   2   0.50000     0.1200000    0.0600000   1.763857e-04  1.181647e-07
     11     26   2   0.50000     0.1200000   -0.1200000   1.015252e-03  1.866303e-06
     21     20   2   0.50000     0.0600000   -0.9000000   3.355588e-04  1.884215e-07
     21     23   2   0.50000     0.0600000    0.0600000   4.333791e-05  1.058054e-08
     21     26   2   0.50000     0.0600000   -0.1200000   2.494471e-04  1.671101e-07
     22     20   2   0.50000     0.0600000   -0.9000000   3.355588e-04  1.884215e-07
     22     23   2   0.50000     0.0600000    0.0600000   4.333791e-05  1.058054e-08
     22     26   2   0.50000     0.0600000   -0.1200000   2.494471e-04  1.671101e-07
     18     24   2   0.50000    -0.1200000    0.3600000   1.995577e-06  1.069504e-11
     18     25   2   0.50000    -0.1200000    0.3600000   1.995577e-06  1.069504e-11
     23     24   2   0.50000     0.0600000    0.3600000   3.467033e-07  6.771549e-13
     23     25   2   0.50000     0.0600000    0.3600000   3.467033e-07  6.771549e-13
     26     24   2   0.50000    -0.1200000    0.3600000   1.995577e-06  1.069504e-11
     26     25   2   0.50000    -0.1200000    0.3600000   1.995577e-06  1.069504e-11
     18     27   2   0.50000    -0.1200000    0.1200000   1.015252e-03  1.866303e-06
     18     29   2   0.50000    -0.1200000    0.0600000   2.494471e-04  1.671101e-07
     18     30   2   0.50000    -0.1200000    0.0600000   2.494471e-04  1.671101e-07
     20     27   2   0.50000    -0.9000000    0.1200000   1.365727e-03  2.104311e-06
     20     29   2   0.50000    -0.9000000    0.0600000   3.355588e-04  1.884215e-07
     20     30   2   0.50000    -0.9000000    0.0600000   3.355588e-04  1.884215e-07
     23     27   2   0.50000     0.0600000    0.1200000   1.763857e-04  1.181647e-07
     23     29   2   0.50000     0.0600000    0.0600000   4.333791e-05  1.058054e-08
     23     30   2   0.50000     0.0600000    0.0600000   4.333791e-05  1.058054e-08
     19     28   2   0.50000     0.1200000   -0.9000000   1.365727e-03  2.104311e-06
     19     31   2   0.50000     0.1200000    0.0600000   1.763857e-04  1.181647e-07
     19     34   2   0.50000     0.1200000   -0.1200000   1.015252e-03  1.866303e-06
     29     28   2   0.50000     0.0600000   -0.9000000   3.355588e-04  1.884215e-07
     29     31   2   0.50000     0.0600000    0.0600000   4.333791e-05  1.058054e-08
     29     34   2   0.50000     0.0600000   -0.1200000   2.494471e-04  1.671101e-07
     30     28   2   0.50000     0.0600000   -0.9000000   3.355588e-04  1.884215e-07
     30     31   2   0.50000     0.0600000    0.0600000   4.333791e-05  1.058054e-08
     30     34   2   0.50000     0.0600000   -0.1200000   2.494471e-04  1.671101e-07
     26     32   2   0.50000    -0.1200000    0.3600000   1.995577e-06  1.069504e-11
     26     33   2   0.50000    -0.1200000    0.3600000   1.995577e-06  1.069504e-11
     31     32   2   0.50000     0.0600000    0.3600000   3.467033e-07  6.771549e-13
     31     33   2   0.50000     0.0600000    0.3600000   3.467033e-07  6.771549e-13
     34     32   2   0.50000    -0.1200000    0.3600000   1.995577e-06  1.069504e-11
     34     33   2   0.50000    -0.1200000    0.3600000   1.995577e-06  1.069504e-11
     26     35   2   0.50000    -0.1200000    0.1200000   1.015252e-03  1.866303e-06
     26     37   2   0.50000    -0.1200000    0.0600000   2.494471e-04  1.671101e-07
     26     38   2   0.50000    -0.1200000    0.0600000   2.494471e-04  1.671101e-07
     28     35   2   0.50000    -0.9000000    0.1200000   1.365727e-03  2.104311e-06
     28     37   2   0.50000    -0.9000000    0.0600000   3.355588e-04  1.884215e-07
     28     38   2   0.50000    -0.9000000    0.0600000   3.355588e-04  1.884215e-07
     31     35   2   0.50000     0.0600000    0.1200000   1.763857e-04  1.181647e-07
     31     37   2   0.50000     0.0600000    0.0600000   4.333791e-05  1.058054e-08
     31     38   2   0.50000     0.0600000    0.0600000   4.333791e-05  1.058054e-08
     27     36   2   0.50000     0.1200000   -0.9000000   1.365727e-03  2.104311e-06
     27     39   2   0.50000     0.1200000    0.0600000   1.763857e-04  1.181647e-07
     27     42   2   0.50000     0.1200000   -0.1200000   1.015252e-03  1.866303e-06
     37     36   2   0.50000     0.0600000   -0.9000000   3.355588e-04  1.884215e-07
     37     39   2   0.50000     0.0600000    0.0600000   4.333791e-05  1.058054e-08
     37     42   2   0.50000     0.0600000   -0.1200000   2.494471e-04  1.671101e-07
     38     36   2   0.50000     0.0600000   -0.9000000   3.355588e-04  1.884215e-07
     38     39   2   0.50000     0.0600000    0.0600000   4.333791e-05  1.058054e-08
     38     42   2   0.50000     0.0600000   -0.1200000   2.494471e-04  1.671101e-07
     34     40   2   0.50000    -0.1200000    0.3600000   1.995577e-06  1.069504e-11
     34     41   2   0.50000    -0.1200000    0.3600000   1.995577e-06  1.069504e-11
     39     40   2   0.50000     0.0600000    0.3600000   3.467033e-07  6.771549e-13
     39     41   2   0.50000     0.0600000    0.3600000   3.467033e-07  6.771549e-13
     42     40   2   0.50000    -0.1200000    0.3600000   1.995577e-06  1.069504e-11
     42     41   2   0.50000    -0.1200000    0.3600000   1.995577e-06  1.069504e-11
     34     43   2   0.50000    -0.1200000    0.1200000   1.015252e-03  1.866303e-06
     34     45   2   0.50000    -0.1200000    0.0600000   2.494471e-04  1.671101e-07
     34     46   2   0.50000    -0.1200000    0.0600000   2.494471e-04  1.671101e-07
     36     43   2   0.50000    -0.9000000    0.1200000   1.365727e-03  2.104311e-06
     36     45   2   0.50000    -0.9000000    0.0600000   3.355588e-04  1.884215e-07
     36     46   2   0.50000    -0.9000000    0.0600000   3.355588e-04  1.884215e-07
     39     43   2   0.50000     0.0600000    0.1200000   1.763857e-04  1.181647e-07
     39     45   2   0.50000     0.0600000    0.0600000   4.333791e-05  1.058054e-08
     39     46   2   0.50000     0.0600000    0.0600000   4.333791e-05  1.058054e-08
     35     44   2   0.50000     0.1200000   -0.9000000   1.365727e-03  2.104311e-06
     35     47   2   0.50000     0.1200000    0.0600000   1.763857e-04  1.181647e-07
     35     50   2   0.50000     0.1200000   -0.1200000   1.015252e-03  1.866303e-06
     45     44   2   0.50000     0.0600000   -0.9000000   3.355588e-04  1.884215e-07
     45     47   2   0.50000     0.0600000    0.0600000   4.333791e-05  1.058054e-08
     45     50   2   0.50000     0.0600000   -0.1200000   2.494471e-04  1.671101e-07
     46     44   2   0.50000     0.0600000   -0.9000000   3.355588e-04  1.884215e-07
     46     47   2   0.50000     0.0600000    0.0600000   4.333791e-05  1.058054e-08
     46     50   2   0.50000     0.0600000   -0.1200000   2.494471e-04  1.671101e-07
     42     48   2   0.50000    -0.1200000    0.3600000   1.995577e-06  1.069504e-11
     42     49   2   0.50000    -0.1200000    0.3600000   1.995577e-06  1.069504e-11
     47     48   2   0.50000     0.0600000    0.3600000   3.467033e-07  6.771549e-13
     47     49   2   0.50000     0.0600000    0.3600000   3.467033e-07  6.771549e-13
     50     48   2   0.50000    -0.1200000    0.3600000   1.995577e-06  1.069504e-11
     50     49   2   0.50000    -0.1200000    0.3600000   1.995577e-06  1.069504e-11
     42     51   2   0.50000    -0.1200000    0.1200000   1.015252e-03  1.866303e-06
     42     53   2   0.50000    -0.1200000    0.0600000   2.494471e-04  1.671101e-07
     42     54   2   0.50000    -0.1200000    0.0600000   2.494471e-04  1.671101e-07
     44     51   2   0.50000    -0.9000000    0.1200000   1.365727e-03  2.104311e-06
     44     53   2   0.50000    -0.9000000    0.0600000   3.355588e-04  1.884215e-07
     44     54   2   0.50000    -0.9000000    0.0600000   3.355588e-04  1.884215e-07
     47     51   2   0.50000     0.0600000    0.1200000   1.763857e-04  1.181647e-07
     47     53   2   0.50000     0.0600000    0.0600000   4.333791e-05  1.058054e-08
     47     54   2   0.50000     0.0600000    0.0600000   4.333791e-05  1.058054e-08
     43     52   2   0.50000     0.1200000   -0.9000000   1.365727e-03  2.104311e-06
     43     55   2   0.50000     0.1200000    0.0600000   1.763857e-04  1.181647e-07
     43     58   2   0.50000     0.1200000   -0.1200000   1.015252e-03  1.866303e-06
     53     52   2   0.50000     0.0600000   -0.9000000   3.355588e-04  1.884215e-07
     53     55   2   0.50000     0.0600000    0.0600000   4.333791e-05  1.058054e-08
     53     58   2   0.50000     0.0600000   -0.1200000   2.494471e-04  1.671101e-07
     54     52   2   0.50000     0.0600000   -0.9000000   3.355588e-04  1.884215e-07
     54     55   2   0.50000     0.0600000    0.0600000   4.333791e-05  1.058054e-08
     54     58   2   0.50000     0.0600000   -0.1200000   2.494471e-04  1.671101e-07
     50     56   2   0.50000    -0.1200000    0.3600000   1.995577e-06  1.069504e-11
     50     57   2   0.50000    -0.1200000    0.3600000   1.995577e-06  1.069504e-11
     55     56   2   0.50000     0.0600000    0.3600000   3.467033e-07  6.771549e-13
     55     57   2   0.50000     0.0600000    0.3600000   3.467033e-07  6.771549e-13
     58     56   2   0.50000    -0.1200000    0.3600000   1.995577e-06  1.069504e-11
     58     57   2   0.50000    -0.1200000    0.3600000   1.995577e-06  1.069504e-11
     50     59   2   0.50000    -0.1200000    0.1200000   1.015252e-03  1.866303e-06
     50     61   2   0.50000    -0.1200000    0.0600000   2.494471e-04  1.671101e-07
     50     62   2   0.50000    -0.1200000    0.0600000   2.494471e-04  1.671101e-07
     52     59   2   0.50000    -0.9000000    0.1200000   1.365727e-03  2.104311e-06
     52     61   2   0.50000    -0.9000000    0.0600000   3.355588e-04  1.884215e-07
     52     62   2   0.50000    -0.9000000    0.0600000   3.355588e-04  1.884215e-07
     55     59   2   0.50000     0.0600000    0.1200000   1.763857e-04  1.181647e-07
     55     61   2   0.50000     0.0600000    0.0600000   4.333791e-05  1.058054e-08
     55     62   2   0.50000     0.0600000    0.0600000   4.333791e-05  1.058054e-08
     51     60   2   0.50000     0.1200000   -0.9000000   1.365727e-03  2.104311e-06
     51     63   2   0.50000     0.1200000    0.0600000   1.763857e-04  1.181647e-07
     51     66   2   0.50000     0.1200000   -0.1200000   1.015252e-03  1.866303e-06
     61     60   2   0.50000     0.0600000   -0.9000000   3.355588e-04  1.884215e-07
     61     63   2   0.50000     0.0600000    0.0600000   4.333791e-05  1.058054e-08
     61     66   2   0.50000     0.0600000   -0.1200000   2.494471e-04  1.671101e-07
     62     60   2   0.50000     0.0600000   -0.9000000   3.355588e-04  1.884215e-07
     62     63   2   0.50000     0.0600000    0.0600000   4.333791e-05  1.058054e-08
     62     66   2   0.50000     0.0600000   -0.1200000   2.494471e-04  1.671101e-07
     58     64   2   0.50000    -0.1200000    0.3600000   1.995577e-06  1.069504e-11
     58     65   2   0.50000    -0.1200000    0.3600000   1.995577e-06  1.069504e-11
     63     64   2   0.50000     0.0600000    0.3600000   3.467033e-07  6.771549e-13
     63     65   2   0.50000     0.0600000    0.3600000   3.467033e-07  6.771549e-13
     66     64   2   0.50000    -0.1200000    0.3600000   1.995577e-06  1.069504e-11
     66     65   2   0.50000    -0.1200000    0.3600000   1.995577e-06  1.069504e-11
     58     67   2   0.50000    -0.1200000    0.1200000   1.015252e-03  1.866303e-06
     58     69   2   0.50000    -0.1200000    0.0600000   2.494471e-04  1.671101e-07
     58     70   2   0.50000    -0.1200000    0.0600000   2.494471e-04  1.671101e-07
     60     67   2   0.50000    -0.9000000    0.1200000   1.365727e-03  2.104311e-06
     60     69   2   0.50000    -0.9000000    0.0600000   3.355588e-04  1.884215e-07
     60     70   2   0.50000    -0.9000000    0.0600000   3.355588e-04  1.884215e-07
     63     67   2   0.50000     0.0600000    0.1200000   1.763857e-04  1.181647e-07
     63     69   2   0.50000     0.0600000    0.0600000   4.333791e-05  1.058054e-08
     63     70   2   0.50000     0.0600000    0.0600000   4.333791e-05  1.058054e-08
     59     68   2   0.50000     0.1200000   -0.9000000   1.365727e-03  2.104311e-06
     59     71   2   0.50000     0.1200000    0.0600000   1.763857e-04  1.181647e-07
     59     74   2   0.50000     0.1200000   -0.1200000   1.015252e-03  1.866303e-06
     69     68   2   0.50000     0.0600000   -0.9000000   3.355588e-04  1.884215e-07
     69     71   2   0.50000     0.0600000    0.0600000   4.333791e-05  1.058054e-08
     69     74   2   0.50000     0.0600000   -0.1200000   2.494471e-04  1.671101e-07
     70     68   2   0.50000     0.0600000   -0.9000000   3.355588e-04  1.884215e-07
     70     71   2   0.50000     0.0600000    0.0600000   4.333791e-05  1.058054e-08
     70     74   2   0.50000     0.0600000   -0.1200000   2.494471e-04  1.671101e-07
     66     72   2   0.50000    -0.1200000    0.3600000   1.995577e-06  1.069504e-11
     66     73   2   0.50000    -0.1200000    0.3600000   1.995577e-06  1.069504e-11
     71     72   2   0.50000     0.0600000    0.3600000   3.467033e-07  6.771549e-13
     71     73   2   0.50000     0.0600000    0.3600000   3.467033e-07  6.771549e-13
     74     72   2   0.50000    -0.1200000    0.3600000   1.995577e-06  1.069504e-11
     74     73   2   0.50000    -0.1200000    0.3600000   1.995577e-06  1.069504e-11
     66     75   2   0.50000    -0.1200000    0.1200000   1.015252e-03  1.866303e-06
     66     77   2   0.50000    -0.1200000    0.0600000   2.494471e-04  1.671101e-07
     66     78   2   0.50000    -0.1200000    0.0600000   2.494471e-04  1.671101e-07
     68     75   2   0.50000    -0.9000000    0.1200000   1.365727e-03  2.104311e-06
     68     77   2   0.50000    -0.9000000    0.0600000   3.355588e-04  1.884215e-07
     68     78   2   0.50000    -0.9000000    0.0600000   3.355588e-04  1.884215e-07
     71     75   2   0.50000     0.0600000    0.1200000   1.763857e-04  1.181647e-07
     71     77   2   0.50000     0.0600000    0.0600000   4.333791e-05  1.058054e-08
     71     78   2   0.50000     0.0600000    0.0600000   4.333791e-05  1.058054e-08
     67     76   2   0.50000     0.1200000   -0.9000000   1.365727e-03  2.104311e-06
     67     79   2   0.50000     0.1200000    0.0600000   1.763857e-04  1.181647e-07
     67     82   2   0.50000     0.1200000   -0.1200000   1.015252e-03  1.866303e-06
     77     76   2   0.50000     0.0600000   -0.9000000   3.355588e-04  1.884215e-07
     77     79   2   0.50000     0.0600000    0.0600000   4.333791e-05  1.058054e-08
     77     82   2   0.50000     0.0600000   -0.1200000   2.494471e-04  1.671101e-07
     78     76   2   0.50000     0.0600000   -0.9000000   3.355588e-04  1.884215e-07
     78     79   2   0.50000     0.0600000    0.0600000   4.333791e-05  1.058054e-08
     78     82   2   0.50000     0.0600000   -0.1200000   2.494471e-04  1.671101e-07
     74     80   2   0.50000    -0.1200000    0.3600000   1.995577e-06  1.069504e-11
     74     81   2   0.50000    -0.1200000    0.3600000   1.995577e-06  1.069504e-11
     79     80   2   0.50000     0.0600000    0.3600000   3.467033e-07  6.771549e-13
     79     81   2   0.50000     0.0600000    0.3600000   3.467033e-07  6.771549e-13
     82     80   2   0.50000    -0.1200000    0.3600000   1.995577e-06  1.069504e-11
     82     81   2   0.50000    -0.1200000    0.3600000   1.995577e-06  1.069504e-11
     74     83   2   0.50000    -0.1200000    0.1200000   1.015252e-03  1.866303e-06
     74     85   2   0.50000    -0.1200000    0.0600000   2.494471e-04  1.671101e-07
     74     86   2   0.50000    -0.1200000    0.0600000   2.494471e-04  1.671101e-07
     76     83   2   0.50000    -0.9000000    0.1200000   1.365727e-03  2.104311e-06
     76     85   2   0.50000    -0.9000000    0.0600000   3.355588e-04  1.884215e-07
     76     86   2   0.50000    -0.9000000    0.0600000   3.355588e-04  1.884215e-07
     79     83   2   0.50000     0.0600000    0.1200000   1.763857e-04  1.181647e-07
     79     85   2   0.50000     0.0600000    0.0600000   4.333791e-05  1.058054e-08
     79     86   2   0.50000     0.0600000    0.0600000   4.333791e-05  1.058054e-08
     75     84   2   0.50000     0.1200000   -0.9000000   1.365727e-03  2.104311e-06
     75     87   2   0.50000     0.1200000    0.0600000   1.763857e-04  1.181647e-07
     75     90   2   0.50000     0.1200000   -0.1200000   1.015252e-03  1.866303e-06
     85     84   2   0.50000     0.0600000   -0.9000000   3.355588e-04  1.884215e-07
     85     87   2   0.50000     0.0600000    0.0600000   4.333791e-05  1.058054e-08
     85     90   2   0.50000     0.0600000   -0.1200000   2.494471e-04  1.671101e-07
     86     84   2   0.50000     0.0600000   -0.9000000   3.355588e-04  1.884215e-07
     86     87   2   0.50000     0.0600000    0.0600000   4.333791e-05  1.058054e-08
     86     90   2   0.50000     0.0600000   -0.1200000   2.494471e-04  1.671101e-07
     82     88   2   0.50000    -0.1200000    0.3600000   1.995577e-06  1.069504e-11
     82     89   2   0.50000    -0.1200000    0.3600000   1.995577e-06  1.069504e-11
     87     88   2   0.50000     0.0600000    0.3600000   3.467033e-07  6.771549e-13
     87     89   2   0.50000     0.0600000    0.3600000   3.467033e-07  6.771549e-13
     90     88   2   0.50000    -0.1200000    0.3600000   1.995577e-06  1.069504e-11
     90     89   2   0.50000    -0.1200000    0.3600000   1.995577e-06  1.069504e-11
     82     91   2   0.50000    -0.1200000    0.1200000   1.015252e-03  1.866303e-06
     82     93   2   0.50000    -0.1200000    0.0600000   2.494471e-04  1.671101e-07
     82     94   2   0.50000    -0.1200000    0.0600000   2.494471e-04  1.671101e-07
     84     91   2   0.50000    -0.9000000    0.1200000   1.365727e-03  2.104311e-06
     84     93   2   0.50000    -0.9000000    0.0600000   3.355588e-04  1.884215e-07
     84     94   2   0.50000    -0.9000000    0.0600000   3.355588e-04  1.884215e-07
     87     91   2   0.50000     0.0600000    0.1200000   1.763857e-04  1.181647e-07
     87     93   2   0.50000     0.0600000    0.0600000   4.333791e-05  1.058054e-08
     87     94   2   0.50000     0.0600000    0.0600000   4.333791e-05  1.058054e-08
     83     92   2   0.50000     0.1200000   -0.9000000   1.365727e-03  2.104311e-06
     83     95   2   0.50000     0.1200000    0.0600000   1.763857e-04  1.181647e-07
     83     98   2   0.50000     0.1200000   -0.1200000   1.015252e-03  1.866303e-06
     93     92   2   0.50000     0.0600000   -0.9000000   3.355588e-04  1.884215e-07
     93     95   2   0.50000     0.0600000    0.0600000   4.333791e-05  1.058054e-08
     93     98   2   0.50000     0.0600000   -0.1200000   2.494471e-04  1.671101e-07
     94     92   2   0.50000     0.0600000   -0.9000000   3.355588e-04  1.884215e-07
     94     95   2   0.50000     0.0600000    0.0600000   4.333791e-05  1.058054e-08
     94     98   2   0.50000     0.0600000   -0.1200000   2.494471e-04  1.671101e-07
     90     96   2   0.50000    -0.1200000    0.3600000   1.995577e-06  1.069504e-11
     90     97   2   0.50000    -0.1200000    0.3600000   1.995577e-06  1.069504e-11
     95     96   2   0.50000     0.0600000    0.3600000   3.467033e-07  6.771549e-13
     95     97   2   0.50000     0.0600000    0.3600000   3.467033e-07  6.771549e-13
     98     96   2   0.50000    -0.1200000    0.3600000   1.995577e-06  1.069504e-11
     98     97   2   0.50000    -0.1200000    0.3600000   1.995577e-06  1.069504e-11
     90     99   2   0.50000    -0.1200000    0.1200000   1.015252e-03  1.866303e-06
     90    101   2   0.50000    -0.1200000    0.0600000   2.494471e-04  1.671101e-07
     90    102   2   0.50000    -0.1200000    0.0600000   2.494471e-04  1.671101e-07
     92     99   2   0.50000    -0.9000000    0.1200000   1.365727e-03  2.104311e-06
     92    101   2   0.50000    -0.9000000    0.0600000   3.355588e-04  1.884215e-07
     92    102   2   0.50000    -0.9000000    0.0600000   3.355588e-04  1.884215e-07
     95     99   2   0.50000     0.0600000    0.1200000   1.763857e-04  1.181647e-07
     95    101   2   0.50000     0.0600000    0.0600000   4.333791e-05  1.058054e-08
     95    102   2   0.50000     0.0600000    0.0600000   4.333791e-05  1.058054e-08
     91    100   2   0.50000     0.1200000   -0.9000000   1.365727e-03  2.104311e-06
     91    103   2   0.50000     0.1200000    0.0600000   1.763857e-04  1.181647e-07
     91    106   2   0.50000     0.1200000   -0.1200000   1.015252e-03  1.866303e-06
    101    100   2   0.50000     0.0600000   -0.9000000   3.355588e-04  1.884215e-07
    101    103   2   0.50000     0.0600000    0.0600000   4.333791e-05  1.058054e-08
    101    106   2   0.50000     0.0600000   -0.1200000   2.494471e-04  1.671101e-07
    102    100   2   0.50000     0.0600000   -0.9000000   3.355588e-04  1.884215e-07
    102    103   2   0.50000     0.0600000    0.0600000   4.333791e-05  1.058054e-08
    102    106   2   0.50000     0.0600000   -0.1200000   2.494471e-04  1.671101e-07
     98    104   2   0.50000    -0.1200000    0.3600000   1.995577e-06  1.069504e-11
     98    105   2   0.50000    -0.1200000    0.3600000   1.995577e-06  1.069504e-11
    103    104   2   0.50000     0.0600000    0.3600000   3.467033e-07  6.771549e-13
    103    105   2   0.50000     0.0600000    0.3600000   3.467033e-07  6.771549e-13
    106    104   2   0.50000    -0.1200000    0.3600000   1.995577e-06  1.069504e-11
    106    105   2   0.50000    -0.1200000    0.3600000   1.995577e-06  1.069504e-11
     98    107   2   0.50000    -0.1200000    0.1200000   1.015252e-03  1.866303e-06
     98    109   2   0.50000    -0.1200000    0.0600000   2.494471e-04  1.671101e-07
     98    110   2   0.50000    -0.1200000    0.0600000   2.494471e-04  1.671101e-07
    100    107   2   0.50000    -0.9000000    0.1200000   1.365727e-03  2.104311e-06
    100    109   2   0.50000    -0.9000000    0.0600000   3.355588e-04  1.884215e-07
    100    110   2   0.50000    -0.9000000    0.0600000   3.355588e-04  1.884215e-07
    103    107   2   0.50000     0.0600000    0.1200000   1.763857e-04  1.181647e-07
    103    109   2   0.50000     0.0600000    0.0600000   4.333791e-05  1.058054e-08
    103    110   2   0.50000     0.0600000    0.0600000   4.333791e-05  1.058054e-08
     99    108   2   0.50000     0.1200000   -0.9000000   1.365727e-03  2.104311e-06
     99    111   2   0.50000     0.1200000    0.0600000   1.763857e-04  1.181647e-07
     99    114   2   0.50000     0.1200000   -0.1200000   1.015252e-03  1.866303e-06
    109    108   2   0.50000     0.0600000   -0.9000000   3.355588e-04  1.884215e-07
    109    111   2   0.50000     0.0600000    0.0600000   4.333791e-05  1.058054e-08
    109    114   2   0.50000     0.0600000   -0.1200000   2.494471e-04  1.671101e-07
    110    108   2   0.50000     0.0600000   -0.9000000   3.355588e-04  1.884215e-07
    110    111   2   0.50000     0.0600000    0.0600000   4.333791e-05  1.058054e-08
    110    114   2   0.50000     0.0600000   -0.1200000   2.494471e-04  1.671101e-07
    106    112   2   0.50000    -0.1200000    0.3600000   1.995577e-06  1.069504e-11
    106    113   2   0.50000    -0.1200000    0.3600000   1.995577e-06  1.069504e-11
    111    112   2   0.50000     0.0600000    0.3600000   3.467033e-07  6.771549e-13
    111    113   2   0.50000     0.0600000    0.3600000   3.467033e-07  6.771549e-13
    114    112   2   0.50000    -0.1200000    0.3600000   1.995577e-06  1.069504e-11
    114    113   2   0.50000    -0.1200000    0.3600000   1.995577e-06  1.069504e-11
    106    115   2   0.50000    -0.1200000    0.1200000   1.015252e-03  1.866303e-06
    106    117   2   0.50000    -0.1200000    0.0600000   2.494471e-04  1.671101e-07
    106    118   2   0.50000    -0.1200000    0.0600000   2.494471e-04  1.671101e-07
    108    115   2   0.50000    -0.9000000    0.1200000   1.365727e-03  2.104311e-06
    108    117   2   0.50000    -0.9000000    0.0600000   3.355588e-04  1.884215e-07
    108    118   2   0.50000    -0.9000000    0.0600000   3.355588e-04  1.884215e-07
    111    115   2   0.50000     0.0600000    0.1200000   1.763857e-04  1.181647e-07
    111    117   2   0.50000     0.0600000    0.0600000   4.333791e-05  1.058054e-08
    111    118   2   0.50000     0.0600000    0.0600000   4.333791e-05  1.058054e-08
    107    116   2   0.50000     0.1200000   -0.9000000   1.365727e-03  2.104311e-06
    107    119   2   0.50000     0.1200000    0.0600000   1.763857e-04  1.181647e-07
    107    122   2   0.50000     0.1200000   -0.1200000   1.015252e-03  1.866303e-06
    117    116   2   0.50000     0.0600000   -0.9000000   3.355588e-04  1.884215e-07
    117    119   2   0.50000     0.0600000    0.0600000   4.333791e-05  1.058054e-08
    117    122   2   0.50000     0.0600000   -0.1200000   2.494471e-04  1.671101e-07
    118    116   2   0.50000     0.0600000   -0.9000000   3.355588e-04  1.884215e-07
    118    119   2   0.50000     0.0600000    0.0600000   4.333791e-05  1.058054e-08
    118    122   2   0.50000     0.0600000   -0.1200000   2.494471e-04  1.671101e-07
    114    120   2   0.50000    -0.1200000    0.3600000   1.995577e-06  1.069504e-11
    114    121   2   0.50000    -0.1200000    0.3600000   1.995577e-06  1.069504e-11
    119    120   2   0.50000     0.0600000    0.3600000   3.467033e-07  6.771549e-13
    119    121   2   0.50000     0.0600000    0.3600000   3.467033e-07  6.771549e-13
    122    120   2   0.50000    -0.1200000    0.3600000   1.995577e-06  1.069504e-11
    122    121   2   0.50000    -0.1200000    0.3600000   1.995577e-06  1.069504e-11
    114    123   2   0.50000    -0.1200000    0.1200000   1.015252e-03  1.866303e-06
    114    125   2   0.50000    -0.1200000    0.0600000   2.494471e-04  1.671101e-07
    114    126   2   0.50000    -0.1200000    0.0600000   2.494471e-04  1.671101e-07
    116    123   2   0.50000    -0.9000000    0.1200000   1.365727e-03  2.104311e-06
    116    125   2   0.50000    -0.9000000    0.0600000   3.355588e-04  1.884215e-07
    116    126   2   0.50000    -0.9000000    0.0600000   3.355588e-04  1.884215e-07
    119    123   2   0.50000     0.0600000    0.1200000   1.763857e-04  1.181647e-07
    119    125   2   0.50000     0.0600000    0.0600000   4.333791e-05  1.058054e-08
    119    126   2   0.50000     0.0600000    0.0600000   4.333791e-05  1.058054e-08
    115    124   2   0.50000     0.1200000   -0.9000000   1.365727e-03  2.104311e-06
    115    127   2   0.50000     0.1200000    0.0600000   1.763857e-04  1.181647e-07
    115    130   2   0.50000     0.1200000   -0.1200000   1.015252e-03  1.866303e-06
    125    124   2   0.50000     0.0600000   -0.9000000   3.355588e-04  1.884215e-07
    125    127   2   0.50000     0.0600000    0.0600000   4.333791e-05  1.058054e-08
    125    130   2   0.50000     0.0600000   -0.1200000   2.494471e-04  1.671101e-07
    126    124   2   0.50000     0.0600000   -0.9000000   3.355588e-04  1.884215e-07
    126    127   2   0.50000     0.0600000    0.0600000   4.333791e-05  1.058054e-08
    126    130   2   0.50000     0.0600000   -0.1200000   2.494471e-04  1.671101e-07
    122    128   2   0.50000    -0.1200000    0.3600000   1.995577e-06  1.069504e-11
    122    129   2   0.50000    -0.1200000    0.3600000   1.995577e-06  1.069504e-11
    127    128   2   0.50000     0.0600000    0.3600000   3.467033e-07  6.771549e-13
    127    129   2   0.50000     0.0600000    0.3600000   3.467033e-07  6.771549e-13
    130    128   2   0.50000    -0.1200000    0.3600000   1.995577e-06  1.069504e-11
    130    129   2   0.50000    -0.1200000    0.3600000   1.995577e-06  1.069504e-11
    122    131   2   0.50000    -0.1200000    0.1200000   1.015252e-03  1.866303e-06
    122    133   2   0.50000    -0.1200000    0.0600000   2.494471e-04  1.671101e-07
    122    134   2   0.50000    -0.1200000    0.0600000   2.494471e-04  1.671101e-07
    124    131   2   0.50000    -0.9000000    0.1200000   1.365727e-03  2.104311e-06
    124    133   2   0.50000    -0.9000000    0.0600000   3.355588e-04  1.884215e-07
    124    134   2   0.50000    -0.9000000    0.0600000   3.355588e-04  1.884215e-07
    127    131   2   0.50000     0.0600000    0.1200000   1.763857e-04  1.181647e-07
    127    133   2   0.50000     0.0600000    0.0600000   4.333791e-05  1.058054e-08
    127    134   2   0.50000     0.0600000    0.0600000   4.333791e-05  1.058054e-08
    123    132   2   0.50000     0.1200000   -0.9000000   1.365727e-03  2.104311e-06
    123    135   2   0.50000     0.1200000    0.0600000   1.763857e-04  1.181647e-07
    123    138   2   0.50000     0.1200000   -0.1200000   1.015252e-03  1.866303e-06
    133    132   2   0.50000     0.0600000   -0.9000000   3.355588e-04  1.884215e-07
    133    135   2   0.50000     0.0600000    0.0600000   4.333791e-05  1.058054e-08
    133    138   2   0.50000     0.0600000   -0.1200000   2.494471e-04  1.671101e-07
    134    132   2   0.50000     0.0600000   -0.9000000   3.355588e-04  1.884215e-07
    134    135   2   0.50000     0.0600000    0.0600000   4.333791e-05  1.058054e-08
    134    138   2   0.50000     0.0600000   -0.1200000   2.494471e-04  1.671101e-07
    130    136   2   0.50000    -0.1200000    0.3600000   1.995577e-06  1.069504e-11
    130    137   2   0.50000    -0.1200000    0.3600000   1.995577e-06  1.069504e-11
    135    136   2   0.50000     0.0600000    0.3600000   3.467033e-07  6.771549e-13
    135    137   2   0.50000     0.0600000    0.3600000   3.467033e-07  6.771549e-13
    138    136   2   0.50000    -0.1200000    0.3600000   1.995577e-06  1.069504e-11
    138    137   2   0.50000    -0.1200000    0.3600000   1.995577e-06  1.069504e-11
    130    139   2   0.50000    -0.1200000    0.1200000   1.015252e-03  1.866303e-06
    130    141   2   0.50000    -0.1200000    0.0600000   2.494471e-04  1.671101e-07
    130    142   2   0.50000    -0.1200000    0.0600000   2.494471e-04  1.671101e-07
    132    139   2   0.50000    -0.9000000    0.1200000   1.365727e-03  2.104311e-06
    132    141   2   0.50000    -0.9000000    0.0600000   3.355588e-04  1.884215e-07
    132    142   2   0.50000    -0.9000000    0.0600000   3.355588e-04  1.884215e-07
    135    139   2   0.50000     0.0600000    0.1200000   1.763857e-04  1.181647e-07
    135    141   2   0.50000     0.0600000    0.0600000   4.333791e-05  1.058054e-08
    135    142   2   0.50000     0.0600000    0.0600000   4.333791e-05  1.058054e-08
    131    140   2   0.50000     0.1200000   -0.9000000   1.365727e-03  2.104311e-06
    131    143   2   0.50000     0.1200000    0.0600000   1.763857e-04  1.181647e-07
    131    146   2   0.50000     0.1200000   -0.1200000   1.015252e-03  1.866303e-06
    141    140   2   0.50000     0.0600000   -0.9000000   3.355588e-04  1.884215e-07
    141    143   2   0.50000     0.0600000    0.0600000   4.333791e-05  1.058054e-08
    141    146   2   0.50000     0.0600000   -0.1200000   2.494471e-04  1.671101e-07
    142    140   2   0.50000     0.0600000   -0.9000000   3.355588e-04  1.884215e-07
    142    143   2   0.50000     0.0600000    0.0600000   4.333791e-05  1.058054e-08
    142    146   2   0.50000     0.0600000   -0.1200000   2.494471e-04  1.671101e-07
    138    144   2   0.50000    -0.1200000    0.3600000   1.995577e-06  1.069504e-11
    138    145   2   0.50000    -0.1200000    0.3600000   1.995577e-06  1.069504e-11
    143    144   2   0.50000     0.0600000    0.3600000   3.467033e-07  6.771549e-13
    143    145   2   0.50000     0.0600000    0.3600000   3.467033e-07  6.771549e-13
    146    144   2   0.50000    -0.1200000    0.3600000   1.995577e-06  1.069504e-11
    146    145   2   0.50000    -0.1200000    0.3600000   1.995577e-06  1.069504e-11
    138    147   2   0.50000    -0.1200000    0.1200000   1.015252e-03  1.866303e-06
    138    149   2   0.50000    -0.1200000    0.0600000   2.494471e-04  1.671101e-07
    138    150   2   0.50000    -0.1200000    0.0600000   2.494471e-04  1.671101e-07
    140    147   2   0.50000    -0.9000000    0.1200000   1.365727e-03  2.104311e-06
    140    149   2   0.50000    -0.9000000    0.0600000   3.355588e-04  1.884215e-07
    140    150   2   0.50000    -0.9000000    0.0600000   3.355588e-04  1.884215e-07
    143    147   2   0.50000     0.0600000    0.1200000   1.763857e-04  1.181647e-07
    143    149   2   0.50000     0.0600000    0.0600000   4.333791e-05  1.058054e-08
    143    150   2   0.50000     0.0600000    0.0600000   4.333791e-05  1.058054e-08
    139    148   2   0.50000     0.1200000   -0.9000000   1.365727e-03  2.104311e-06
    139    151   2   0.50000     0.1200000    0.0600000   1.763857e-04  1.181647e-07
    139    154   2   0.50000     0.1200000   -0.1200000   1.015252e-03  1.866303e-06
    149    148   2   0.50000     0.0600000   -0.9000000   3.355588e-04  1.884215e-07
    149    151   2   0.50000     0.0600000    0.0600000   4.333791e-05  1.058054e-08
    149    154   2   0.50000     0.0600000   -0.1200000   2.494471e-04  1.671101e-07
    150    148   2   0.50000     0.0600000   -0.9000000   3.355588e-04  1.884215e-07
    150    151   2   0.50000     0.0600000    0.0600000   4.333791e-05  1.058054e-08
    150    154   2   0.50000     0.0600000   -0.1200000   2.494471e-04  1.671101e-07
    146    152   2   0.50000    -0.1200000    0.3600000   1.995577e-06  1.069504e-11
    146    153   2   0.50000    -0.1200000    0.3600000   1.995577e-06  1.069504e-11
    151    152   2   0.50000     0.0600000    0.3600000   3.467033e-07  6.771549e-13
    151    153   2   0.50000     0.0600000    0.3600000   3.467033e-07  6.771549e-13
    154    152   2   0.50000    -0.1200000    0.3600000   1.995577e-06  1.069504e-11
    154    153   2   0.50000    -0.1200000    0.3600000   1.995577e-06  1.069504e-11
    146    155   2   0.50000    -0.1200000    0.0600000   1.015252e-03  1.866303e-06
    146    157   2   0.50000    -0.1200000    0.0600000   2.494471e-04  1.671101e-07
    146    158   2   0.50000    -0.1200000    0.0600000   2.494471e-04  1.671101e-07
    148    155   2   0.50000    -0.9000000    0.0600000   1.365727e-03  2.104311e-06
    148    157   2   0.50000    -0.9000000    0.0600000   3.355588e-04  1.884215e-07
    148    158   2   0.50000    -0.9000000    0.0600000   3.355588e-04  1.884215e-07
    151    155   2   0.50000     0.0600000    0.0600000   1.763857e-04  1.181647e-07
    151    157   2   0.50000     0.0600000    0.0600000   4.333791e-05  1.058054e-08
    151    158   2   0.50000     0.0600000    0.0600000   4.333791e-05  1.058054e-08
    147    156   2   0.50000     0.1200000   -0.9000000   1.365727e-03  2.104311e-06
    147    159   2   0.50000     0.1200000    0.0600000   1.763857e-04  1.181647e-07
    147    162   2   0.50000     0.1200000    0.0600000   1.763857e-04  1.181647e-07
    157    156   2   0.50000     0.0600000   -0.9000000   3.355588e-04  1.884215e-07
    157    159   2   0.50000     0.0600000    0.0600000   4.333791e-05  1.058054e-08
    157    162   2   0.50000     0.0600000    0.0600000   4.333791e-05  1.058054e-08
    158    156   2   0.50000     0.0600000   -0.9000000   3.355588e-04  1.884215e-07
    158    159   2   0.50000     0.0600000    0.0600000   4.333791e-05  1.058054e-08
    158    162   2   0.50000     0.0600000    0.0600000   4.333791e-05  1.058054e-08
    154    160   2   0.50000    -0.1200000    0.3600000   1.995577e-06  1.069504e-11
    154    161   2   0.50000    -0.1200000    0.3600000   1.995577e-06  1.069504e-11
    159    160   2   0.50000     0.0600000    0.3600000   3.467033e-07  6.771549e-13
    159    161   2   0.50000     0.0600000    0.3600000   3.467033e-07  6.771549e-13
    162    160   2   0.50000     0.0600000    0.3600000   3.467033e-07  6.771549e-13
    162    161   2   0.50000     0.0600000    0.3600000   3.467033e-07  6.771549e-13

[ angles ]
; ai  aj  ak
      2      1      4   1    110.7000    313.8000
      2      1      5   1    110.7000    313.8000
      2      1      9   1    110.7000    313.8000
      4      1      5   1    107.8000    276.1440
      4      1      9   1    107.8000    276.1440
      5      1      9   1    107.8000    276.1440
      1      2      3   1    109.4700    470.2816
      1      2      6   1    110.7000    313.8000
      1      2     10   1    112.7000    488.2728
      3      2      6   1    109.5000    292.8800
      3      2     10   1    109.4700    470.2816
      6      2     10   1    110.7000    313.8000
      2      3      7   1    109.5000    292.8800
      2      3      8   1    109.5000    292.8800
      7      3      8   1    106.4000    364.8448
      2     10     11   1    112.7000    488.2728
      2     10     13   1    110.7000    313.8000
      2     10     14   1    110.7000    313.8000
     11     10     13   1    110.7000    313.8000
     11     10     14   1    110.7000    313.8000
     13     10     14   1    107.8000    276.1440
     10     11     12   1    109.4700    470.2816
     10     11     15   1    110.7000    313.8000
     10     11     18   1    112.7000    488.2728
     12     11     15   1    109.5000    292.8800
     12     11     18   1    109.4700    470.2816
     15     11     18   1    110.7000    313.8000
     11     12     16   1    109.5000    292.8800
     11     12     17   1    109.5000    292.8800
     16     12     17   1    106.4000    364.8448
     11     18     19   1    112.7000    488.2728
     11     18     21   1    110.7000    313.8000
     11     18     22   1    110.7000    313.8000
     19     18     21   1    110.7000    313.8000
     19     18     22   1    110.7000    313.8000
     21     18     22   1    107.8000    276.1440
     18     19     20   1    109.4700    470.2816
     18     19     23   1    110.7000    313.8000
     18     19     26   1    112.7000    488.2728
     20     19     23   1    109.5000    292.8800
     20     19     26   1    109.4700    470.2816
     23     19     26   1    110.7000    313.8000
     19     20     24   1    109.5000    292.8800
     19     20     25   1    109.5000    292.8800
     24     20     25   1    106.4000    364.8448
     19     26     27   1    112.7000    488.2728
     19     26     29   1    110.7000    313.8000
     19     26     30   1    110.7000    313.8000
     27     26     29   1    110.7000    313.8000
     27     26     30   1    110.7000    313.8000
     29     26     30   1    107.8000    276.1440
     26     27     28   1    109.4700    470.2816
     26     27     31   1    110.7000    313.8000
     26     27     34   1    112.7000    488.2728
     28     27     31   1    109.5000    292.8800
     28     27     34   1    109.4700    470.2816
     31     27     34   1    110.7000    313.8000
     27     28     32   1    109.5000    292.8800
     27     28     33   1    109.5000    292.8800
     32     28     33   1    106.4000    364.8448
     27     34     35   1    112.7000    488.2728
     27     34     37   1    110.7000    313.8000
     27     34     38   1    110.7000    313.8000
     35     34     37   1    110.7000    313.8000
     35     34     38   1    110.7000    313.8000
     37     34     38   1    107.8000    276.1440
     34     35     36   1    109.4700    470.2816
     34     35     39   1    110.7000    313.8000
     34     35     42   1    112.7000    488.2728
     36     35     39   1    109.5000    292.8800
     36     35     42   1    109.4700    470.2816
     39     35     42   1    110.7000    313.8000
     35     36     40   1    109.5000    292.8800
     35     36     41   1    109.5000    292.8800
     40     36     41   1    106.4000    364.8448
     35     42     43   1    112.7000    488.2728
     35     42     45   1    110.7000    313.8000
     35     42     46   1    110.7000    313.8000
     43     42     45   1    110.7000    313.8000
     43     42     46   1    110.7000    313.8000
     45     42     46   1    107.8000    276.1440
     42     43     44   1    109.4700    470.2816
     42     43     47   1    110.7000    313.8000
     42     43     50   1    112.7000    488.2728
     44     43     47   1    109.5000    292.8800
     44     43     50   1    109.4700    470.2816
     47     43     50   1    110.7000    313.8000
     43     44     48   1    109.5000    292.8800
     43     44     49   1    109.5000    292.8800
     48     44     49   1    106.4000    364.8448
     43     50     51   1    112.7000    488.2728
     43     50     53   1    110.7000    313.8000
     43     50     54   1    110.7000    313.8000
     51     50     53   1    110.7000    313.8000
     51     50     54   1    110.7000    313.8000
     53     50     54   1    107.8000    276.1440
     50     51     52   1    109.4700    470.2816
     50     51     55   1    110.7000    313.8000
     50     51     58   1    112.7000    488.2728
     52     51     55   1    109.5000    292.8800
     52     51     58   1    109.4700    470.2816
     55     51     58   1    110.7000    313.8000
     51     52     56   1    109.5000    292.8800
     51     52     57   1    109.5000    292.8800
     56     52     57   1    106.4000    364.8448
     51     58     59   1    112.7000    488.2728
     51     58     61   1    110.7000    313.8000
     51     58     62   1    110.7000    313.8000
     59     58     61   1    110.7000    313.8000
     59     58     62   1    110.7000    313.8000
     61     58     62   1    107.8000    276.1440
     58     59     60   1    109.4700    470.2816
     58     59     63   1    110.7000    313.8000
     58     59     66   1    112.7000    488.2728
     60     59     63   1    109.5000    292.8800
     60     59     66   1    109.4700    470.2816
     63     59     66   1    110.7000    313.8000
     59     60     64   1    109.5000    292.8800
     59     60     65   1    109.5000    292.8800
     64     60     65   1    106.4000    364.8448
     59     66     67   1    112.7000    488.2728
     59     66     69   1    110.7000    313.8000
     59     66     70   1    110.7000    313.8000
     67     66     69   1    110.7000    313.8000
     67     66     70   1    110.7000    313.8000
     69     66     70   1    107.8000    276.1440
     66     67     68   1    109.4700    470.2816
     66     67     71   1    110.7000    313.8000
     66     67     74   1    112.7000    488.2728
     68     67     71   1    109.5000    292.8800
     68     67     74   1    109.4700    470.2816
     71     67     74   1    110.7000    313.8000
     67     68     72   1    109.5000    292.8800
     67     68     73   1    109.5000    292.8800
     72     68     73   1    106.4000    364.8448
     67     74     75   1    112.7000    488.2728
     67     74     77   1    110.7000    313.8000
     67     74     78   1    110.7000    313.8000
     75     74     77   1    110.7000    313.8000
     75     74     78   1    110.7000    313.8000
     77     74     78   1    107.8000    276.1440
     74     75     76   1    109.4700    470.2816
     74     75     79   1    110.7000    313.8000
     74     75     82   1    112.7000    488.2728
     76     75     79   1    109.5000    292.8800
     76     75     82   1    109.4700    470.2816
     79     75     82   1    110.7000    313.8000
     75     76     80   1    109.5000    292.8800
     75     76     81   1    109.5000    292.8800
     80     76     81   1    106.4000    364.8448
     75     82     83   1    112.7000    488.2728
     75     82     85   1    110.7000    313.8000
     75     82     86   1    110.7000    313.8000
     83     82     85   1    110.7000    313.8000
     83     82     86   1    110.7000    313.8000
     85     82     86   1    107.8000    276.1440
     82     83     84   1    109.4700    470.2816
     82     83     87   1    110.7000    313.8000
     82     83     90   1    112.7000    488.2728
     84     83     87   1    109.5000    292.8800
     84     83     90   1    109.4700    470.2816
     87     83     90   1    110.7000    313.8000
     83     84     88   1    109.5000    292.8800
     83     84     89   1    109.5000    292.8800
     88     84     89   1    106.4000    364.8448
     83     90     91   1    112.7000    488.2728
     83     90     93   1    110.7000    313.8000
     83     90     94   1    110.7000    313.8000
     91     90     93   1    110.7000    313.8000
     91     90     94   1    110.7000    313.8000
     93     90     94   1    107.8000    276.1440
     90     91     92   1    109.4700    470.2816
     90     91     95   1    110.7000    313.8000
     90     91     98   1    112.7000    488.2728
     92     91     95   1    109.5000    292.8800
     92     91     98   1    109.4700    470.2816
     95     91     98   1    110.7000    313.8000
     91     92     96   1    109.5000    292.8800
     91     92     97   1    109.5000    292.8800
     96     92     97   1    106.4000    364.8448
     91     98     99   1    112.7000    488.2728
     91     98    101   1    110.7000    313.8000
     91     98    102   1    110.7000    313.8000
     99     98    101   1    110.7000    313.8000
     99     98    102   1    110.7000    313.8000
    101     98    102   1    107.8000    276.1440
     98     99    100   1    109.4700    470.2816
     98     99    103   1    110.7000    313.8000
     98     99    106   1    112.7000    488.2728
    100     99    103   1    109.5000    292.8800
    100     99    106   1    109.4700    470.2816
    103     99    106   1    110.7000    313.8000
     99    100    104   1    109.5000    292.8800
     99    100    105   1    109.5000    292.8800
    104    100    105   1    106.4000    364.8448
     99    106    107   1    112.7000    488.2728
     99    106    109   1    110.7000    313.8000
     99    106    110   1    110.7000    313.8000
    107    106    109   1    110.7000    313.8000
    107    106    110   1    110.7000    313.8000
    109    106    110   1    107.8000    276.1440
    106    107    108   1    109.4700    470.2816
    106    107    111   1    110.7000    313.8000
    106    107    114   1    112.7000    488.2728
    108    107    111   1    109.5000    292.8800
    108    107    114   1    109.4700    470.2816
    111    107    114   1    110.7000    313.8000
    107    108    112   1    109.5000    292.8800
    107    108    113   1    109.5000    292.8800
    112    108    113   1    106.4000    364.8448
    107    114    115   1    112.7000    488.2728
    107    114    117   1    110.7000    313.8000
    107    114    118   1    110.7000    313.8000
    115    114    117   1    110.7000    313.8000
    115    114    118   1    110.7000    313.8000
    117    114    118   1    107.8000    276.1440
    114    115    116   1    109.4700    470.2816
    114    115    119   1    110.7000    313.8000
    114    115    122   1    112.7000    488.2728
    116    115    119   1    109.5000    292.8800
    116    115    122   1    109.4700    470.2816
    119    115    122   1    110.7000    313.8000
    115    116    120   1    109.5000    292.8800
    115    116    121   1    109.5000    292.8800
    120    116    121   1    106.4000    364.8448
    115    122    123   1    112.7000    488.2728
    115    122    125   1    110.7000    313.8000
    115    122    126   1    110.7000    313.8000
    123    122    125   1    110.7000    313.8000
    123    122    126   1    110.7000    313.8000
    125    122    126   1    107.8000    276.1440
    122    123    124   1    109.4700    470.2816
    122    123    127   1    110.7000    313.8000
    122    123    130   1    112.7000    488.2728
    124    123    127   1    109.5000    292.8800
    124    123    130   1    109.4700    470.2816
    127    123    130   1    110.7000    313.8000
    123    124    128   1    109.5000    292.8800
    123    124    129   1    109.5000    292.8800
    128    124    129   1    106.4000    364.8448
    123    130    131   1    112.7000    488.2728
    123    130    133   1    110.7000    313.8000
    123    130    134   1    110.7000    313.8000
    131    130    133   1    110.7000    313.8000
    131    130    134   1    110.7000    313.8000
    133    130    134   1    107.8000    276.1440
    130    131    132   1    109.4700    470.2816
    130    131    135   1    110.7000    313.8000
    130    131    138   1    112.7000    488.2728
    132    131    135   1    109.5000    292.8800
    132    131    138   1    109.4700    470.2816
    135    131    138   1    110.7000    313.8000
    131    132    136   1    109.5000    292.8800
    131    132    137   1    109.5000    292.8800
    136    132    137   1    106.4000    364.8448
    131    138    139   1    112.7000    488.2728
    131    138    141   1    110.7000    313.8000
    131    138    142   1    110.7000    313.8000
    139    138    141   1    110.7000    313.8000
    139    138    142   1    110.7000    313.8000
    141    138    142   1    107.8000    276.1440
    138    139    140   1    109.4700    470.2816
    138    139    143   1    110.7000    313.8000
    138    139    146   1    112.7000    488.2728
    140    139    143   1    109.5000    292.8800
    140    139    146   1    109.4700    470.2816
    143    139    146   1    110.7000    313.8000
    139    140    144   1    109.5000    292.8800
    139    140    145   1    109.5000    292.8800
    144    140    145   1    106.4000    364.8448
    139    146    147   1    112.7000    488.2728
    139    146    149   1    110.7000    313.8000
    139    146    150   1    110.7000    313.8000
    147    146    149   1    110.7000    313.8000
    147    146    150   1    110.7000    313.8000
    149    146    150   1    107.8000    276.1440
    146    147    148   1    109.4700    470.2816
    146    147    151   1    110.7000    313.8000
    146    147    154   1    112.7000    488.2728
    148    147    151   1    109.5000    292.8800
    148    147    154   1    109.4700    470.2816
    151    147    154   1    110.7000    313.8000
    147    148    152   1    109.5000    292.8800
    147    148    153   1    109.5000    292.8800
    152    148    153   1    106.4000    364.8448
    147    154    155   1    112.7000    488.2728
    147    154    157   1    110.7000    313.8000
    147    154    158   1    110.7000    313.8000
    155    154    157   1    110.7000    313.8000
    155    154    158   1    110.7000    313.8000
    157    154    158   1    107.8000    276.1440
    154    155    156   1    109.4700    470.2816
    154    155    159   1    110.7000    313.8000
    154    155    162   1    110.7000    313.8000
    156    155    159   1    109.5000    292.8800
    156    155    162   1    109.5000    292.8800
    159    155    162   1    107.8000    276.1440
    155    156    160   1    109.5000    292.8800
    155    156    161   1    109.5000    292.8800
    160    156    161   1    106.4000    364.8448

[ dihedrals ]
; Proper dihedrals
      4      1      2      3   5     0.00000     0.00000     1.25520  0.0
      4      1      2      6   5     0.00000     0.00000     1.25520  0.0
      4      1      2     10   5     0.00000     0.00000     1.25520  0.0
      5      1      2      3   5     0.00000     0.00000     1.25520  0.0
      5      1      2      6   5     0.00000     0.00000     1.25520  0.0
      5      1      2     10   5     0.00000     0.00000     1.25520  0.0
      9      1      2      3   5     0.00000     0.00000     1.25520  0.0
      9      1      2      6   5     0.00000     0.00000     1.25520  0.0
      9      1      2     10   5     0.00000     0.00000     1.25520  0.0
      1      2      3      7   5    -0.49790     0.74057     0.98324  0.0
      1      2      3      8   5    -0.49790     0.74057     0.98324  0.0
      6      2      3      7   5     0.00000     0.00000     1.67360  0.0
      6      2      3      8   5     0.00000     0.00000     1.67360  0.0
     10      2      3      7   5    -0.49790     0.74057     0.98324  0.0
     10      2      3      8   5    -0.49790     0.74057     0.98324  0.0
      1      2     10     11   5     4.74884    -0.63178     1.67360  0.0
      1      2     10     13   5     0.00000     0.00000     1.25520  0.0
      1      2     10     14   5     0.00000     0.00000     1.25520  0.0
      3      2     10     11   5    12.83651    -0.83262     0.47698  0.0
      3      2     10     13   5     0.00000     0.00000     1.25520  0.0
      3      2     10     14   5     0.00000     0.00000     1.25520  0.0
      6      2     10     11   5     0.00000     0.00000     1.25520  0.0
      6      2     10     13   5     0.00000     0.00000     1.25520  0.0
      6      2     10     14   5     0.00000     0.00000     1.25520  0.0
      2     10     11     12   5    12.83651    -0.83262     0.47698  0.0
      2     10     11     15   5     0.00000     0.00000     1.25520  0.0
      2     10     11     18   5     4.74884    -0.63178     1.67360  0.0
     13     10     11     12   5     0.00000     0.00000     1.25520  0.0
     13     10     11     15   5     0.00000     0.00000     1.25520  0.0
     13     10     11     18   5     0.00000     0.00000     1.25520  0.0
     14     10     11     12   5     0.00000     0.00000     1.25520  0.0
     14     10     11     15   5     0.00000     0.00000     1.25520  0.0
     14     10     11     18   5     0.00000     0.00000     1.25520  0.0
     10     11     12     16   5    -0.49790     0.74057     0.98324  0.0
     10     11     12     17   5    -0.49790     0.74057     0.98324  0.0
     15     11     12     16   5     0.00000     0.00000     1.67360  0.0
     15     11     12     17   5     0.00000     0.00000     1.67360  0.0
     18     11     12     16   5    -0.49790     0.74057     0.98324  0.0
     18     11     12     17   5    -0.49790     0.74057     0.98324  0.0
     10     11     18     19   5     4.74884    -0.63178     1.67360  0.0
     10     11     18     21   5     0.00000     0.00000     1.25520  0.0
     10     11     18     22   5     0.00000     0.00000     1.25520  0.0
     12     11     18     19   5    12.83651    -0.83262     0.47698  0.0
     12     11     18     21   5     0.00000     0.00000     1.25520  0.0
     12     11     18     22   5     0.00000     0.00000     1.25520  0.0
     15     11     18     19   5     0.00000     0.00000     1.25520  0.0
     15     11     18     21   5     0.00000     0.00000     1.25520  0.0
     15     11     18     22   5     0.00000     0.00000     1.25520  0.0
     11     18     19     20   5    12.83651    -0.83262     0.47698  0.0
     11     18     19     23   5     0.00000     0.00000     1.25520  0.0
     11     18     19     26   5     4.74884    -0.63178     1.67360  0.0
     21     18     19     20   5     0.00000     0.00000     1.25520  0.0
     21     18     19     23   5     0.00000     0.00000     1.25520  0.0
     21     18     19     26   5     0.00000     0.00000     1.25520  0.0
     22     18     19     20   5     0.00000     0.00000     1.25520  0.0
     22     18     19     23   5     0.00000     0.00000     1.25520  0.0
     22     18     19     26   5     0.00000     0.00000     1.25520  0.0
     18     19     20     24   5    -0.49790     0.74057     0.98324  0.0
     18     19     20     25   5    -0.49790     0.74057     0.98324  0.0
     23     19     20     24   5     0.00000     0.00000     1.67360  0.0
     23     19     20     25   5     0.00000     0.00000     1.67360  0.0
     26     19     20     24   5    -0.49790     0.74057     0.98324  0.0
     26     19     20     25   5    -0.49790     0.74057     0.98324  0.0
     18     19     26     27   5     4.74884    -0.63178     1.67360  0.0
     18     19     26     29   5     0.00000     0.00000     1.25520  0.0
     18     19     26     30   5     0.00000     0.00000     1.25520  0.0
     20     19     26     27   5    12.83651    -0.83262     0.47698  0.0
     20     19     26     29   5     0.00000     0.00000     1.25520  0.0
     20     19     26     30   5     0.00000     0.00000     1.25520  0.0
     23     19     26     27   5     0.00000     0.00000     1.25520  0.0
     23     19     26     29   5     0.00000     0.00000     1.25520  0.0
     23     19     26     30   5     0.00000     0.00000     1.25520  0.0
     19     26     27     28   5    12.83651    -0.83262     0.47698  0.0
     19     26     27     31   5     0.00000     0.00000     1.25520  0.0
     19     26     27     34   5     4.74884    -0.63178     1.67360  0.0
     29     26     27     28   5     0.00000     0.00000     1.25520  0.0
     29     26     27     31   5     0.00000     0.00000     1.25520  0.0
     29     26     27     34   5     0.00000     0.00000     1.25520  0.0
     30     26     27     28   5     0.00000     0.00000     1.25520  0.0
     30     26     27     31   5     0.00000     0.00000     1.25520  0.0
     30     26     27     34   5     0.00000     0.00000     1.25520  0.0
     26     27     28     32   5    -0.49790     0.74057     0.98324  0.0
     26     27     28     33   5    -0.49790     0.74057     0.98324  0.0
     31     27     28     32   5     0.00000     0.00000     1.67360  0.0
     31     27     28     33   5     0.00000     0.00000     1.67360  0.0
     34     27     28     32   5    -0.49790     0.74057     0.98324  0.0
     34     27     28     33   5    -0.49790     0.74057     0.98324  0.0
     26     27     34     35   5     4.74884    -0.63178     1.67360  0.0
     26     27     34     37   5     0.00000     0.00000     1.25520  0.0
     26     27     34     38   5     0.00000     0.00000     1.25520  0.0
     28     27     34     35   5    12.83651    -0.83262     0.47698  0.0
     28     27     34     37   5     0.00000     0.00000     1.25520  0.0
     28     27     34     38   5     0.00000     0.00000     1.25520  0.0
     31     27     34     35   5     0.00000     0.00000     1.25520  0.0
     31     27     34     37   5     0.00000     0.00000     1.25520  0.0
     31     27     34     38   5     0.00000     0.00000     1.25520  0.0
     27     34     35     36   5    12.83651    -0.83262     0.47698  0.0
     27     34     35     39   5     0.00000     0.00000     1.25520  0.0
     27     34     35     42   5     4.74884    -0.63178     1.67360  0.0
     37     34     35     36   5     0.00000     0.00000     1.25520  0.0
     37     34     35     39   5     0.00000     0.00000     1.25520  0.0
     37     34     35     42   5     0.00000     0.00000     1.25520  0.0
     38     34     35     36   5     0.00000     0.00000     1.25520  0.0
     38     34     35     39   5     0.00000     0.00000     1.25520  0.0
     38     34     35     42   5     0.00000     0.00000     1.25520  0.0
     34     35     36     40   5    -0.49790     0.74057     0.98324  0.0
     34     35     36     41   5    -0.49790     0.74057     0.98324  0.0
     39     35     36     40   5     0.00000     0.00000     1.67360  0.0
     39     35     36     41   5     0.00000     0.00000     1.67360  0.0
     42     35     36     40   5    -0.49790     0.74057     0.98324  0.0
     42     35     36     41   5    -0.49790     0.74057     0.98324  0.0
     34     35     42     43   5     4.74884    -0.63178     1.67360  0.0
     34     35     42     45   5     0.00000     0.00000     1.25520  0.0
     34     35     42     46   5     0.00000     0.00000     1.25520  0.0
     36     35     42     43   5    12.83651    -0.83262     0.47698  0.0
     36     35     42     45   5     0.00000     0.00000     1.25520  0.0
     36     35     42     46   5     0.00000     0.00000     1.25520  0.0
     39     35     42     43   5     0.00000     0.00000     1.25520  0.0
     39     35     42     45   5     0.00000     0.00000     1.25520  0.0
     39     35     42     46   5     0.00000     0.00000     1.25520  0.0
     35     42     43     44   5    12.83651    -0.83262     0.47698  0.0
     35     42     43     47   5     0.00000     0.00000     1.25520  0.0
     35     42     43     50   5     4.74884    -0.63178     1.67360  0.0
     45     42     43     44   5     0.00000     0.00000     1.25520  0.0
     45     42     43     47   5     0.00000     0.00000     1.25520  0.0
     45     42     43     50   5     0.00000     0.00000     1.25520  0.0
     46     42     43     44   5     0.00000     0.00000     1.25520  0.0
     46     42     43     47   5     0.00000     0.00000     1.25520  0.0
     46     42     43     50   5     0.00000     0.00000     1.25520  0.0
     42     43     44     48   5    -0.49790     0.74057     0.98324  0.0
     42     43     44     49   5    -0.49790     0.74057     0.98324  0.0
     47     43     44     48   5     0.00000     0.00000     1.67360  0.0
     47     43     44     49   5     0.00000     0.00000     1.67360  0.0
     50     43     44     48   5    -0.49790     0.74057     0.98324  0.0
     50     43     44     49   5    -0.49790     0.74057     0.98324  0.0
     42     43     50     51   5     4.74884    -0.63178     1.67360  0.0
     42     43     50     53   5     0.00000     0.00000     1.25520  0.0
     42     43     50     54   5     0.00000     0.00000     1.25520  0.0
     44     43     50     51   5    12.83651    -0.83262     0.47698  0.0
     44     43     50     53   5     0.00000     0.00000     1.25520  0.0
     44     43     50     54   5     0.00000     0.00000     1.25520  0.0
     47     43     50     51   5     0.00000     0.00000     1.25520  0.0
     47     43     50     53   5     0.00000     0.00000     1.25520  0.0
     47     43     50     54   5     0.00000     0.00000     1.25520  0.0
     43     50     51     52   5    12.83651    -0.83262     0.47698  0.0
     43     50     51     55   5     0.00000     0.00000     1.25520  0.0
     43     50     51     58   5     4.74884    -0.63178     1.67360  0.0
     53     50     51     52   5     0.00000     0.00000     1.25520  0.0
     53     50     51     55   5     0.00000     0.00000     1.25520  0.0
     53     50     51     58   5     0.00000     0.00000     1.25520  0.0
     54     50     51     52   5     0.00000     0.00000     1.25520  0.0
     54     50     51     55   5     0.00000     0.00000     1.25520  0.0
     54     50     51     58   5     0.00000     0.00000     1.25520  0.0
     50     51     52     56   5    -0.49790     0.74057     0.98324  0.0
     50     51     52     57   5    -0.49790     0.74057     0.98324  0.0
     55     51     52     56   5     0.00000     0.00000     1.67360  0.0
     55     51     52     57   5     0.00000     0.00000     1.67360  0.0
     58     51     52     56   5    -0.49790     0.74057     0.98324  0.0
     58     51     52     57   5    -0.49790     0.74057     0.98324  0.0
     50     51     58     59   5     4.74884    -0.63178     1.67360  0.0
     50     51     58     61   5     0.00000     0.00000     1.25520  0.0
     50     51     58     62   5     0.00000     0.00000     1.25520  0.0
     52     51     58     59   5    12.83651    -0.83262     0.47698  0.0
     52     51     58     61   5     0.00000     0.00000     1.25520  0.0
     52     51     58     62   5     0.00000     0.00000     1.25520  0.0
     55     51     58     59   5     0.00000     0.00000     1.25520  0.0
     55     51     58     61   5     0.00000     0.00000     1.25520  0.0
     55     51     58     62   5     0.00000     0.00000     1.25520  0.0
     51     58     59     60   5    12.83651    -0.83262     0.47698  0.0
     51     58     59     63   5     0.00000     0.00000     1.25520  0.0
     51     58     59     66   5     4.74884    -0.63178     1.67360  0.0
     61     58     59     60   5     0.00000     0.00000     1.25520  0.0
     61     58     59     63   5     0.00000     0.00000     1.25520  0.0
     61     58     59     66   5     0.00000     0.00000     1.25520  0.0
     62     58     59     60   5     0.00000     0.00000     1.25520  0.0
     62     58     59     63   5     0.00000     0.00000     1.25520  0.0
     62     58     59     66   5     0.00000     0.00000     1.25520  0.0
     58     59     60     64   5    -0.49790     0.74057     0.98324  0.0
     58     59     60     65   5    -0.49790     0.74057     0.98324  0.0
     63     59     60     64   5     0.00000     0.00000     1.67360  0.0
     63     59     60     65   5     0.00000     0.00000     1.67360  0.0
     66     59     60     64   5    -0.49790     0.74057     0.98324  0.0
     66     59     60     65   5    -0.49790     0.74057     0.98324  0.0
     58     59     66     67   5     4.74884    -0.63178     1.67360  0.0
     58     59     66     69   5     0.00000     0.00000     1.25520  0.0
     58     59     66     70   5     0.00000     0.00000     1.25520  0.0
     60     59     66     67   5    12.83651    -0.83262     0.47698  0.0
     60     59     66     69   5     0.00000     0.00000     1.25520  0.0
     60     59     66     70   5     0.00000     0.00000     1.25520  0.0
     63     59     66     67   5     0.00000     0.00000     1.25520  0.0
     63     59     66     69   5     0.00000     0.00000     1.25520  0.0
     63     59     66     70   5     0.00000     0.00000     1.25520  0.0
     59     66     67     68   5    12.83651    -0.83262     0.47698  0.0
     59     66     67     71   5     0.00000     0.00000     1.25520  0.0
     59     66     67     74   5     4.74884    -0.63178     1.67360  0.0
     69     66     67     68   5     0.00000     0.00000     1.25520  0.0
     69     66     67     71   5     0.00000     0.00000     1.25520  0.0
     69     66     67     74   5     0.00000     0.00000     1.25520  0.0
     70     66     67     68   5     0.00000     0.00000     1.25520  0.0
     70     66     67     71   5     0.00000     0.00000     1.25520  0.0
     70     66     67     74   5     0.00000     0.00000     1.25520  0.0
     66     67     68     72   5    -0.49790     0.74057     0.98324  0.0
     66     67     68     73   5    -0.49790     0.74057     0.98324  0.0
     71     67     68     72   5     0.00000     0.00000     1.67360  0.0
     71     67     68     73   5     0.00000     0.00000     1.67360  0.0
     74     67     68     72   5    -0.49790     0.74057     0.98324  0.0
     74     67     68     73   5    -0.49790     0.74057     0.98324  0.0
     66     67     74     75   5     4.74884    -0.63178     1.67360  0.0
     66     67     74     77   5     0.00000     0.00000     1.25520  0.0
     66     67     74     78   5     0.00000     0.00000     1.25520  0.0
     68     67     74     75   5    12.83651    -0.83262     0.47698  0.0
     68     67     74     77   5     0.00000     0.00000     1.25520  0.0
     68     67     74     78   5     0.00000     0.00000     1.25520  0.0
     71     67     74     75   5     0.00000     0.00000     1.25520  0.0
     71     67     74     77   5     0.00000     0.00000     1.25520  0.0
     71     67     74     78   5     0.00000     0.00000     1.25520  0.0
     67     74     75     76   5    12.83651    -0.83262     0.47698  0.0
     67     74     75     79   5     0.00000     0.00000     1.25520  0.0
     67     74     75     82   5     4.74884    -0.63178     1.67360  0.0
     77     74     75     76   5     0.00000     0.00000     1.25520  0.0
     77     74     75     79   5     0.00000     0.00000     1.25520  0.0
     77     74     75     82   5     0.00000     0.00000     1.25520  0.0
     78     74     75     76   5     0.00000     0.00000     1.25520  0.0
     78     74     75     79   5     0.00000     0.00000     1.25520  0.0
     78     74     75     82   5     0.00000     0.00000     1.25520  0.0
     74     75     76     80   5    -0.49790     0.74057     0.98324  0.0
     74     75     76     81   5    -0.49790     0.74057     0.98324  0.0
     79     75     76     80   5     0.00000     0.00000     1.67360  0.0
     79     75     76     81   5     0.00000     0.00000     1.67360  0.0
     82     75     76     80   5    -0.49790     0.74057     0.98324  0.0
     82     75     76     81   5    -0.49790     0.74057     0.98324  0.0
     74     75     82     83   5     4.74884    -0.63178     1.67360  0.0
     74     75     82     85   5     0.00000     0.00000     1.25520  0.0
     74     75     82     86   5     0.00000     0.00000     1.25520  0.0
     76     75     82     83   5    12.83651    -0.83262     0.47698  0.0
     76     75     82     85   5     0.00000     0.00000     1.25520  0.0
     76     75     82     86   5     0.00000     0.00000     1.25520  0.0
     79     75     82     83   5     0.00000     0.00000     1.25520  0.0
     79     75     82     85   5     0.00000     0.00000     1.25520  0.0
     79     75     82     86   5     0.00000     0.00000     1.25520  0.0
     75     82     83     84   5    12.83651    -0.83262     0.47698  0.0
     75     82     83     87   5     0.00000     0.00000     1.25520  0.0
     75     82     83     90   5     4.74884    -0.63178     1.67360  0.0
     85     82     83     84   5     0.00000     0.00000     1.25520  0.0
     85     82     83     87   5     0.00000     0.00000     1.25520  0.0
     85     82     83     90   5     0.00000     0.00000     1.25520  0.0
     86     82     83     84   5     0.00000     0.00000     1.25520  0.0
     86     82     83     87   5     0.00000     0.00000     1.25520  0.0
     86     82     83     90   5     0.00000     0.00000     1.25520  0.0
     82     83     84     88   5    -0.49790     0.74057     0.98324  0.0
     82     83     84     89   5    -0.49790     0.74057     0.98324  0.0
     87     83     84     88   5     0.00000     0.00000     1.67360  0.0
     87     83     84     89   5     0.00000     0.00000     1.67360  0.0
     90     83     84     88   5    -0.49790     0.74057     0.98324  0.0
     90     83     84     89   5    -0.49790     0.74057     0.98324  0.0
     82     83     90     91   5     4.74884    -0.63178     1.67360  0.0
     82     83     90     93   5     0.00000     0.00000     1.25520  0.0
     82     83     90     94   5     0.00000     0.00000     1.25520  0.0
     84     83     90     91   5    12.83651    -0.83262     0.47698  0.0
     84     83     90     93   5     0.00000     0.00000     1.25520  0.0
     84     83     90     94   5     0.00000     0.00000     1.25520  0.0
     87     83     90     91   5     0.00000     0.00000     1.25520  0.0
     87     83     90     93   5     0.00000     0.00000     1.25520  0.0
     87     83     90     94   5     0.00000     0.00000     1.25520  0.0
     83     90     91     92   5    12.83651    -0.83262     0.47698  0.0
     83     90     91     95   5     0.00000     0.00000     1.25520  0.0
     83     90     91     98   5     4.74884    -0.63178     1.67360  0.0
     93     90     91     92   5     0.00000     0.00000     1.25520  0.0
     93     90     91     95   5     0.00000     0.00000     1.25520  0.0
     93     90     91     98   5     0.00000     0.00000     1.25520  0.0
     94     90     91     92   5     0.00000     0.00000     1.25520  0.0
     94     90     91     95   5     0.00000     0.00000     1.25520  0.0
     94     90     91     98   5     0.00000     0.00000     1.25520  0.0
     90     91     92     96   5    -0.49790     0.74057     0.98324  0.0
     90     91     92     97   5    -0.49790     0.74057     0.98324  0.0
     95     91     92     96   5     0.00000     0.00000     1.67360  0.0
     95     91     92     97   5     0.00000     0.00000     1.67360  0.0
     98     91     92     96   5    -0.49790     0.74057     0.98324  0.0
     98     91     92     97   5    -0.49790     0.74057     0.98324  0.0
     90     91     98     99   5     4.74884    -0.63178     1.67360  0.0
     90     91     98    101   5     0.00000     0.00000     1.25520  0.0
     90     91     98    102   5     0.00000     0.00000     1.25520  0.0
     92     91     98     99   5    12.83651    -0.83262     0.47698  0.0
     92     91     98    101   5     0.00000     0.00000     1.25520  0.0
     92     91     98    102   5     0.00000     0.00000     1.25520  0.0
     95     91     98     99   5     0.00000     0.00000     1.25520  0.0
     95     91     98    101   5     0.00000     0.00000     1.25520  0.0
     95     91     98    102   5     0.00000     0.00000     1.25520  0.0
     91     98     99    100   5    12.83651    -0.83262     0.47698  0.0
     91     98     99    103   5     0.00000     0.00000     1.25520  0.0
     91     98     99    106   5     4.74884    -0.63178     1.67360  0.0
    101     98     99    100   5     0.00000     0.00000     1.25520  0.0
    101     98     99    103   5     0.00000     0.00000     1.25520  0.0
    101     98     99    106   5     0.00000     0.00000     1.25520  0.0
    102     98     99    100   5     0.00000     0.00000     1.25520  0.0
    102     98     99    103   5     0.00000     0.00000     1.25520  0.0
    102     98     99    106   5     0.00000     0.00000     1.25520  0.0
     98     99    100    104   5    -0.49790     0.74057     0.98324  0.0
     98     99    100    105   5    -0.49790     0.74057     0.98324  0.0
    103     99    100    104   5     0.00000     0.00000     1.67360  0.0
    103     99    100    105   5     0.00000     0.00000     1.67360  0.0
    106     99    100    104   5    -0.49790     0.74057     0.98324  0.0
    106     99    100    105   5    -0.49790     0.74057     0.98324  0.0
     98     99    106    107   5     4.74884    -0.63178     1.67360  0.0
     98     99    106    109   5     0.00000     0.00000     1.25520  0.0
     98     99    106    110   5     0.00000     0.00000     1.25520  0.0
    100     99    106    107   5    12.83651    -0.83262     0.47698  0.0
    100     99    106    109   5     0.00000     0.00000     1.25520  0.0
    100     99    106    110   5     0.00000     0.00000     1.25520  0.0
    103     99    106    107   5     0.00000     0.00000     1.25520  0.0
    103     99    106    109   5     0.00000     0.00000     1.25520  0.0
    103     99    106    110   5     0.00000     0.00000     1.25520  0.0
     99    106    107    108   5    12.83651    -0.83262     0.47698  0.0
     99    106    107    111   5     0.00000     0.00000     1.25520  0.0
     99    106    107    114   5     4.74884    -0.63178     1.67360  0.0
    109    106    107    108   5     0.00000     0.00000     1.25520  0.0
    109    106    107    111   5     0.00000     0.00000     1.25520  0.0
    109    106    107    114   5     0.00000     0.00000     1.25520  0.0
    110    106    107    108   5     0.00000     0.00000     1.25520  0.0
    110    106    107    111   5     0.00000     0.00000     1.25520  0.0
    110    106    107    114   5     0.00000     0.00000     1.25520  0.0
    106    107    108    112   5    -0.49790     0.74057     0.98324  0.0
    106    107    108    113   5    -0.49790     0.74057     0.98324  0.0
    111    107    108    112   5     0.00000     0.00000     1.67360  0.0
    111    107    108    113   5     0.00000     0.00000     1.67360  0.0
    114    107    108    112   5    -0.49790     0.74057     0.98324  0.0
    114    107    108    113   5    -0.49790     0.74057     0.98324  0.0
    106    107    114    115   5     4.74884    -0.63178     1.67360  0.0
    106    107    114    117   5     0.00000     0.00000     1.25520  0.0
    106    107    114    118   5     0.00000     0.00000     1.25520  0.0
    108    107    114    115   5    12.83651    -0.83262     0.47698  0.0
    108    107    114    117   5     0.00000     0.00000     1.25520  0.0
    108    107    114    118   5     0.00000     0.00000     1.25520  0.0
    111    107    114    115   5     0.00000     0.00000     1.25520  0.0
    111    107    114    117   5     0.00000     0.00000     1.25520  0.0
    111    107    114    118   5     0.00000     0.00000     1.25520  0.0
    107    114    115    116   5    12.83651    -0.83262     0.47698  0.0
    107    114    115    119   5     0.00000     0.00000     1.25520  0.0
    107    114    115    122   5     4.74884    -0.63178     1.67360  0.0
    117    114    115    116   5     0.00000     0.00000     1.25520  0.0
    117    114    115    119   5     0.00000     0.00000     1.25520  0.0
    117    114    115    122   5     0.00000     0.00000     1.25520  0.0
    118    114    115    116   5     0.00000     0.00000     1.25520  0.0
    118    114    115    119   5     0.00000     0.00000     1.25520  0.0
    118    114    115    122   5     0.00000     0.00000     1.25520  0.0
    114    115    116    120   5    -0.49790     0.74057     0.98324  0.0
    114    115    116    121   5    -0.49790     0.74057     0.98324  0.0
    119    115    116    120   5     0.00000     0.00000     1.67360  0.0
    119    115    116    121   5     0.00000     0.00000     1.67360  0.0
    122    115    116    120   5    -0.49790     0.74057     0.98324  0.0
    122    115    116    121   5    -0.49790     0.74057     0.98324  0.0
    114    115    122    123   5     4.74884    -0.63178     1.67360  0.0
    114    115    122    125   5     0.00000     0.00000     1.25520  0.0
    114    115    122    126   5     0.00000     0.00000     1.25520  0.0
    116    115    122    123   5    12.83651    -0.83262     0.47698  0.0
    116    115    122    125   5     0.00000     0.00000     1.25520  0.0
    116    115    122    126   5     0.00000     0.00000     1.25520  0.0
    119    115    122    123   5     0.00000     0.00000     1.25520  0.0
    119    115    122    125   5     0.00000     0.00000     1.25520  0.0
    119    115    122    126   5     0.00000     0.00000     1.25520  0.0
    115    122    123    124   5    12.83651    -0.83262     0.47698  0.0
    115    122    123    127   5     0.00000     0.00000     1.25520  0.0
    115    122    123    130   5     4.74884    -0.63178     1.67360  0.0
    125    122    123    124   5     0.00000     0.00000     1.25520  0.0
    125    122    123    127   5     0.00000     0.00000     1.25520  0.0
    125    122    123    130   5     0.00000     0.00000     1.25520  0.0
    126    122    123    124   5     0.00000     0.00000     1.25520  0.0
    126    122    123    127   5     0.00000     0.00000     1.25520  0.0
    126    122    123    130   5     0.00000     0.00000     1.25520  0.0
    122    123    124    128   5    -0.49790     0.74057     0.98324  0.0
    122    123    124    129   5    -0.49790     0.74057     0.98324  0.0
    127    123    124    128   5     0.00000     0.00000     1.67360  0.0
    127    123    124    129   5     0.00000     0.00000     1.67360  0.0
    130    123    124    128   5    -0.49790     0.74057     0.98324  0.0
    130    123    124    129   5    -0.49790     0.74057     0.98324  0.0
    122    123    130    131   5     4.74884    -0.63178     1.67360  0.0
    122    123    130    133   5     0.00000     0.00000     1.25520  0.0
    122    123    130    134   5     0.00000     0.00000     1.25520  0.0
    124    123    130    131   5    12.83651    -0.83262     0.47698  0.0
    124    123    130    133   5     0.00000     0.00000     1.25520  0.0
    124    123    130    134   5     0.00000     0.00000     1.25520  0.0
    127    123    130    131   5     0.00000     0.00000     1.25520  0.0
    127    123    130    133   5     0.00000     0.00000     1.25520  0.0
    127    123    130    134   5     0.00000     0.00000     1.25520  0.0
    123    130    131    132   5    12.83651    -0.83262     0.47698  0.0
    123    130    131    135   5     0.00000     0.00000     1.25520  0.0
    123    130    131    138   5     4.74884    -0.63178     1.67360  0.0
    133    130    131    132   5     0.00000     0.00000     1.25520  0.0
    133    130    131    135   5     0.00000     0.00000     1.25520  0.0
    133    130    131    138   5     0.00000     0.00000     1.25520  0.0
    134    130    131    132   5     0.00000     0.00000     1.25520  0.0
    134    130    131    135   5     0.00000     0.00000     1.25520  0.0
    134    130    131    138   5     0.00000     0.00000     1.25520  0.0
    130    131    132    136   5    -0.49790     0.74057     0.98324  0.0
    130    131    132    137   5    -0.49790     0.74057     0.98324  0.0
    135    131    132    136   5     0.00000     0.00000     1.67360  0.0
    135    131    132    137   5     0.00000     0.00000     1.67360  0.0
    138    131    132    136   5    -0.49790     0.74057     0.98324  0.0
    138    131    132    137   5    -0.49790     0.74057     0.98324  0.0
    130    131    138    139   5     4.74884    -0.63178     1.67360  0.0
    130    131    138    141   5     0.00000     0.00000     1.25520  0.0
    130    131    138    142   5     0.00000     0.00000     1.25520  0.0
    132    131    138    139   5    12.83651    -0.83262     0.47698  0.0
    132    131    138    141   5     0.00000     0.00000     1.25520  0.0
    132    131    138    142   5     0.00000     0.00000     1.25520  0.0
    135    131    138    139   5     0.00000     0.00000     1.25520  0.0
    135    131    138    141   5     0.00000     0.00000     1.25520  0.0
    135    131    138    142   5     0.00000     0.00000     1.25520  0.0
    131    138    139    140   5    12.83651    -0.83262     0.47698  0.0
    131    138    139    143   5     0.00000     0.00000     1.25520  0.0
    131    138    139    146   5     4.74884    -0.63178     1.67360  0.0
    141    138    139    140   5     0.00000     0.00000     1.25520  0.0
    141    138    139    143   5     0.00000     0.00000     1.25520  0.0
    141    138    139    146   5     0.00000     0.00000     1.25520  0.0
    142    138    139    140   5     0.00000     0.00000     1.25520  0.0
    142    138    139    143   5     0.00000     0.00000     1.25520  0.0
    142    138    139    146   5     0.00000     0.00000     1.25520  0.0
    138    139    140    144   5    -0.49790     0.74057     0.98324  0.0
    138    139    140    145   5    -0.49790     0.74057     0.98324  0.0
    143    139    140    144   5     0.00000     0.00000     1.67360  0.0
    143    139    140    145   5     0.00000     0.00000     1.67360  0.0
    146    139    140    144   5    -0.49790     0.74057     0.98324  0.0
    146    139    140    145   5    -0.49790     0.74057     0.98324  0.0
    138    139    146    147   5     4.74884    -0.63178     1.67360  0.0
    138    139    146    149   5     0.00000     0.00000     1.25520  0.0
    138    139    146    150   5     0.00000     0.00000     1.25520  0.0
    140    139    146    147   5    12.83651    -0.83262     0.47698  0.0
    140    139    146    149   5     0.00000     0.00000     1.25520  0.0
    140    139    146    150   5     0.00000     0.00000     1.25520  0.0
    143    139    146    147   5     0.00000     0.00000     1.25520  0.0
    143    139    146    149   5     0.00000     0.00000     1.25520  0.0
    143    139    146    150   5     0.00000     0.00000     1.25520  0.0
    139    146    147    148   5    12.83651    -0.83262     0.47698  0.0
    139    146    147    151   5     0.00000     0.00000     1.25520  0.0
    139    146    147    154   5     4.74884    -0.63178     1.67360  0.0
    149    146    147    148   5     0.00000     0.00000     1.25520  0.0
    149    146    147    151   5     0.00000     0.00000     1.25520  0.0
    149    146    147    154   5     0.00000     0.00000     1.25520  0.0
    150    146    147    148   5     0.00000     0.00000     1.25520  0.0
    150    146    147    151   5     0.00000     0.00000     1.25520  0.0
    150    146    147    154   5     0.00000     0.00000     1.25520  0.0
    146    147    148    152   5    -0.49790     0.74057     0.98324  0.0
    146    147    148    153   5    -0.49790     0.74057     0.98324  0.0
    151    147    148    152   5     0.00000     0.00000     1.67360  0.0
    151    147    148    153   5     0.00000     0.00000     1.67360  0.0
    154    147    148    152   5    -0.49790     0.74057     0.98324  0.0
    154    147    148    153   5    -0.49790     0.74057     0.98324  0.0
    146    147    154    155   5     4.74884    -0.63178     1.67360  0.0
    146    147    154    157   5     0.00000     0.00000     1.25520  0.0
    146    147    154    158   5     0.00000     0.00000     1.25520  0.0
    148    147    154    155   5    12.83651    -0.83262     0.47698  0.0
    148    147    154    157   5     0.00000     0.00000     1.25520  0.0
    148    147    154    158   5     0.00000     0.00000     1.25520  0.0
    151    147    154    155   5     0.00000     0.00000     1.25520  0.0
    151    147    154    157   5     0.00000     0.00000     1.25520  0.0
    151    147    154    158   5     0.00000     0.00000     1.25520  0.0
    147    154    155    156   5    12.83651    -0.83262     0.47698  0.0
    147    154    155    159   5     0.00000     0.00000     1.25520  0.0
    147    154    155    162   5     0.00000     0.00000     1.25520  0.0
    157    154    155    156   5     0.00000     0.00000     1.25520  0.0
    157    154    155    159   5     0.00000     0.00000     1.25520  0.0
    157    154    155    162   5     0.00000     0.00000     1.25520  0.0
    158    154    155    156   5     0.00000     0.00000     1.25520  0.0
    158    154    155    159   5     0.00000     0.00000     1.25520  0.0
    158    154    155    162   5     0.00000     0.00000     1.25520  0.0
    154    155    156    160   5    -0.49790     0.74057     0.98324  0.0
    154    155    156    161   5    -0.49790     0.74057     0.98324  0.0
    159    155    156    160   5     0.00000     0.00000     1.67360  0.0
    159    155    156    161   5     0.00000     0.00000     1.67360  0.0
    162    155    156    160   5     0.00000     0.00000     1.67360  0.0
    162    155    156    161   5     0.00000     0.00000     1.67360  0.0
