;
; Gromacs include topology (itp) file.
; For Molecular Group XYZ
; Force field scheme: opls2005
; Produced from DL_FIELD v4.11
;


[ moleculetype ]
; name    nrexcl
XYZ    3

[ atoms ]
; nr   type   resnr   residu    atom    cgnr    charge    mass
    1        CT    1  MOL      C1     1  -0.1800000   12.0115
    2        CT    1  MOL      C2     2   0.0970000   12.0115
    3        Cl    1  MOL     Cl3     3  -0.2000000   35.0650
    4        HC    1  MOL      H4     4   0.0600000    1.0080
    5        HC    1  MOL      H5     5   0.0600000    1.0080
    6        HC    1  MOL      H6     6   0.1030000    1.0080
    7        HC    1  MOL      H7     7   0.0600000    1.0080
    8        CT    1  MOL      C8     8  -0.1200000   12.0115
    9        CT    1  MOL      C9     9   0.0970000   12.0115
   10        Cl    1  MOL    Cl10    10  -0.2000000   35.0650
   11        HC    1  MOL     H11    11   0.0600000    1.0080
   12        HC    1  MOL     H12    12   0.0600000    1.0080
   13        HC    1  MOL     H13    13   0.1030000    1.0080
   14        CT    1  MOL     C14    14  -0.1200000   12.0115
   15        CT    1  MOL     C15    15   0.0970000   12.0115
   16        Cl    1  MOL    Cl16    16  -0.2000000   35.0650
   17        HC    1  MOL     H17    17   0.0600000    1.0080
   18        HC    1  MOL     H18    18   0.0600000    1.0080
   19        HC    1  MOL     H19    19   0.1030000    1.0080
   20        CT    1  MOL     C20    20  -0.1200000   12.0115
   21        CT    1  MOL     C21    21   0.0970000   12.0115
   22        Cl    1  MOL    Cl22    22  -0.2000000   35.0650
   23        HC    1  MOL     H23    23   0.0600000    1.0080
   24        HC    1  MOL     H24    24   0.0600000    1.0080
   25        HC    1  MOL     H25    25   0.1030000    1.0080
   26        CT    1  MOL     C26    26  -0.1200000   12.0115
   27        CT    1  MOL     C27    27   0.0970000   12.0115
   28        Cl    1  MOL    Cl28    28  -0.2000000   35.0650
   29        HC    1  MOL     H29    29   0.0600000    1.0080
   30        HC    1  MOL     H30    30   0.0600000    1.0080
   31        HC    1  MOL     H31    31   0.1030000    1.0080
   32        CT    1  MOL     C32    32  -0.1200000   12.0115
   33        CT    1  MOL     C33    33   0.0970000   12.0115
   34        Cl    1  MOL    Cl34    34  -0.2000000   35.0650
   35        HC    1  MOL     H35    35   0.0600000    1.0080
   36        HC    1  MOL     H36    36   0.0600000    1.0080
   37        HC    1  MOL     H37    37   0.1030000    1.0080
   38        CT    1  MOL     C38    38  -0.1200000   12.0115
   39        CT    1  MOL     C39    39   0.0970000   12.0115
   40        Cl    1  MOL    Cl40    40  -0.2000000   35.0650
   41        HC    1  MOL     H41    41   0.0600000    1.0080
   42        HC    1  MOL     H42    42   0.0600000    1.0080
   43        HC    1  MOL     H43    43   0.1030000    1.0080
   44        CT    1  MOL     C44    44  -0.1200000   12.0115
   45        CT    1  MOL     C45    45   0.0970000   12.0115
   46        Cl    1  MOL    Cl46    46  -0.2000000   35.0650
   47        HC    1  MOL     H47    47   0.0600000    1.0080
   48        HC    1  MOL     H48    48   0.0600000    1.0080
   49        HC    1  MOL     H49    49   0.1030000    1.0080
   50        CT    1  MOL     C50    50  -0.1200000   12.0115
   51        CT    1  MOL     C51    51   0.0970000   12.0115
   52        Cl    1  MOL    Cl52    52  -0.2000000   35.0650
   53        HC    1  MOL     H53    53   0.0600000    1.0080
   54        HC    1  MOL     H54    54   0.0600000    1.0080
   55        HC    1  MOL     H55    55   0.1030000    1.0080
   56        CT    1  MOL     C56    56  -0.1200000   12.0115
   57        CT    1  MOL     C57    57   0.0970000   12.0115
   58        Cl    1  MOL    Cl58    58  -0.2000000   35.0650
   59        HC    1  MOL     H59    59   0.0600000    1.0080
   60        HC    1  MOL     H60    60   0.0600000    1.0080
   61        HC    1  MOL     H61    61   0.1030000    1.0080
   62        CT    1  MOL     C62    62  -0.1200000   12.0115
   63        CT    1  MOL     C63    63   0.0970000   12.0115
   64        Cl    1  MOL    Cl64    64  -0.2000000   35.0650
   65        HC    1  MOL     H65    65   0.0600000    1.0080
   66        HC    1  MOL     H66    66   0.0600000    1.0080
   67        HC    1  MOL     H67    67   0.1030000    1.0080
   68        CT    1  MOL     C68    68  -0.1200000   12.0115
   69        CT    1  MOL     C69    69   0.0970000   12.0115
   70        Cl    1  MOL    Cl70    70  -0.2000000   35.0650
   71        HC    1  MOL     H71    71   0.0600000    1.0080
   72        HC    1  MOL     H72    72   0.0600000    1.0080
   73        HC    1  MOL     H73    73   0.1030000    1.0080
   74        CT    1  MOL     C74    74  -0.1200000   12.0115
   75        CT    1  MOL     C75    75   0.0970000   12.0115
   76        Cl    1  MOL    Cl76    76  -0.2000000   35.0650
   77        HC    1  MOL     H77    77   0.0600000    1.0080
   78        HC    1  MOL     H78    78   0.0600000    1.0080
   79        HC    1  MOL     H79    79   0.1030000    1.0080
   80        CT    1  MOL     C80    80  -0.1200000   12.0115
   81        CT    1  MOL     C81    81   0.0970000   12.0115
   82        Cl    1  MOL    Cl82    82  -0.2000000   35.0650
   83        HC    1  MOL     H83    83   0.0600000    1.0080
   84        HC    1  MOL     H84    84   0.0600000    1.0080
   85        HC    1  MOL     H85    85   0.1030000    1.0080
   86        CT    1  MOL     C86    86  -0.1200000   12.0115
   87        CT    1  MOL     C87    87   0.0970000   12.0115
   88        Cl    1  MOL    Cl88    88  -0.2000000   35.0650
   89        HC    1  MOL     H89    89   0.0600000    1.0080
   90        HC    1  MOL     H90    90   0.0600000    1.0080
   91        HC    1  MOL     H91    91   0.1030000    1.0080
   92        CT    1  MOL     C92    92  -0.1200000   12.0115
   93        CT    1  MOL     C93    93   0.0970000   12.0115
   94        Cl    1  MOL    Cl94    94  -0.2000000   35.0650
   95        HC    1  MOL     H95    95   0.0600000    1.0080
   96        HC    1  MOL     H96    96   0.0600000    1.0080
   97        HC    1  MOL     H97    97   0.1030000    1.0080
   98        CT    1  MOL     C98    98  -0.1200000   12.0115
   99        CT    1  MOL     C99    99   0.0970000   12.0115
  100        Cl    1  MOL   Cl100   100  -0.2000000   35.0650
  101        HC    1  MOL    H101   101   0.0600000    1.0080
  102        HC    1  MOL    H102   102   0.0600000    1.0080
  103        HC    1  MOL    H103   103   0.1030000    1.0080
  104        CT    1  MOL    C104   104  -0.1200000   12.0115
  105        CT    1  MOL    C105   105   0.0970000   12.0115
  106        Cl    1  MOL   Cl106   106  -0.2000000   35.0650
  107        HC    1  MOL    H107   107   0.0600000    1.0080
  108        HC    1  MOL    H108   108   0.0600000    1.0080
  109        HC    1  MOL    H109   109   0.1030000    1.0080
  110        CT    1  MOL    C110   110  -0.1200000   12.0115
  111        CT    1  MOL    C111   111   0.0970000   12.0115
  112        Cl    1  MOL   Cl112   112  -0.2000000   35.0650
  113        HC    1  MOL    H113   113   0.0600000    1.0080
  114        HC    1  MOL    H114   114   0.0600000    1.0080
  115        HC    1  MOL    H115   115   0.1030000    1.0080
  116        CT    1  MOL    C116   116  -0.1200000   12.0115
  117        CT    1  MOL    C117   117  -0.0060000   12.0115
  118        Cl    1  MOL   Cl118   118  -0.2000000   35.0650
  119        HC    1  MOL    H119   119   0.0600000    1.0080
  120        HC    1  MOL    H120   120   0.0600000    1.0080
  121        HC    1  MOL    H121   121   0.1030000    1.0080
  122        HC    1  MOL    H122   122   0.1030000    1.0080

[ bonds ]
      1      2   1      0.1529 224262.4000
      1      4   1      0.1090 284512.0000
      1      5   1      0.1090 284512.0000
      1      7   1      0.1090 284512.0000
      2      3   1      0.1781 205016.0000
      2      6   1      0.1090 284512.0000
      2      8   1      0.1529 224262.4000
      8      9   1      0.1529 224262.4000
      8     11   1      0.1090 284512.0000
      8     12   1      0.1090 284512.0000
      9     10   1      0.1781 205016.0000
      9     13   1      0.1090 284512.0000
      9     14   1      0.1529 224262.4000
     14     15   1      0.1529 224262.4000
     14     17   1      0.1090 284512.0000
     14     18   1      0.1090 284512.0000
     15     16   1      0.1781 205016.0000
     15     19   1      0.1090 284512.0000
     15     20   1      0.1529 224262.4000
     20     21   1      0.1529 224262.4000
     20     23   1      0.1090 284512.0000
     20     24   1      0.1090 284512.0000
     21     22   1      0.1781 205016.0000
     21     25   1      0.1090 284512.0000
     21     26   1      0.1529 224262.4000
     26     27   1      0.1529 224262.4000
     26     29   1      0.1090 284512.0000
     26     30   1      0.1090 284512.0000
     27     28   1      0.1781 205016.0000
     27     31   1      0.1090 284512.0000
     27     32   1      0.1529 224262.4000
     32     33   1      0.1529 224262.4000
     32     35   1      0.1090 284512.0000
     32     36   1      0.1090 284512.0000
     33     34   1      0.1781 205016.0000
     33     37   1      0.1090 284512.0000
     33     38   1      0.1529 224262.4000
     38     39   1      0.1529 224262.4000
     38     41   1      0.1090 284512.0000
     38     42   1      0.1090 284512.0000
     39     40   1      0.1781 205016.0000
     39     43   1      0.1090 284512.0000
     39     44   1      0.1529 224262.4000
     44     45   1      0.1529 224262.4000
     44     47   1      0.1090 284512.0000
     44     48   1      0.1090 284512.0000
     45     46   1      0.1781 205016.0000
     45     49   1      0.1090 284512.0000
     45     50   1      0.1529 224262.4000
     50     51   1      0.1529 224262.4000
     50     53   1      0.1090 284512.0000
     50     54   1      0.1090 284512.0000
     51     52   1      0.1781 205016.0000
     51     55   1      0.1090 284512.0000
     51     56   1      0.1529 224262.4000
     56     57   1      0.1529 224262.4000
     56     59   1      0.1090 284512.0000
     56     60   1      0.1090 284512.0000
     57     58   1      0.1781 205016.0000
     57     61   1      0.1090 284512.0000
     57     62   1      0.1529 224262.4000
     62     63   1      0.1529 224262.4000
     62     65   1      0.1090 284512.0000
     62     66   1      0.1090 284512.0000
     63     64   1      0.1781 205016.0000
     63     67   1      0.1090 284512.0000
     63     68   1      0.1529 224262.4000
     68     69   1      0.1529 224262.4000
     68     71   1      0.1090 284512.0000
     68     72   1      0.1090 284512.0000
     69     70   1      0.1781 205016.0000
     69     73   1      0.1090 284512.0000
     69     74   1      0.1529 224262.4000
     74     75   1      0.1529 224262.4000
     74     77   1      0.1090 284512.0000
     74     78   1      0.1090 284512.0000
     75     76   1      0.1781 205016.0000
     75     79   1      0.1090 284512.0000
     75     80   1      0.1529 224262.4000
     80     81   1      0.1529 224262.4000
     80     83   1      0.1090 284512.0000
     80     84   1      0.1090 284512.0000
     81     82   1      0.1781 205016.0000
     81     85   1      0.1090 284512.0000
     81     86   1      0.1529 224262.4000
     86     87   1      0.1529 224262.4000
     86     89   1      0.1090 284512.0000
     86     90   1      0.1090 284512.0000
     87     88   1      0.1781 205016.0000
     87     91   1      0.1090 284512.0000
     87     92   1      0.1529 224262.4000
     92     93   1      0.1529 224262.4000
     92     95   1      0.1090 284512.0000
     92     96   1      0.1090 284512.0000
     93     94   1      0.1781 205016.0000
     93     97   1      0.1090 284512.0000
     93     98   1      0.1529 224262.4000
     98     99   1      0.1529 224262.4000
     98    101   1      0.1090 284512.0000
     98    102   1      0.1090 284512.0000
     99    100   1      0.1781 205016.0000
     99    103   1      0.1090 284512.0000
     99    104   1      0.1529 224262.4000
    104    105   1      0.1529 224262.4000
    104    107   1      0.1090 284512.0000
    104    108   1      0.1090 284512.0000
    105    106   1      0.1781 205016.0000
    105    109   1      0.1090 284512.0000
    105    110   1      0.1529 224262.4000
    110    111   1      0.1529 224262.4000
    110    113   1      0.1090 284512.0000
    110    114   1      0.1090 284512.0000
    111    112   1      0.1781 205016.0000
    111    115   1      0.1090 284512.0000
    111    116   1      0.1529 224262.4000
    116    117   1      0.1529 224262.4000
    116    119   1      0.1090 284512.0000
    116    120   1      0.1090 284512.0000
    117    118   1      0.1781 205016.0000
    117    121   1      0.1090 284512.0000
    117    122   1      0.1090 284512.0000

[ pairs ]
; ai   aj   funct   fudge_QQ  charge_i   charge_j   c6    c12
      4      3   2   0.50000     0.0600000   -0.2000000   4.875282e-04  2.994032e-07
      4      6   2   0.50000     0.0600000    0.1030000   6.128906e-05  1.496315e-08
      4      8   2   0.50000     0.0600000   -0.1200000   2.494471e-04  1.671101e-07
      5      3   2   0.50000     0.0600000   -0.2000000   4.875282e-04  2.994032e-07
      5      6   2   0.50000     0.0600000    0.1030000   6.128906e-05  1.496315e-08
      5      8   2   0.50000     0.0600000   -0.1200000   2.494471e-04  1.671101e-07
      7      3   2   0.50000     0.0600000   -0.2000000   4.875282e-04  2.994032e-07
      7      6   2   0.50000     0.0600000    0.1030000   6.128906e-05  1.496315e-08
      7      8   2   0.50000     0.0600000   -0.1200000   2.494471e-04  1.671101e-07
      1      9   2   0.50000    -0.1800000    0.0970000   1.015252e-03  1.866303e-06
      1     11   2   0.50000    -0.1800000    0.0600000   2.494471e-04  1.671101e-07
      1     12   2   0.50000    -0.1800000    0.0600000   2.494471e-04  1.671101e-07
      3      9   2   0.50000    -0.2000000    0.0970000   1.984244e-03  3.343767e-06
      3     11   2   0.50000    -0.2000000    0.0600000   4.875282e-04  2.994032e-07
      3     12   2   0.50000    -0.2000000    0.0600000   4.875282e-04  2.994032e-07
      6      9   2   0.50000     0.1030000    0.0970000   2.494471e-04  1.671101e-07
      6     11   2   0.50000     0.1030000    0.0600000   6.128906e-05  1.496315e-08
      6     12   2   0.50000     0.1030000    0.0600000   6.128906e-05  1.496315e-08
      2     10   2   0.50000     0.0970000   -0.2000000   1.984244e-03  3.343767e-06
      2     13   2   0.50000     0.0970000    0.1030000   2.494471e-04  1.671101e-07
      2     14   2   0.50000     0.0970000   -0.1200000   1.015252e-03  1.866303e-06
     11     10   2   0.50000     0.0600000   -0.2000000   4.875282e-04  2.994032e-07
     11     13   2   0.50000     0.0600000    0.1030000   6.128906e-05  1.496315e-08
     11     14   2   0.50000     0.0600000   -0.1200000   2.494471e-04  1.671101e-07
     12     10   2   0.50000     0.0600000   -0.2000000   4.875282e-04  2.994032e-07
     12     13   2   0.50000     0.0600000    0.1030000   6.128906e-05  1.496315e-08
     12     14   2   0.50000     0.0600000   -0.1200000   2.494471e-04  1.671101e-07
      8     15   2   0.50000    -0.1200000    0.0970000   1.015252e-03  1.866303e-06
      8     17   2   0.50000    -0.1200000    0.0600000   2.494471e-04  1.671101e-07
      8     18   2   0.50000    -0.1200000    0.0600000   2.494471e-04  1.671101e-07
     10     15   2   0.50000    -0.2000000    0.0970000   1.984244e-03  3.343767e-06
     10     17   2   0.50000    -0.2000000    0.0600000   4.875282e-04  2.994032e-07
     10     18   2   0.50000    -0.2000000    0.0600000   4.875282e-04  2.994032e-07
     13     15   2   0.50000     0.1030000    0.0970000   2.494471e-04  1.671101e-07
     13     17   2   0.50000     0.1030000    0.0600000   6.128906e-05  1.496315e-08
     13     18   2   0.50000     0.1030000    0.0600000   6.128906e-05  1.496315e-08
      9     16   2   0.50000     0.0970000   -0.2000000   1.984244e-03  3.343767e-06
      9     19   2   0.50000     0.0970000    0.1030000   2.494471e-04  1.671101e-07
      9     20   2   0.50000     0.0970000   -0.1200000   1.015252e-03  1.866303e-06
     17     16   2   0.50000     0.0600000   -0.2000000   4.875282e-04  2.994032e-07
     17     19   2   0.50000     0.0600000    0.1030000   6.128906e-05  1.496315e-08
     17     20   2   0.50000     0.0600000   -0.1200000   2.494471e-04  1.671101e-07
     18     16   2   0.50000     0.0600000   -0.2000000   4.875282e-04  2.994032e-07
     18     19   2   0.50000     0.0600000    0.1030000   6.128906e-05  1.496315e-08
     18     20   2   0.50000     0.0600000   -0.1200000   2.494471e-04  1.671101e-07
     14     21   2   0.50000    -0.1200000    0.0970000   1.015252e-03  1.866303e-06
     14     23   2   0.50000    -0.1200000    0.0600000   2.494471e-04  1.671101e-07
     14     24   2   0.50000    -0.1200000    0.0600000   2.494471e-04  1.671101e-07
     16     21   2   0.50000    -0.2000000    0.0970000   1.984244e-03  3.343767e-06
     16     23   2   0.50000    -0.2000000    0.0600000   4.875282e-04  2.994032e-07
     16     24   2   0.50000    -0.2000000    0.0600000   4.875282e-04  2.994032e-07
     19     21   2   0.50000     0.1030000    0.0970000   2.494471e-04  1.671101e-07
     19     23   2   0.50000     0.1030000    0.0600000   6.128906e-05  1.496315e-08
     19     24   2   0.50000     0.1030000    0.0600000   6.128906e-05  1.496315e-08
     15     22   2   0.50000     0.0970000   -0.2000000   1.984244e-03  3.343767e-06
     15     25   2   0.50000     0.0970000    0.1030000   2.494471e-04  1.671101e-07
     15     26   2   0.50000     0.0970000   -0.1200000   1.015252e-03  1.866303e-06
     23     22   2   0.50000     0.0600000   -0.2000000   4.875282e-04  2.994032e-07
     23     25   2   0.50000     0.0600000    0.1030000   6.128906e-05  1.496315e-08
     23     26   2   0.50000     0.0600000   -0.1200000   2.494471e-04  1.671101e-07
     24     22   2   0.50000     0.0600000   -0.2000000   4.875282e-04  2.994032e-07
     24     25   2   0.50000     0.0600000    0.1030000   6.128906e-05  1.496315e-08
     24     26   2   0.50000     0.0600000   -0.1200000   2.494471e-04  1.671101e-07
     20     27   2   0.50000    -0.1200000    0.0970000   1.015252e-03  1.866303e-06
     20     29   2   0.50000    -0.1200000    0.0600000   2.494471e-04  1.671101e-07
     20     30   2   0.50000    -0.1200000    0.0600000   2.494471e-04  1.671101e-07
     22     27   2   0.50000    -0.2000000    0.0970000   1.984244e-03  3.343767e-06
     22     29   2   0.50000    -0.2000000    0.0600000   4.875282e-04  2.994032e-07
     22     30   2   0.50000    -0.2000000    0.0600000   4.875282e-04  2.994032e-07
     25     27   2   0.50000     0.1030000    0.0970000   2.494471e-04  1.671101e-07
     25     29   2   0.50000     0.1030000    0.0600000   6.128906e-05  1.496315e-08
     25     30   2   0.50000     0.1030000    0.0600000   6.128906e-05  1.496315e-08
     21     28   2   0.50000     0.0970000   -0.2000000   1.984244e-03  3.343767e-06
     21     31   2   0.50000     0.0970000    0.1030000   2.494471e-04  1.671101e-07
     21     32   2   0.50000     0.0970000   -0.1200000   1.015252e-03  1.866303e-06
     29     28   2   0.50000     0.0600000   -0.2000000   4.875282e-04  2.994032e-07
     29     31   2   0.50000     0.0600000    0.1030000   6.128906e-05  1.496315e-08
     29     32   2   0.50000     0.0600000   -0.1200000   2.494471e-04  1.671101e-07
     30     28   2   0.50000     0.0600000   -0.2000000   4.875282e-04  2.994032e-07
     30     31   2   0.50000     0.0600000    0.1030000   6.128906e-05  1.496315e-08
     30     32   2   0.50000     0.0600000   -0.1200000   2.494471e-04  1.671101e-07
     26     33   2   0.50000    -0.1200000    0.0970000   1.015252e-03  1.866303e-06
     26     35   2   0.50000    -0.1200000    0.0600000   2.494471e-04  1.671101e-07
     26     36   2   0.50000    -0.1200000    0.0600000   2.494471e-04  1.671101e-07
     28     33   2   0.50000    -0.2000000    0.0970000   1.984244e-03  3.343767e-06
     28     35   2   0.50000    -0.2000000    0.0600000   4.875282e-04  2.994032e-07
     28     36   2   0.50000    -0.2000000    0.0600000   4.875282e-04  2.994032e-07
     31     33   2   0.50000     0.1030000    0.0970000   2.494471e-04  1.671101e-07
     31     35   2   0.50000     0.1030000    0.0600000   6.128906e-05  1.496315e-08
     31     36   2   0.50000     0.1030000    0.0600000   6.128906e-05  1.496315e-08
     27     34   2   0.50000     0.0970000   -0.2000000   1.984244e-03  3.343767e-06
     27     37   2   0.50000     0.0970000    0.1030000   2.494471e-04  1.671101e-07
     27     38   2   0.50000     0.0970000   -0.1200000   1.015252e-03  1.866303e-06
     35     34   2   0.50000     0.0600000   -0.2000000   4.875282e-04  2.994032e-07
     35     37   2   0.50000     0.0600000    0.1030000   6.128906e-05  1.496315e-08
     35     38   2   0.50000     0.0600000   -0.1200000   2.494471e-04  1.671101e-07
     36     34   2   0.50000     0.0600000   -0.2000000   4.875282e-04  2.994032e-07
     36     37   2   0.50000     0.0600000    0.1030000   6.128906e-05  1.496315e-08
     36     38   2   0.50000     0.0600000   -0.1200000   2.494471e-04  1.671101e-07
     32     39   2   0.50000    -0.1200000    0.0970000   1.015252e-03  1.866303e-06
     32     41   2   0.50000    -0.1200000    0.0600000   2.494471e-04  1.671101e-07
     32     42   2   0.50000    -0.1200000    0.0600000   2.494471e-04  1.671101e-07
     34     39   2   0.50000    -0.2000000    0.0970000   1.984244e-03  3.343767e-06
     34     41   2   0.50000    -0.2000000    0.0600000   4.875282e-04  2.994032e-07
     34     42   2   0.50000    -0.2000000    0.0600000   4.875282e-04  2.994032e-07
     37     39   2   0.50000     0.1030000    0.0970000   2.494471e-04  1.671101e-07
     37     41   2   0.50000     0.1030000    0.0600000   6.128906e-05  1.496315e-08
     37     42   2   0.50000     0.1030000    0.0600000   6.128906e-05  1.496315e-08
     33     40   2   0.50000     0.0970000   -0.2000000   1.984244e-03  3.343767e-06
     33     43   2   0.50000     0.0970000    0.1030000   2.494471e-04  1.671101e-07
     33     44   2   0.50000     0.0970000   -0.1200000   1.015252e-03  1.866303e-06
     41     40   2   0.50000     0.0600000   -0.2000000   4.875282e-04  2.994032e-07
     41     43   2   0.50000     0.0600000    0.1030000   6.128906e-05  1.496315e-08
     41     44   2   0.50000     0.0600000   -0.1200000   2.494471e-04  1.671101e-07
     42     40   2   0.50000     0.0600000   -0.2000000   4.875282e-04  2.994032e-07
     42     43   2   0.50000     0.0600000    0.1030000   6.128906e-05  1.496315e-08
     42     44   2   0.50000     0.0600000   -0.1200000   2.494471e-04  1.671101e-07
     38     45   2   0.50000    -0.1200000    0.0970000   1.015252e-03  1.866303e-06
     38     47   2   0.50000    -0.1200000    0.0600000   2.494471e-04  1.671101e-07
     38     48   2   0.50000    -0.1200000    0.0600000   2.494471e-04  1.671101e-07
     40     45   2   0.50000    -0.2000000    0.0970000   1.984244e-03  3.343767e-06
     40     47   2   0.50000    -0.2000000    0.0600000   4.875282e-04  2.994032e-07
     40     48   2   0.50000    -0.2000000    0.0600000   4.875282e-04  2.994032e-07
     43     45   2   0.50000     0.1030000    0.0970000   2.494471e-04  1.671101e-07
     43     47   2   0.50000     0.1030000    0.0600000   6.128906e-05  1.496315e-08
     43     48   2   0.50000     0.1030000    0.0600000   6.128906e-05  1.496315e-08
     39     46   2   0.50000     0.0970000   -0.2000000   1.984244e-03  3.343767e-06
     39     49   2   0.50000     0.0970000    0.1030000   2.494471e-04  1.671101e-07
     39     50   2   0.50000     0.0970000   -0.1200000   1.015252e-03  1.866303e-06
     47     46   2   0.50000     0.0600000   -0.2000000   4.875282e-04  2.994032e-07
     47     49   2   0.50000     0.0600000    0.1030000   6.128906e-05  1.496315e-08
     47     50   2   0.50000     0.0600000   -0.1200000   2.494471e-04  1.671101e-07
     48     46   2   0.50000     0.0600000   -0.2000000   4.875282e-04  2.994032e-07
     48     49   2   0.50000     0.0600000    0.1030000   6.128906e-05  1.496315e-08
     48     50   2   0.50000     0.0600000   -0.1200000   2.494471e-04  1.671101e-07
     44     51   2   0.50000    -0.1200000    0.0970000   1.015252e-03  1.866303e-06
     44     53   2   0.50000    -0.1200000    0.0600000   2.494471e-04  1.671101e-07
     44     54   2   0.50000    -0.1200000    0.0600000   2.494471e-04  1.671101e-07
     46     51   2   0.50000    -0.2000000    0.0970000   1.984244e-03  3.343767e-06
     46     53   2   0.50000    -0.2000000    0.0600000   4.875282e-04  2.994032e-07
     46     54   2   0.50000    -0.2000000    0.0600000   4.875282e-04  2.994032e-07
     49     51   2   0.50000     0.1030000    0.0970000   2.494471e-04  1.671101e-07
     49     53   2   0.50000     0.1030000    0.0600000   6.128906e-05  1.496315e-08
     49     54   2   0.50000     0.1030000    0.0600000   6.128906e-05  1.496315e-08
     45     52   2   0.50000     0.0970000   -0.2000000   1.984244e-03  3.343767e-06
     45     55   2   0.50000     0.0970000    0.1030000   2.494471e-04  1.671101e-07
     45     56   2   0.50000     0.0970000   -0.1200000   1.015252e-03  1.866303e-06
     53     52   2   0.50000     0.0600000   -0.2000000   4.875282e-04  2.994032e-07
     53     55   2   0.50000     0.0600000    0.1030000   6.128906e-05  1.496315e-08
     53     56   2   0.50000     0.0600000   -0.1200000   2.494471e-04  1.671101e-07
     54     52   2   0.50000     0.0600000   -0.2000000   4.875282e-04  2.994032e-07
     54     55   2   0.50000     0.0600000    0.1030000   6.128906e-05  1.496315e-08
     54     56   2   0.50000     0.0600000   -0.1200000   2.494471e-04  1.671101e-07
     50     57   2   0.50000    -0.1200000    0.0970000   1.015252e-03  1.866303e-06
     50     59   2   0.50000    -0.1200000    0.0600000   2.494471e-04  1.671101e-07
     50     60   2   0.50000    -0.1200000    0.0600000   2.494471e-04  1.671101e-07
     52     57   2   0.50000    -0.2000000    0.0970000   1.984244e-03  3.343767e-06
     52     59   2   0.50000    -0.2000000    0.0600000   4.875282e-04  2.994032e-07
     52     60   2   0.50000    -0.2000000    0.0600000   4.875282e-04  2.994032e-07
     55     57   2   0.50000     0.1030000    0.0970000   2.494471e-04  1.671101e-07
     55     59   2   0.50000     0.1030000    0.0600000   6.128906e-05  1.496315e-08
     55     60   2   0.50000     0.1030000    0.0600000   6.128906e-05  1.496315e-08
     51     58   2   0.50000     0.0970000   -0.2000000   1.984244e-03  3.343767e-06
     51     61   2   0.50000     0.0970000    0.1030000   2.494471e-04  1.671101e-07
     51     62   2   0.50000     0.0970000   -0.1200000   1.015252e-03  1.866303e-06
     59     58   2   0.50000     0.0600000   -0.2000000   4.875282e-04  2.994032e-07
     59     61   2   0.50000     0.0600000    0.1030000   6.128906e-05  1.496315e-08
     59     62   2   0.50000     0.0600000   -0.1200000   2.494471e-04  1.671101e-07
     60     58   2   0.50000     0.0600000   -0.2000000   4.875282e-04  2.994032e-07
     60     61   2   0.50000     0.0600000    0.1030000   6.128906e-05  1.496315e-08
     60     62   2   0.50000     0.0600000   -0.1200000   2.494471e-04  1.671101e-07
     56     63   2   0.50000    -0.1200000    0.0970000   1.015252e-03  1.866303e-06
     56     65   2   0.50000    -0.1200000    0.0600000   2.494471e-04  1.671101e-07
     56     66   2   0.50000    -0.1200000    0.0600000   2.494471e-04  1.671101e-07
     58     63   2   0.50000    -0.2000000    0.0970000   1.984244e-03  3.343767e-06
     58     65   2   0.50000    -0.2000000    0.0600000   4.875282e-04  2.994032e-07
     58     66   2   0.50000    -0.2000000    0.0600000   4.875282e-04  2.994032e-07
     61     63   2   0.50000     0.1030000    0.0970000   2.494471e-04  1.671101e-07
     61     65   2   0.50000     0.1030000    0.0600000   6.128906e-05  1.496315e-08
     61     66   2   0.50000     0.1030000    0.0600000   6.128906e-05  1.496315e-08
     57     64   2   0.50000     0.0970000   -0.2000000   1.984244e-03  3.343767e-06
     57     67   2   0.50000     0.0970000    0.1030000   2.494471e-04  1.671101e-07
     57     68   2   0.50000     0.0970000   -0.1200000   1.015252e-03  1.866303e-06
     65     64   2   0.50000     0.0600000   -0.2000000   4.875282e-04  2.994032e-07
     65     67   2   0.50000     0.0600000    0.1030000   6.128906e-05  1.496315e-08
     65     68   2   0.50000     0.0600000   -0.1200000   2.494471e-04  1.671101e-07
     66     64   2   0.50000     0.0600000   -0.2000000   4.875282e-04  2.994032e-07
     66     67   2   0.50000     0.0600000    0.1030000   6.128906e-05  1.496315e-08
     66     68   2   0.50000     0.0600000   -0.1200000   2.494471e-04  1.671101e-07
     62     69   2   0.50000    -0.1200000    0.0970000   1.015252e-03  1.866303e-06
     62     71   2   0.50000    -0.1200000    0.0600000   2.494471e-04  1.671101e-07
     62     72   2   0.50000    -0.1200000    0.0600000   2.494471e-04  1.671101e-07
     64     69   2   0.50000    -0.2000000    0.0970000   1.984244e-03  3.343767e-06
     64     71   2   0.50000    -0.2000000    0.0600000   4.875282e-04  2.994032e-07
     64     72   2   0.50000    -0.2000000    0.0600000   4.875282e-04  2.994032e-07
     67     69   2   0.50000     0.1030000    0.0970000   2.494471e-04  1.671101e-07
     67     71   2   0.50000     0.1030000    0.0600000   6.128906e-05  1.496315e-08
     67     72   2   0.50000     0.1030000    0.0600000   6.128906e-05  1.496315e-08
     63     70   2   0.50000     0.0970000   -0.2000000   1.984244e-03  3.343767e-06
     63     73   2   0.50000     0.0970000    0.1030000   2.494471e-04  1.671101e-07
     63     74   2   0.50000     0.0970000   -0.1200000   1.015252e-03  1.866303e-06
     71     70   2   0.50000     0.0600000   -0.2000000   4.875282e-04  2.994032e-07
     71     73   2   0.50000     0.0600000    0.1030000   6.128906e-05  1.496315e-08
     71     74   2   0.50000     0.0600000   -0.1200000   2.494471e-04  1.671101e-07
     72     70   2   0.50000     0.0600000   -0.2000000   4.875282e-04  2.994032e-07
     72     73   2   0.50000     0.0600000    0.1030000   6.128906e-05  1.496315e-08
     72     74   2   0.50000     0.0600000   -0.1200000   2.494471e-04  1.671101e-07
     68     75   2   0.50000    -0.1200000    0.0970000   1.015252e-03  1.866303e-06
     68     77   2   0.50000    -0.1200000    0.0600000   2.494471e-04  1.671101e-07
     68     78   2   0.50000    -0.1200000    0.0600000   2.494471e-04  1.671101e-07
     70     75   2   0.50000    -0.2000000    0.0970000   1.984244e-03  3.343767e-06
     70     77   2   0.50000    -0.2000000    0.0600000   4.875282e-04  2.994032e-07
     70     78   2   0.50000    -0.2000000    0.0600000   4.875282e-04  2.994032e-07
     73     75   2   0.50000     0.1030000    0.0970000   2.494471e-04  1.671101e-07
     73     77   2   0.50000     0.1030000    0.0600000   6.128906e-05  1.496315e-08
     73     78   2   0.50000     0.1030000    0.0600000   6.128906e-05  1.496315e-08
     69     76   2   0.50000     0.0970000   -0.2000000   1.984244e-03  3.343767e-06
     69     79   2   0.50000     0.0970000    0.1030000   2.494471e-04  1.671101e-07
     69     80   2   0.50000     0.0970000   -0.1200000   1.015252e-03  1.866303e-06
     77     76   2   0.50000     0.0600000   -0.2000000   4.875282e-04  2.994032e-07
     77     79   2   0.50000     0.0600000    0.1030000   6.128906e-05  1.496315e-08
     77     80   2   0.50000     0.0600000   -0.1200000   2.494471e-04  1.671101e-07
     78     76   2   0.50000     0.0600000   -0.2000000   4.875282e-04  2.994032e-07
     78     79   2   0.50000     0.0600000    0.1030000   6.128906e-05  1.496315e-08
     78     80   2   0.50000     0.0600000   -0.1200000   2.494471e-04  1.671101e-07
     74     81   2   0.50000    -0.1200000    0.0970000   1.015252e-03  1.866303e-06
     74     83   2   0.50000    -0.1200000    0.0600000   2.494471e-04  1.671101e-07
     74     84   2   0.50000    -0.1200000    0.0600000   2.494471e-04  1.671101e-07
     76     81   2   0.50000    -0.2000000    0.0970000   1.984244e-03  3.343767e-06
     76     83   2   0.50000    -0.2000000    0.0600000   4.875282e-04  2.994032e-07
     76     84   2   0.50000    -0.2000000    0.0600000   4.875282e-04  2.994032e-07
     79     81   2   0.50000     0.1030000    0.0970000   2.494471e-04  1.671101e-07
     79     83   2   0.50000     0.1030000    0.0600000   6.128906e-05  1.496315e-08
     79     84   2   0.50000     0.1030000    0.0600000   6.128906e-05  1.496315e-08
     75     82   2   0.50000     0.0970000   -0.2000000   1.984244e-03  3.343767e-06
     75     85   2   0.50000     0.0970000    0.1030000   2.494471e-04  1.671101e-07
     75     86   2   0.50000     0.0970000   -0.1200000   1.015252e-03  1.866303e-06
     83     82   2   0.50000     0.0600000   -0.2000000   4.875282e-04  2.994032e-07
     83     85   2   0.50000     0.0600000    0.1030000   6.128906e-05  1.496315e-08
     83     86   2   0.50000     0.0600000   -0.1200000   2.494471e-04  1.671101e-07
     84     82   2   0.50000     0.0600000   -0.2000000   4.875282e-04  2.994032e-07
     84     85   2   0.50000     0.0600000    0.1030000   6.128906e-05  1.496315e-08
     84     86   2   0.50000     0.0600000   -0.1200000   2.494471e-04  1.671101e-07
     80     87   2   0.50000    -0.1200000    0.0970000   1.015252e-03  1.866303e-06
     80     89   2   0.50000    -0.1200000    0.0600000   2.494471e-04  1.671101e-07
     80     90   2   0.50000    -0.1200000    0.0600000   2.494471e-04  1.671101e-07
     82     87   2   0.50000    -0.2000000    0.0970000   1.984244e-03  3.343767e-06
     82     89   2   0.50000    -0.2000000    0.0600000   4.875282e-04  2.994032e-07
     82     90   2   0.50000    -0.2000000    0.0600000   4.875282e-04  2.994032e-07
     85     87   2   0.50000     0.1030000    0.0970000   2.494471e-04  1.671101e-07
     85     89   2   0.50000     0.1030000    0.0600000   6.128906e-05  1.496315e-08
     85     90   2   0.50000     0.1030000    0.0600000   6.128906e-05  1.496315e-08
     81     88   2   0.50000     0.0970000   -0.2000000   1.984244e-03  3.343767e-06
     81     91   2   0.50000     0.0970000    0.1030000   2.494471e-04  1.671101e-07
     81     92   2   0.50000     0.0970000   -0.1200000   1.015252e-03  1.866303e-06
     89     88   2   0.50000     0.0600000   -0.2000000   4.875282e-04  2.994032e-07
     89     91   2   0.50000     0.0600000    0.1030000   6.128906e-05  1.496315e-08
     89     92   2   0.50000     0.0600000   -0.1200000   2.494471e-04  1.671101e-07
     90     88   2   0.50000     0.0600000   -0.2000000   4.875282e-04  2.994032e-07
     90     91   2   0.50000     0.0600000    0.1030000   6.128906e-05  1.496315e-08
     90     92   2   0.50000     0.0600000   -0.1200000   2.494471e-04  1.671101e-07
     86     93   2   0.50000    -0.1200000    0.0970000   1.015252e-03  1.866303e-06
     86     95   2   0.50000    -0.1200000    0.0600000   2.494471e-04  1.671101e-07
     86     96   2   0.50000    -0.1200000    0.0600000   2.494471e-04  1.671101e-07
     88     93   2   0.50000    -0.2000000    0.0970000   1.984244e-03  3.343767e-06
     88     95   2   0.50000    -0.2000000    0.0600000   4.875282e-04  2.994032e-07
     88     96   2   0.50000    -0.2000000    0.0600000   4.875282e-04  2.994032e-07
     91     93   2   0.50000     0.1030000    0.0970000   2.494471e-04  1.671101e-07
     91     95   2   0.50000     0.1030000    0.0600000   6.128906e-05  1.496315e-08
     91     96   2   0.50000     0.1030000    0.0600000   6.128906e-05  1.496315e-08
     87     94   2   0.50000     0.0970000   -0.2000000   1.984244e-03  3.343767e-06
     87     97   2   0.50000     0.0970000    0.1030000   2.494471e-04  1.671101e-07
     87     98   2   0.50000     0.0970000   -0.1200000   1.015252e-03  1.866303e-06
     95     94   2   0.50000     0.0600000   -0.2000000   4.875282e-04  2.994032e-07
     95     97   2   0.50000     0.0600000    0.1030000   6.128906e-05  1.496315e-08
     95     98   2   0.50000     0.0600000   -0.1200000   2.494471e-04  1.671101e-07
     96     94   2   0.50000     0.0600000   -0.2000000   4.875282e-04  2.994032e-07
     96     97   2   0.50000     0.0600000    0.1030000   6.128906e-05  1.496315e-08
     96     98   2   0.50000     0.0600000   -0.1200000   2.494471e-04  1.671101e-07
     92     99   2   0.50000    -0.1200000    0.0970000   1.015252e-03  1.866303e-06
     92    101   2   0.50000    -0.1200000    0.0600000   2.494471e-04  1.671101e-07
     92    102   2   0.50000    -0.1200000    0.0600000   2.494471e-04  1.671101e-07
     94     99   2   0.50000    -0.2000000    0.0970000   1.984244e-03  3.343767e-06
     94    101   2   0.50000    -0.2000000    0.0600000   4.875282e-04  2.994032e-07
     94    102   2   0.50000    -0.2000000    0.0600000   4.875282e-04  2.994032e-07
     97     99   2   0.50000     0.1030000    0.0970000   2.494471e-04  1.671101e-07
     97    101   2   0.50000     0.1030000    0.0600000   6.128906e-05  1.496315e-08
     97    102   2   0.50000     0.1030000    0.0600000   6.128906e-05  1.496315e-08
     93    100   2   0.50000     0.0970000   -0.2000000   1.984244e-03  3.343767e-06
     93    103   2   0.50000     0.0970000    0.1030000   2.494471e-04  1.671101e-07
     93    104   2   0.50000     0.0970000   -0.1200000   1.015252e-03  1.866303e-06
    101    100   2   0.50000     0.0600000   -0.2000000   4.875282e-04  2.994032e-07
    101    103   2   0.50000     0.0600000    0.1030000   6.128906e-05  1.496315e-08
    101    104   2   0.50000     0.0600000   -0.1200000   2.494471e-04  1.671101e-07
    102    100   2   0.50000     0.0600000   -0.2000000   4.875282e-04  2.994032e-07
    102    103   2   0.50000     0.0600000    0.1030000   6.128906e-05  1.496315e-08
    102    104   2   0.50000     0.0600000   -0.1200000   2.494471e-04  1.671101e-07
     98    105   2   0.50000    -0.1200000    0.0970000   1.015252e-03  1.866303e-06
     98    107   2   0.50000    -0.1200000    0.0600000   2.494471e-04  1.671101e-07
     98    108   2   0.50000    -0.1200000    0.0600000   2.494471e-04  1.671101e-07
    100    105   2   0.50000    -0.2000000    0.0970000   1.984244e-03  3.343767e-06
    100    107   2   0.50000    -0.2000000    0.0600000   4.875282e-04  2.994032e-07
    100    108   2   0.50000    -0.2000000    0.0600000   4.875282e-04  2.994032e-07
    103    105   2   0.50000     0.1030000    0.0970000   2.494471e-04  1.671101e-07
    103    107   2   0.50000     0.1030000    0.0600000   6.128906e-05  1.496315e-08
    103    108   2   0.50000     0.1030000    0.0600000   6.128906e-05  1.496315e-08
     99    106   2   0.50000     0.0970000   -0.2000000   1.984244e-03  3.343767e-06
     99    109   2   0.50000     0.0970000    0.1030000   2.494471e-04  1.671101e-07
     99    110   2   0.50000     0.0970000   -0.1200000   1.015252e-03  1.866303e-06
    107    106   2   0.50000     0.0600000   -0.2000000   4.875282e-04  2.994032e-07
    107    109   2   0.50000     0.0600000    0.1030000   6.128906e-05  1.496315e-08
    107    110   2   0.50000     0.0600000   -0.1200000   2.494471e-04  1.671101e-07
    108    106   2   0.50000     0.0600000   -0.2000000   4.875282e-04  2.994032e-07
    108    109   2   0.50000     0.0600000    0.1030000   6.128906e-05  1.496315e-08
    108    110   2   0.50000     0.0600000   -0.1200000   2.494471e-04  1.671101e-07
    104    111   2   0.50000    -0.1200000    0.0970000   1.015252e-03  1.866303e-06
    104    113   2   0.50000    -0.1200000    0.0600000   2.494471e-04  1.671101e-07
    104    114   2   0.50000    -0.1200000    0.0600000   2.494471e-04  1.671101e-07
    106    111   2   0.50000    -0.2000000    0.0970000   1.984244e-03  3.343767e-06
    106    113   2   0.50000    -0.2000000    0.0600000   4.875282e-04  2.994032e-07
    106    114   2   0.50000    -0.2000000    0.0600000   4.875282e-04  2.994032e-07
    109    111   2   0.50000     0.1030000    0.0970000   2.494471e-04  1.671101e-07
    109    113   2   0.50000     0.1030000    0.0600000   6.128906e-05  1.496315e-08
    109    114   2   0.50000     0.1030000    0.0600000   6.128906e-05  1.496315e-08
    105    112   2   0.50000     0.0970000   -0.2000000   1.984244e-03  3.343767e-06
    105    115   2   0.50000     0.0970000    0.1030000   2.494471e-04  1.671101e-07
    105    116   2   0.50000     0.0970000   -0.1200000   1.015252e-03  1.866303e-06
    113    112   2   0.50000     0.0600000   -0.2000000   4.875282e-04  2.994032e-07
    113    115   2   0.50000     0.0600000    0.1030000   6.128906e-05  1.496315e-08
    113    116   2   0.50000     0.0600000   -0.1200000   2.494471e-04  1.671101e-07
    114    112   2   0.50000     0.0600000   -0.2000000   4.875282e-04  2.994032e-07
    114    115   2   0.50000     0.0600000    0.1030000   6.128906e-05  1.496315e-08
    114    116   2   0.50000     0.0600000   -0.1200000   2.494471e-04  1.671101e-07
    110    117   2   0.50000    -0.1200000   -0.0060000   1.015252e-03  1.866303e-06
    110    119   2   0.50000    -0.1200000    0.0600000   2.494471e-04  1.671101e-07
    110    120   2   0.50000    -0.1200000    0.0600000   2.494471e-04  1.671101e-07
    112    117   2   0.50000    -0.2000000   -0.0060000   1.984244e-03  3.343767e-06
    112    119   2   0.50000    -0.2000000    0.0600000   4.875282e-04  2.994032e-07
    112    120   2   0.50000    -0.2000000    0.0600000   4.875282e-04  2.994032e-07
    115    117   2   0.50000     0.1030000   -0.0060000   2.494471e-04  1.671101e-07
    115    119   2   0.50000     0.1030000    0.0600000   6.128906e-05  1.496315e-08
    115    120   2   0.50000     0.1030000    0.0600000   6.128906e-05  1.496315e-08
    111    118   2   0.50000     0.0970000   -0.2000000   1.984244e-03  3.343767e-06
    111    121   2   0.50000     0.0970000    0.1030000   2.494471e-04  1.671101e-07
    111    122   2   0.50000     0.0970000    0.1030000   2.494471e-04  1.671101e-07
    119    118   2   0.50000     0.0600000   -0.2000000   4.875282e-04  2.994032e-07
    119    121   2   0.50000     0.0600000    0.1030000   6.128906e-05  1.496315e-08
    119    122   2   0.50000     0.0600000    0.1030000   6.128906e-05  1.496315e-08
    120    118   2   0.50000     0.0600000   -0.2000000   4.875282e-04  2.994032e-07
    120    121   2   0.50000     0.0600000    0.1030000   6.128906e-05  1.496315e-08
    120    122   2   0.50000     0.0600000    0.1030000   6.128906e-05  1.496315e-08

[ angles ]
; ai  aj  ak
      2      1      4   1    110.7000    313.8000
      2      1      5   1    110.7000    313.8000
      2      1      7   1    110.7000    313.8000
      4      1      5   1    107.8000    276.1440
      4      1      7   1    107.8000    276.1440
      5      1      7   1    107.8000    276.1440
      1      2      3   1    109.8000    577.3920
      1      2      6   1    110.7000    313.8000
      1      2      8   1    112.7000    488.2728
      3      2      6   1    107.6000    426.7680
      3      2      8   1    109.8000    577.3920
      6      2      8   1    110.7000    313.8000
      2      8      9   1    112.7000    488.2728
      2      8     11   1    110.7000    313.8000
      2      8     12   1    110.7000    313.8000
      9      8     11   1    110.7000    313.8000
      9      8     12   1    110.7000    313.8000
     11      8     12   1    107.8000    276.1440
      8      9     10   1    109.8000    577.3920
      8      9     13   1    110.7000    313.8000
      8      9     14   1    112.7000    488.2728
     10      9     13   1    107.6000    426.7680
     10      9     14   1    109.8000    577.3920
     13      9     14   1    110.7000    313.8000
      9     14     15   1    112.7000    488.2728
      9     14     17   1    110.7000    313.8000
      9     14     18   1    110.7000    313.8000
     15     14     17   1    110.7000    313.8000
     15     14     18   1    110.7000    313.8000
     17     14     18   1    107.8000    276.1440
     14     15     16   1    109.8000    577.3920
     14     15     19   1    110.7000    313.8000
     14     15     20   1    112.7000    488.2728
     16     15     19   1    107.6000    426.7680
     16     15     20   1    109.8000    577.3920
     19     15     20   1    110.7000    313.8000
     15     20     21   1    112.7000    488.2728
     15     20     23   1    110.7000    313.8000
     15     20     24   1    110.7000    313.8000
     21     20     23   1    110.7000    313.8000
     21     20     24   1    110.7000    313.8000
     23     20     24   1    107.8000    276.1440
     20     21     22   1    109.8000    577.3920
     20     21     25   1    110.7000    313.8000
     20     21     26   1    112.7000    488.2728
     22     21     25   1    107.6000    426.7680
     22     21     26   1    109.8000    577.3920
     25     21     26   1    110.7000    313.8000
     21     26     27   1    112.7000    488.2728
     21     26     29   1    110.7000    313.8000
     21     26     30   1    110.7000    313.8000
     27     26     29   1    110.7000    313.8000
     27     26     30   1    110.7000    313.8000
     29     26     30   1    107.8000    276.1440
     26     27     28   1    109.8000    577.3920
     26     27     31   1    110.7000    313.8000
     26     27     32   1    112.7000    488.2728
     28     27     31   1    107.6000    426.7680
     28     27     32   1    109.8000    577.3920
     31     27     32   1    110.7000    313.8000
     27     32     33   1    112.7000    488.2728
     27     32     35   1    110.7000    313.8000
     27     32     36   1    110.7000    313.8000
     33     32     35   1    110.7000    313.8000
     33     32     36   1    110.7000    313.8000
     35     32     36   1    107.8000    276.1440
     32     33     34   1    109.8000    577.3920
     32     33     37   1    110.7000    313.8000
     32     33     38   1    112.7000    488.2728
     34     33     37   1    107.6000    426.7680
     34     33     38   1    109.8000    577.3920
     37     33     38   1    110.7000    313.8000
     33     38     39   1    112.7000    488.2728
     33     38     41   1    110.7000    313.8000
     33     38     42   1    110.7000    313.8000
     39     38     41   1    110.7000    313.8000
     39     38     42   1    110.7000    313.8000
     41     38     42   1    107.8000    276.1440
     38     39     40   1    109.8000    577.3920
     38     39     43   1    110.7000    313.8000
     38     39     44   1    112.7000    488.2728
     40     39     43   1    107.6000    426.7680
     40     39     44   1    109.8000    577.3920
     43     39     44   1    110.7000    313.8000
     39     44     45   1    112.7000    488.2728
     39     44     47   1    110.7000    313.8000
     39     44     48   1    110.7000    313.8000
     45     44     47   1    110.7000    313.8000
     45     44     48   1    110.7000    313.8000
     47     44     48   1    107.8000    276.1440
     44     45     46   1    109.8000    577.3920
     44     45     49   1    110.7000    313.8000
     44     45     50   1    112.7000    488.2728
     46     45     49   1    107.6000    426.7680
     46     45     50   1    109.8000    577.3920
     49     45     50   1    110.7000    313.8000
     45     50     51   1    112.7000    488.2728
     45     50     53   1    110.7000    313.8000
     45     50     54   1    110.7000    313.8000
     51     50     53   1    110.7000    313.8000
     51     50     54   1    110.7000    313.8000
     53     50     54   1    107.8000    276.1440
     50     51     52   1    109.8000    577.3920
     50     51     55   1    110.7000    313.8000
     50     51     56   1    112.7000    488.2728
     52     51     55   1    107.6000    426.7680
     52     51     56   1    109.8000    577.3920
     55     51     56   1    110.7000    313.8000
     51     56     57   1    112.7000    488.2728
     51     56     59   1    110.7000    313.8000
     51     56     60   1    110.7000    313.8000
     57     56     59   1    110.7000    313.8000
     57     56     60   1    110.7000    313.8000
     59     56     60   1    107.8000    276.1440
     56     57     58   1    109.8000    577.3920
     56     57     61   1    110.7000    313.8000
     56     57     62   1    112.7000    488.2728
     58     57     61   1    107.6000    426.7680
     58     57     62   1    109.8000    577.3920
     61     57     62   1    110.7000    313.8000
     57     62     63   1    112.7000    488.2728
     57     62     65   1    110.7000    313.8000
     57     62     66   1    110.7000    313.8000
     63     62     65   1    110.7000    313.8000
     63     62     66   1    110.7000    313.8000
     65     62     66   1    107.8000    276.1440
     62     63     64   1    109.8000    577.3920
     62     63     67   1    110.7000    313.8000
     62     63     68   1    112.7000    488.2728
     64     63     67   1    107.6000    426.7680
     64     63     68   1    109.8000    577.3920
     67     63     68   1    110.7000    313.8000
     63     68     69   1    112.7000    488.2728
     63     68     71   1    110.7000    313.8000
     63     68     72   1    110.7000    313.8000
     69     68     71   1    110.7000    313.8000
     69     68     72   1    110.7000    313.8000
     71     68     72   1    107.8000    276.1440
     68     69     70   1    109.8000    577.3920
     68     69     73   1    110.7000    313.8000
     68     69     74   1    112.7000    488.2728
     70     69     73   1    107.6000    426.7680
     70     69     74   1    109.8000    577.3920
     73     69     74   1    110.7000    313.8000
     69     74     75   1    112.7000    488.2728
     69     74     77   1    110.7000    313.8000
     69     74     78   1    110.7000    313.8000
     75     74     77   1    110.7000    313.8000
     75     74     78   1    110.7000    313.8000
     77     74     78   1    107.8000    276.1440
     74     75     76   1    109.8000    577.3920
     74     75     79   1    110.7000    313.8000
     74     75     80   1    112.7000    488.2728
     76     75     79   1    107.6000    426.7680
     76     75     80   1    109.8000    577.3920
     79     75     80   1    110.7000    313.8000
     75     80     81   1    112.7000    488.2728
     75     80     83   1    110.7000    313.8000
     75     80     84   1    110.7000    313.8000
     81     80     83   1    110.7000    313.8000
     81     80     84   1    110.7000    313.8000
     83     80     84   1    107.8000    276.1440
     80     81     82   1    109.8000    577.3920
     80     81     85   1    110.7000    313.8000
     80     81     86   1    112.7000    488.2728
     82     81     85   1    107.6000    426.7680
     82     81     86   1    109.8000    577.3920
     85     81     86   1    110.7000    313.8000
     81     86     87   1    112.7000    488.2728
     81     86     89   1    110.7000    313.8000
     81     86     90   1    110.7000    313.8000
     87     86     89   1    110.7000    313.8000
     87     86     90   1    110.7000    313.8000
     89     86     90   1    107.8000    276.1440
     86     87     88   1    109.8000    577.3920
     86     87     91   1    110.7000    313.8000
     86     87     92   1    112.7000    488.2728
     88     87     91   1    107.6000    426.7680
     88     87     92   1    109.8000    577.3920
     91     87     92   1    110.7000    313.8000
     87     92     93   1    112.7000    488.2728
     87     92     95   1    110.7000    313.8000
     87     92     96   1    110.7000    313.8000
     93     92     95   1    110.7000    313.8000
     93     92     96   1    110.7000    313.8000
     95     92     96   1    107.8000    276.1440
     92     93     94   1    109.8000    577.3920
     92     93     97   1    110.7000    313.8000
     92     93     98   1    112.7000    488.2728
     94     93     97   1    107.6000    426.7680
     94     93     98   1    109.8000    577.3920
     97     93     98   1    110.7000    313.8000
     93     98     99   1    112.7000    488.2728
     93     98    101   1    110.7000    313.8000
     93     98    102   1    110.7000    313.8000
     99     98    101   1    110.7000    313.8000
     99     98    102   1    110.7000    313.8000
    101     98    102   1    107.8000    276.1440
     98     99    100   1    109.8000    577.3920
     98     99    103   1    110.7000    313.8000
     98     99    104   1    112.7000    488.2728
    100     99    103   1    107.6000    426.7680
    100     99    104   1    109.8000    577.3920
    103     99    104   1    110.7000    313.8000
     99    104    105   1    112.7000    488.2728
     99    104    107   1    110.7000    313.8000
     99    104    108   1    110.7000    313.8000
    105    104    107   1    110.7000    313.8000
    105    104    108   1    110.7000    313.8000
    107    104    108   1    107.8000    276.1440
    104    105    106   1    109.8000    577.3920
    104    105    109   1    110.7000    313.8000
    104    105    110   1    112.7000    488.2728
    106    105    109   1    107.6000    426.7680
    106    105    110   1    109.8000    577.3920
    109    105    110   1    110.7000    313.8000
    105    110    111   1    112.7000    488.2728
    105    110    113   1    110.7000    313.8000
    105    110    114   1    110.7000    313.8000
    111    110    113   1    110.7000    313.8000
    111    110    114   1    110.7000    313.8000
    113    110    114   1    107.8000    276.1440
    110    111    112   1    109.8000    577.3920
    110    111    115   1    110.7000    313.8000
    110    111    116   1    112.7000    488.2728
    112    111    115   1    107.6000    426.7680
    112    111    116   1    109.8000    577.3920
    115    111    116   1    110.7000    313.8000
    111    116    117   1    112.7000    488.2728
    111    116    119   1    110.7000    313.8000
    111    116    120   1    110.7000    313.8000
    117    116    119   1    110.7000    313.8000
    117    116    120   1    110.7000    313.8000
    119    116    120   1    107.8000    276.1440
    116    117    118   1    109.8000    577.3920
    116    117    121   1    110.7000    313.8000
    116    117    122   1    110.7000    313.8000
    118    117    121   1    107.6000    426.7680
    118    117    122   1    107.6000    426.7680
    121    117    122   1    107.8000    276.1440

[ dihedrals ]
; Proper dihedrals
      4      1      2      3   5     0.00000     0.00000     2.25936  0.0
      4      1      2      6   5     0.00000     0.00000     1.25520  0.0
      4      1      2      8   5     0.00000     0.00000     1.25520  0.0
      5      1      2      3   5     0.00000     0.00000     2.25936  0.0
      5      1      2      6   5     0.00000     0.00000     1.25520  0.0
      5      1      2      8   5     0.00000     0.00000     1.25520  0.0
      7      1      2      3   5     0.00000     0.00000     2.25936  0.0
      7      1      2      6   5     0.00000     0.00000     1.25520  0.0
      7      1      2      8   5     0.00000     0.00000     1.25520  0.0
      1      2      8      9   5     4.74884    -0.63178     1.67360  0.0
      1      2      8     11   5     0.00000     0.00000     1.25520  0.0
      1      2      8     12   5     0.00000     0.00000     1.25520  0.0
      3      2      8      9   5     2.97901    -1.22591     2.79073  0.0
      3      2      8     11   5     0.00000     0.00000     2.25936  0.0
      3      2      8     12   5     0.00000     0.00000     2.25936  0.0
      6      2      8      9   5     0.00000     0.00000     1.25520  0.0
      6      2      8     11   5     0.00000     0.00000     1.25520  0.0
      6      2      8     12   5     0.00000     0.00000     1.25520  0.0
      2      8      9     10   5     2.97901    -1.22591     2.79073  0.0
      2      8      9     13   5     0.00000     0.00000     1.25520  0.0
      2      8      9     14   5     4.74884    -0.63178     1.67360  0.0
     11      8      9     10   5     0.00000     0.00000     2.25936  0.0
     11      8      9     13   5     0.00000     0.00000     1.25520  0.0
     11      8      9     14   5     0.00000     0.00000     1.25520  0.0
     12      8      9     10   5     0.00000     0.00000     2.25936  0.0
     12      8      9     13   5     0.00000     0.00000     1.25520  0.0
     12      8      9     14   5     0.00000     0.00000     1.25520  0.0
      8      9     14     15   5     4.74884    -0.63178     1.67360  0.0
      8      9     14     17   5     0.00000     0.00000     1.25520  0.0
      8      9     14     18   5     0.00000     0.00000     1.25520  0.0
     10      9     14     15   5     2.97901    -1.22591     2.79073  0.0
     10      9     14     17   5     0.00000     0.00000     2.25936  0.0
     10      9     14     18   5     0.00000     0.00000     2.25936  0.0
     13      9     14     15   5     0.00000     0.00000     1.25520  0.0
     13      9     14     17   5     0.00000     0.00000     1.25520  0.0
     13      9     14     18   5     0.00000     0.00000     1.25520  0.0
      9     14     15     16   5     2.97901    -1.22591     2.79073  0.0
      9     14     15     19   5     0.00000     0.00000     1.25520  0.0
      9     14     15     20   5     4.74884    -0.63178     1.67360  0.0
     17     14     15     16   5     0.00000     0.00000     2.25936  0.0
     17     14     15     19   5     0.00000     0.00000     1.25520  0.0
     17     14     15     20   5     0.00000     0.00000     1.25520  0.0
     18     14     15     16   5     0.00000     0.00000     2.25936  0.0
     18     14     15     19   5     0.00000     0.00000     1.25520  0.0
     18     14     15     20   5     0.00000     0.00000     1.25520  0.0
     14     15     20     21   5     4.74884    -0.63178     1.67360  0.0
     14     15     20     23   5     0.00000     0.00000     1.25520  0.0
     14     15     20     24   5     0.00000     0.00000     1.25520  0.0
     16     15     20     21   5     2.97901    -1.22591     2.79073  0.0
     16     15     20     23   5     0.00000     0.00000     2.25936  0.0
     16     15     20     24   5     0.00000     0.00000     2.25936  0.0
     19     15     20     21   5     0.00000     0.00000     1.25520  0.0
     19     15     20     23   5     0.00000     0.00000     1.25520  0.0
     19     15     20     24   5     0.00000     0.00000     1.25520  0.0
     15     20     21     22   5     2.97901    -1.22591     2.79073  0.0
     15     20     21     25   5     0.00000     0.00000     1.25520  0.0
     15     20     21     26   5     4.74884    -0.63178     1.67360  0.0
     23     20     21     22   5     0.00000     0.00000     2.25936  0.0
     23     20     21     25   5     0.00000     0.00000     1.25520  0.0
     23     20     21     26   5     0.00000     0.00000     1.25520  0.0
     24     20     21     22   5     0.00000     0.00000     2.25936  0.0
     24     20     21     25   5     0.00000     0.00000     1.25520  0.0
     24     20     21     26   5     0.00000     0.00000     1.25520  0.0
     20     21     26     27   5     4.74884    -0.63178     1.67360  0.0
     20     21     26     29   5     0.00000     0.00000     1.25520  0.0
     20     21     26     30   5     0.00000     0.00000     1.25520  0.0
     22     21     26     27   5     2.97901    -1.22591     2.79073  0.0
     22     21     26     29   5     0.00000     0.00000     2.25936  0.0
     22     21     26     30   5     0.00000     0.00000     2.25936  0.0
     25     21     26     27   5     0.00000     0.00000     1.25520  0.0
     25     21     26     29   5     0.00000     0.00000     1.25520  0.0
     25     21     26     30   5     0.00000     0.00000     1.25520  0.0
     21     26     27     28   5     2.97901    -1.22591     2.79073  0.0
     21     26     27     31   5     0.00000     0.00000     1.25520  0.0
     21     26     27     32   5     4.74884    -0.63178     1.67360  0.0
     29     26     27     28   5     0.00000     0.00000     2.25936  0.0
     29     26     27     31   5     0.00000     0.00000     1.25520  0.0
     29     26     27     32   5     0.00000     0.00000     1.25520  0.0
     30     26     27     28   5     0.00000     0.00000     2.25936  0.0
     30     26     27     31   5     0.00000     0.00000     1.25520  0.0
     30     26     27     32   5     0.00000     0.00000     1.25520  0.0
     26     27     32     33   5     4.74884    -0.63178     1.67360  0.0
     26     27     32     35   5     0.00000     0.00000     1.25520  0.0
     26     27     32     36   5     0.00000     0.00000     1.25520  0.0
     28     27     32     33   5     2.97901    -1.22591     2.79073  0.0
     28     27     32     35   5     0.00000     0.00000     2.25936  0.0
     28     27     32     36   5     0.00000     0.00000     2.25936  0.0
     31     27     32     33   5     0.00000     0.00000     1.25520  0.0
     31     27     32     35   5     0.00000     0.00000     1.25520  0.0
     31     27     32     36   5     0.00000     0.00000     1.25520  0.0
     27     32     33     34   5     2.97901    -1.22591     2.79073  0.0
     27     32     33     37   5     0.00000     0.00000     1.25520  0.0
     27     32     33     38   5     4.74884    -0.63178     1.67360  0.0
     35     32     33     34   5     0.00000     0.00000     2.25936  0.0
     35     32     33     37   5     0.00000     0.00000     1.25520  0.0
     35     32     33     38   5     0.00000     0.00000     1.25520  0.0
     36     32     33     34   5     0.00000     0.00000     2.25936  0.0
     36     32     33     37   5     0.00000     0.00000     1.25520  0.0
     36     32     33     38   5     0.00000     0.00000     1.25520  0.0
     32     33     38     39   5     4.74884    -0.63178     1.67360  0.0
     32     33     38     41   5     0.00000     0.00000     1.25520  0.0
     32     33     38     42   5     0.00000     0.00000     1.25520  0.0
     34     33     38     39   5     2.97901    -1.22591     2.79073  0.0
     34     33     38     41   5     0.00000     0.00000     2.25936  0.0
     34     33     38     42   5     0.00000     0.00000     2.25936  0.0
     37     33     38     39   5     0.00000     0.00000     1.25520  0.0
     37     33     38     41   5     0.00000     0.00000     1.25520  0.0
     37     33     38     42   5     0.00000     0.00000     1.25520  0.0
     33     38     39     40   5     2.97901    -1.22591     2.79073  0.0
     33     38     39     43   5     0.00000     0.00000     1.25520  0.0
     33     38     39     44   5     4.74884    -0.63178     1.67360  0.0
     41     38     39     40   5     0.00000     0.00000     2.25936  0.0
     41     38     39     43   5     0.00000     0.00000     1.25520  0.0
     41     38     39     44   5     0.00000     0.00000     1.25520  0.0
     42     38     39     40   5     0.00000     0.00000     2.25936  0.0
     42     38     39     43   5     0.00000     0.00000     1.25520  0.0
     42     38     39     44   5     0.00000     0.00000     1.25520  0.0
     38     39     44     45   5     4.74884    -0.63178     1.67360  0.0
     38     39     44     47   5     0.00000     0.00000     1.25520  0.0
     38     39     44     48   5     0.00000     0.00000     1.25520  0.0
     40     39     44     45   5     2.97901    -1.22591     2.79073  0.0
     40     39     44     47   5     0.00000     0.00000     2.25936  0.0
     40     39     44     48   5     0.00000     0.00000     2.25936  0.0
     43     39     44     45   5     0.00000     0.00000     1.25520  0.0
     43     39     44     47   5     0.00000     0.00000     1.25520  0.0
     43     39     44     48   5     0.00000     0.00000     1.25520  0.0
     39     44     45     46   5     2.97901    -1.22591     2.79073  0.0
     39     44     45     49   5     0.00000     0.00000     1.25520  0.0
     39     44     45     50   5     4.74884    -0.63178     1.67360  0.0
     47     44     45     46   5     0.00000     0.00000     2.25936  0.0
     47     44     45     49   5     0.00000     0.00000     1.25520  0.0
     47     44     45     50   5     0.00000     0.00000     1.25520  0.0
     48     44     45     46   5     0.00000     0.00000     2.25936  0.0
     48     44     45     49   5     0.00000     0.00000     1.25520  0.0
     48     44     45     50   5     0.00000     0.00000     1.25520  0.0
     44     45     50     51   5     4.74884    -0.63178     1.67360  0.0
     44     45     50     53   5     0.00000     0.00000     1.25520  0.0
     44     45     50     54   5     0.00000     0.00000     1.25520  0.0
     46     45     50     51   5     2.97901    -1.22591     2.79073  0.0
     46     45     50     53   5     0.00000     0.00000     2.25936  0.0
     46     45     50     54   5     0.00000     0.00000     2.25936  0.0
     49     45     50     51   5     0.00000     0.00000     1.25520  0.0
     49     45     50     53   5     0.00000     0.00000     1.25520  0.0
     49     45     50     54   5     0.00000     0.00000     1.25520  0.0
     45     50     51     52   5     2.97901    -1.22591     2.79073  0.0
     45     50     51     55   5     0.00000     0.00000     1.25520  0.0
     45     50     51     56   5     4.74884    -0.63178     1.67360  0.0
     53     50     51     52   5     0.00000     0.00000     2.25936  0.0
     53     50     51     55   5     0.00000     0.00000     1.25520  0.0
     53     50     51     56   5     0.00000     0.00000     1.25520  0.0
     54     50     51     52   5     0.00000     0.00000     2.25936  0.0
     54     50     51     55   5     0.00000     0.00000     1.25520  0.0
     54     50     51     56   5     0.00000     0.00000     1.25520  0.0
     50     51     56     57   5     4.74884    -0.63178     1.67360  0.0
     50     51     56     59   5     0.00000     0.00000     1.25520  0.0
     50     51     56     60   5     0.00000     0.00000     1.25520  0.0
     52     51     56     57   5     2.97901    -1.22591     2.79073  0.0
     52     51     56     59   5     0.00000     0.00000     2.25936  0.0
     52     51     56     60   5     0.00000     0.00000     2.25936  0.0
     55     51     56     57   5     0.00000     0.00000     1.25520  0.0
     55     51     56     59   5     0.00000     0.00000     1.25520  0.0
     55     51     56     60   5     0.00000     0.00000     1.25520  0.0
     51     56     57     58   5     2.97901    -1.22591     2.79073  0.0
     51     56     57     61   5     0.00000     0.00000     1.25520  0.0
     51     56     57     62   5     4.74884    -0.63178     1.67360  0.0
     59     56     57     58   5     0.00000     0.00000     2.25936  0.0
     59     56     57     61   5     0.00000     0.00000     1.25520  0.0
     59     56     57     62   5     0.00000     0.00000     1.25520  0.0
     60     56     57     58   5     0.00000     0.00000     2.25936  0.0
     60     56     57     61   5     0.00000     0.00000     1.25520  0.0
     60     56     57     62   5     0.00000     0.00000     1.25520  0.0
     56     57     62     63   5     4.74884    -0.63178     1.67360  0.0
     56     57     62     65   5     0.00000     0.00000     1.25520  0.0
     56     57     62     66   5     0.00000     0.00000     1.25520  0.0
     58     57     62     63   5     2.97901    -1.22591     2.79073  0.0
     58     57     62     65   5     0.00000     0.00000     2.25936  0.0
     58     57     62     66   5     0.00000     0.00000     2.25936  0.0
     61     57     62     63   5     0.00000     0.00000     1.25520  0.0
     61     57     62     65   5     0.00000     0.00000     1.25520  0.0
     61     57     62     66   5     0.00000     0.00000     1.25520  0.0
     57     62     63     64   5     2.97901    -1.22591     2.79073  0.0
     57     62     63     67   5     0.00000     0.00000     1.25520  0.0
     57     62     63     68   5     4.74884    -0.63178     1.67360  0.0
     65     62     63     64   5     0.00000     0.00000     2.25936  0.0
     65     62     63     67   5     0.00000     0.00000     1.25520  0.0
     65     62     63     68   5     0.00000     0.00000     1.25520  0.0
     66     62     63     64   5     0.00000     0.00000     2.25936  0.0
     66     62     63     67   5     0.00000     0.00000     1.25520  0.0
     66     62     63     68   5     0.00000     0.00000     1.25520  0.0
     62     63     68     69   5     4.74884    -0.63178     1.67360  0.0
     62     63     68     71   5     0.00000     0.00000     1.25520  0.0
     62     63     68     72   5     0.00000     0.00000     1.25520  0.0
     64     63     68     69   5     2.97901    -1.22591     2.79073  0.0
     64     63     68     71   5     0.00000     0.00000     2.25936  0.0
     64     63     68     72   5     0.00000     0.00000     2.25936  0.0
     67     63     68     69   5     0.00000     0.00000     1.25520  0.0
     67     63     68     71   5     0.00000     0.00000     1.25520  0.0
     67     63     68     72   5     0.00000     0.00000     1.25520  0.0
     63     68     69     70   5     2.97901    -1.22591     2.79073  0.0
     63     68     69     73   5     0.00000     0.00000     1.25520  0.0
     63     68     69     74   5     4.74884    -0.63178     1.67360  0.0
     71     68     69     70   5     0.00000     0.00000     2.25936  0.0
     71     68     69     73   5     0.00000     0.00000     1.25520  0.0
     71     68     69     74   5     0.00000     0.00000     1.25520  0.0
     72     68     69     70   5     0.00000     0.00000     2.25936  0.0
     72     68     69     73   5     0.00000     0.00000     1.25520  0.0
     72     68     69     74   5     0.00000     0.00000     1.25520  0.0
     68     69     74     75   5     4.74884    -0.63178     1.67360  0.0
     68     69     74     77   5     0.00000     0.00000     1.25520  0.0
     68     69     74     78   5     0.00000     0.00000     1.25520  0.0
     70     69     74     75   5     2.97901    -1.22591     2.79073  0.0
     70     69     74     77   5     0.00000     0.00000     2.25936  0.0
     70     69     74     78   5     0.00000     0.00000     2.25936  0.0
     73     69     74     75   5     0.00000     0.00000     1.25520  0.0
     73     69     74     77   5     0.00000     0.00000     1.25520  0.0
     73     69     74     78   5     0.00000     0.00000     1.25520  0.0
     69     74     75     76   5     2.97901    -1.22591     2.79073  0.0
     69     74     75     79   5     0.00000     0.00000     1.25520  0.0
     69     74     75     80   5     4.74884    -0.63178     1.67360  0.0
     77     74     75     76   5     0.00000     0.00000     2.25936  0.0
     77     74     75     79   5     0.00000     0.00000     1.25520  0.0
     77     74     75     80   5     0.00000     0.00000     1.25520  0.0
     78     74     75     76   5     0.00000     0.00000     2.25936  0.0
     78     74     75     79   5     0.00000     0.00000     1.25520  0.0
     78     74     75     80   5     0.00000     0.00000     1.25520  0.0
     74     75     80     81   5     4.74884    -0.63178     1.67360  0.0
     74     75     80     83   5     0.00000     0.00000     1.25520  0.0
     74     75     80     84   5     0.00000     0.00000     1.25520  0.0
     76     75     80     81   5     2.97901    -1.22591     2.79073  0.0
     76     75     80     83   5     0.00000     0.00000     2.25936  0.0
     76     75     80     84   5     0.00000     0.00000     2.25936  0.0
     79     75     80     81   5     0.00000     0.00000     1.25520  0.0
     79     75     80     83   5     0.00000     0.00000     1.25520  0.0
     79     75     80     84   5     0.00000     0.00000     1.25520  0.0
     75     80     81     82   5     2.97901    -1.22591     2.79073  0.0
     75     80     81     85   5     0.00000     0.00000     1.25520  0.0
     75     80     81     86   5     4.74884    -0.63178     1.67360  0.0
     83     80     81     82   5     0.00000     0.00000     2.25936  0.0
     83     80     81     85   5     0.00000     0.00000     1.25520  0.0
     83     80     81     86   5     0.00000     0.00000     1.25520  0.0
     84     80     81     82   5     0.00000     0.00000     2.25936  0.0
     84     80     81     85   5     0.00000     0.00000     1.25520  0.0
     84     80     81     86   5     0.00000     0.00000     1.25520  0.0
     80     81     86     87   5     4.74884    -0.63178     1.67360  0.0
     80     81     86     89   5     0.00000     0.00000     1.25520  0.0
     80     81     86     90   5     0.00000     0.00000     1.25520  0.0
     82     81     86     87   5     2.97901    -1.22591     2.79073  0.0
     82     81     86     89   5     0.00000     0.00000     2.25936  0.0
     82     81     86     90   5     0.00000     0.00000     2.25936  0.0
     85     81     86     87   5     0.00000     0.00000     1.25520  0.0
     85     81     86     89   5     0.00000     0.00000     1.25520  0.0
     85     81     86     90   5     0.00000     0.00000     1.25520  0.0
     81     86     87     88   5     2.97901    -1.22591     2.79073  0.0
     81     86     87     91   5     0.00000     0.00000     1.25520  0.0
     81     86     87     92   5     4.74884    -0.63178     1.67360  0.0
     89     86     87     88   5     0.00000     0.00000     2.25936  0.0
     89     86     87     91   5     0.00000     0.00000     1.25520  0.0
     89     86     87     92   5     0.00000     0.00000     1.25520  0.0
     90     86     87     88   5     0.00000     0.00000     2.25936  0.0
     90     86     87     91   5     0.00000     0.00000     1.25520  0.0
     90     86     87     92   5     0.00000     0.00000     1.25520  0.0
     86     87     92     93   5     4.74884    -0.63178     1.67360  0.0
     86     87     92     95   5     0.00000     0.00000     1.25520  0.0
     86     87     92     96   5     0.00000     0.00000     1.25520  0.0
     88     87     92     93   5     2.97901    -1.22591     2.79073  0.0
     88     87     92     95   5     0.00000     0.00000     2.25936  0.0
     88     87     92     96   5     0.00000     0.00000     2.25936  0.0
     91     87     92     93   5     0.00000     0.00000     1.25520  0.0
     91     87     92     95   5     0.00000     0.00000     1.25520  0.0
     91     87     92     96   5     0.00000     0.00000     1.25520  0.0
     87     92     93     94   5     2.97901    -1.22591     2.79073  0.0
     87     92     93     97   5     0.00000     0.00000     1.25520  0.0
     87     92     93     98   5     4.74884    -0.63178     1.67360  0.0
     95     92     93     94   5     0.00000     0.00000     2.25936  0.0
     95     92     93     97   5     0.00000     0.00000     1.25520  0.0
     95     92     93     98   5     0.00000     0.00000     1.25520  0.0
     96     92     93     94   5     0.00000     0.00000     2.25936  0.0
     96     92     93     97   5     0.00000     0.00000     1.25520  0.0
     96     92     93     98   5     0.00000     0.00000     1.25520  0.0
     92     93     98     99   5     4.74884    -0.63178     1.67360  0.0
     92     93     98    101   5     0.00000     0.00000     1.25520  0.0
     92     93     98    102   5     0.00000     0.00000     1.25520  0.0
     94     93     98     99   5     2.97901    -1.22591     2.79073  0.0
     94     93     98    101   5     0.00000     0.00000     2.25936  0.0
     94     93     98    102   5     0.00000     0.00000     2.25936  0.0
     97     93     98     99   5     0.00000     0.00000     1.25520  0.0
     97     93     98    101   5     0.00000     0.00000     1.25520  0.0
     97     93     98    102   5     0.00000     0.00000     1.25520  0.0
     93     98     99    100   5     2.97901    -1.22591     2.79073  0.0
     93     98     99    103   5     0.00000     0.00000     1.25520  0.0
     93     98     99    104   5     4.74884    -0.63178     1.67360  0.0
    101     98     99    100   5     0.00000     0.00000     2.25936  0.0
    101     98     99    103   5     0.00000     0.00000     1.25520  0.0
    101     98     99    104   5     0.00000     0.00000     1.25520  0.0
    102     98     99    100   5     0.00000     0.00000     2.25936  0.0
    102     98     99    103   5     0.00000     0.00000     1.25520  0.0
    102     98     99    104   5     0.00000     0.00000     1.25520  0.0
     98     99    104    105   5     4.74884    -0.63178     1.67360  0.0
     98     99    104    107   5     0.00000     0.00000     1.25520  0.0
     98     99    104    108   5     0.00000     0.00000     1.25520  0.0
    100     99    104    105   5     2.97901    -1.22591     2.79073  0.0
    100     99    104    107   5     0.00000     0.00000     2.25936  0.0
    100     99    104    108   5     0.00000     0.00000     2.25936  0.0
    103     99    104    105   5     0.00000     0.00000     1.25520  0.0
    103     99    104    107   5     0.00000     0.00000     1.25520  0.0
    103     99    104    108   5     0.00000     0.00000     1.25520  0.0
     99    104    105    106   5     2.97901    -1.22591     2.79073  0.0
     99    104    105    109   5     0.00000     0.00000     1.25520  0.0
     99    104    105    110   5     4.74884    -0.63178     1.67360  0.0
    107    104    105    106   5     0.00000     0.00000     2.25936  0.0
    107    104    105    109   5     0.00000     0.00000     1.25520  0.0
    107    104    105    110   5     0.00000     0.00000     1.25520  0.0
    108    104    105    106   5     0.00000     0.00000     2.25936  0.0
    108    104    105    109   5     0.00000     0.00000     1.25520  0.0
    108    104    105    110   5     0.00000     0.00000     1.25520  0.0
    104    105    110    111   5     4.74884    -0.63178     1.67360  0.0
    104    105    110    113   5     0.00000     0.00000     1.25520  0.0
    104    105    110    114   5     0.00000     0.00000     1.25520  0.0
    106    105    110    111   5     2.97901    -1.22591     2.79073  0.0
    106    105    110    113   5     0.00000     0.00000     2.25936  0.0
    106    105    110    114   5     0.00000     0.00000     2.25936  0.0
    109    105    110    111   5     0.00000     0.00000     1.25520  0.0
    109    105    110    113   5     0.00000     0.00000     1.25520  0.0
    109    105    110    114   5     0.00000     0.00000     1.25520  0.0
    105    110    111    112   5     2.97901    -1.22591     2.79073  0.0
    105    110    111    115   5     0.00000     0.00000     1.25520  0.0
    105    110    111    116   5     4.74884    -0.63178     1.67360  0.0
    113    110    111    112   5     0.00000     0.00000     2.25936  0.0
    113    110    111    115   5     0.00000     0.00000     1.25520  0.0
    113    110    111    116   5     0.00000     0.00000     1.25520  0.0
    114    110    111    112   5     0.00000     0.00000     2.25936  0.0
    114    110    111    115   5     0.00000     0.00000     1.25520  0.0
    114    110    111    116   5     0.00000     0.00000     1.25520  0.0
    110    111    116    117   5     4.74884    -0.63178     1.67360  0.0
    110    111    116    119   5     0.00000     0.00000     1.25520  0.0
    110    111    116    120   5     0.00000     0.00000     1.25520  0.0
    112    111    116    117   5     2.97901    -1.22591     2.79073  0.0
    112    111    116    119   5     0.00000     0.00000     2.25936  0.0
    112    111    116    120   5     0.00000     0.00000     2.25936  0.0
    115    111    116    117   5     0.00000     0.00000     1.25520  0.0
    115    111    116    119   5     0.00000     0.00000     1.25520  0.0
    115    111    116    120   5     0.00000     0.00000     1.25520  0.0
    111    116    117    118   5     2.97901    -1.22591     2.79073  0.0
    111    116    117    121   5     0.00000     0.00000     1.25520  0.0
    111    116    117    122   5     0.00000     0.00000     1.25520  0.0
    119    116    117    118   5     0.00000     0.00000     2.25936  0.0
    119    116    117    121   5     0.00000     0.00000     1.25520  0.0
    119    116    117    122   5     0.00000     0.00000     1.25520  0.0
    120    116    117    118   5     0.00000     0.00000     2.25936  0.0
    120    116    117    121   5     0.00000     0.00000     1.25520  0.0
    120    116    117    122   5     0.00000     0.00000     1.25520  0.0
